<event>
12    1  0.1074575E-001  0.2983409E+03  0.7546771E-02  0.1086290E+00
         21   -1    0    0  501  502  0.00000000000E+00  0.00000000000E+00  0.12547529790E+04  0.12547529790E+04  0.00000000000E+00 0. -1.
         21   -1    0    0  502  503 -0.00000000000E+00 -0.00000000000E+00 -0.28849617384E+03  0.28849617384E+03  0.00000000000E+00 0.  1.
         -6    2    1    2    0  503 -0.18852841576E+03 -0.15056684695E+03 -0.18791689644E+03  0.35114000293E+03  0.17254913138E+03 0.  0.
        -24    2    3    3    0    0 -0.75782968927E+02 -0.14379700864E+03 -0.99108775804E+02  0.20738208564E+03  0.82244403632E+02 0.  0.
          6    2    1    2  501    0  0.18852841576E+03  0.15056684695E+03  0.11541737016E+04  0.11921091499E+04  0.17548205860E+03 0.  0.
         24    2    5    5    0    0  0.45433686122E+02  0.96175655376E+02  0.69422098960E+03  0.70732766238E+03  0.83997994355E+02 0.  0.
          5    1    5    5  501    0  0.14309472964E+03  0.54391191576E+02  0.45995271199E+03  0.48478148751E+03  0.47000000000E+01 0. -1.
        -13    1    6    6    0    0  0.30919666138E+02  0.10858253696E+03  0.52309874835E+03  0.53514343275E+03  0.00000000000E+00 0.  1.
         14    1    6    6    0    0  0.14514019984E+02 -0.12406881582E+02  0.17112224124E+03  0.17218422963E+03  0.00000000000E+00 0. -1.
         -5    1    3    3    0  503 -0.11274544683E+03 -0.67698383099E+01 -0.88808120640E+02  0.14375791729E+03  0.47000000000E+01 0.  1.
         13    1    4    4    0    0 -0.86674062749E+00 -0.86581771984E+02 -0.35054562697E+02  0.93412937247E+02  0.00000000000E+00 0. -1.
        -14    1    4    4    0    0 -0.74916228300E+02 -0.57215236659E+02 -0.64054213107E+02  0.11396914839E+03  0.00000000000E+00 0.  1.
<mgrwt>
<rscale>  2 0.29791106E+03</rscale>
<asrwt>0</asrwt>
<pdfrwt beam="1">  1       21 0.19303892E+00 0.29834090E+03</pdfrwt>
<pdfrwt beam="2">  1       21 0.44384027E-01 0.29834090E+03</pdfrwt>
<totfact> 0.65783447E+02</totfact>
</mgrwt>
</event>
<event>
11    1  0.1074575E-001  0.1750836E+03  0.7546771E-02  0.1172956E+00
         21   -1    0    0  501  502  0.00000000000E+00  0.00000000000E+00  0.68059508339E+02  0.68059508339E+02  0.00000000000E+00 0. -1.
         21   -1    0    0  502  503 -0.00000000000E+00 -0.00000000000E+00 -0.45376336610E+03  0.45376336610E+03  0.00000000000E+00 0. -1.
         -6    2    1    2    0  503  0.50562062014E+01 -0.26481559204E+02 -0.22341416421E+03  0.28309245826E+03  0.17175742473E+03 0.  0.
          6    2    1    2  501    0 -0.50562062014E+01  0.26481559204E+02 -0.16228969354E+03  0.23873041618E+03  0.17299545884E+03 0.  0.
         24    2    4    4    0    0 -0.14411383736E+02  0.21358066025E+02 -0.19045323266E+03  0.20825018546E+03  0.80198821350E+02 0.  0.
          5    1    4    4  501    0  0.93551775344E+01  0.51234931783E+01  0.28163539119E+02  0.30480230720E+02  0.47000000000E+01 0. -1.
        -13    1    5    5    0    0  0.24208540533E+02 -0.33622731365E+00 -0.17919687930E+02  0.30121117161E+02  0.00000000000E+00 0.  1.
         14    1    5    5    0    0 -0.38619924269E+02  0.21694293339E+02 -0.17253354473E+03  0.17812906830E+03  0.00000000000E+00 0. -1.
         -5    1    3    3    0  503 -0.76170468127E+02  0.72199290569E+01 -0.98851010597E+02  0.12509068665E+03  0.47000000000E+01 0.  1.
         11    1    3    3    0    0  0.59830181314E+02 -0.46182904701E+01 -0.88858489875E+02  0.10722318045E+03  0.00000000000E+00 0. -1.
        -12    1    3    3    0    0  0.21396493014E+02 -0.29083197790E+02 -0.35704663741E+02  0.50778591157E+02  0.00000000000E+00 0.  1.
<mgrwt>
<rscale>  2 0.17477700E+03</rscale>
<asrwt>0</asrwt>
<pdfrwt beam="1">  1       21 0.10470693E-01 0.17508360E+03</pdfrwt>
<pdfrwt beam="2">  1       21 0.69809751E-01 0.17508360E+03</pdfrwt>
<totfact> 0.14029082E+05</totfact>
</mgrwt>
</event>
<event>
12    1  0.1074575E-001  0.1745896E+03  0.7546771E-02  0.1173385E+00
         21   -1    0    0  503  502  0.00000000000E+00  0.00000000000E+00  0.45324527953E+02  0.45324527953E+02  0.00000000000E+00 0. -1.
         21   -1    0    0  501  503 -0.00000000000E+00 -0.00000000000E+00 -0.74334622639E+03  0.74334622639E+03  0.00000000000E+00 0. -1.
          6    2    1    2  501    0 -0.15248398464E+02 -0.12893610322E+02 -0.47298396748E+03  0.50384885417E+03  0.17248500084E+03 0.  0.
         24    2    3    3    0    0 -0.74502451051E+02 -0.11730523121E+02 -0.26663976643E+03  0.28911083977E+03  0.82462671847E+02 0.  0.
         -6    2    1    2    0  502  0.15248398464E+02  0.12893610322E+02 -0.22503773096E+03  0.28482190017E+03  0.17344386879E+03 0.  0.
        -24    2    5    5    0    0 -0.55485830419E+02  0.24730310170E+02 -0.10993090775E+03  0.14911961815E+03  0.80384018425E+02 0.  0.
          5    1    3    3  501    0  0.59254052587E+02 -0.11630872018E+01 -0.20634420105E+03  0.21473801440E+03  0.47000000000E+01 0. -1.
        -11    1    4    4    0    0 -0.97465229025E+01 -0.37417253273E+02 -0.63370375378E+02  0.74235099695E+02  0.00000000000E+00 0.  1.
         12    1    4    4    0    0 -0.64755928149E+02  0.25686730152E+02 -0.20326939105E+03  0.21487574008E+03  0.00000000000E+00 0. -1.
         -5    1    5    5    0  502  0.70734228884E+02 -0.11836699847E+02 -0.11510682321E+03  0.13570228203E+03  0.47000000000E+01 0.  1.
         13    1    6    6    0    0 -0.32099535850E+02 -0.23729097037E+02 -0.20814374710E+02  0.45018756564E+02  0.00000000000E+00 0. -1.
        -14    1    6    6    0    0 -0.23386294570E+02  0.48459407207E+02 -0.89116533044E+02  0.10410086158E+03  0.00000000000E+00 0.  1.
<mgrwt>
<rscale>  2 0.17435099E+03</rscale>
<asrwt>0</asrwt>
<pdfrwt beam="1">  1       21 0.69730045E-02 0.17458962E+03</pdfrwt>
<pdfrwt beam="2">  1       21 0.11436096E+00 0.17458962E+03</pdfrwt>
<totfact> 0.91221869E+04</totfact>
</mgrwt>
</event>
<event>
12    1  0.1074575E-001  0.1912410E+03  0.7546771E-02  0.1157354E+00
         21   -1    0    0  501  502  0.00000000000E+00  0.00000000000E+00  0.73707210148E+03  0.73707210148E+03  0.00000000000E+00 0.  1.
         21   -1    0    0  502  503 -0.00000000000E+00 -0.00000000000E+00 -0.11862113501E+03  0.11862113501E+03  0.00000000000E+00 0.  1.
         -6    2    1    2    0  503  0.73938964109E+02  0.36444454411E+02 -0.17098426007E+02  0.19200379694E+03  0.17256283840E+03 0.  0.
        -24    2    3    3    0    0  0.18865653003E+02  0.21946323565E+02 -0.74953428770E+02  0.11068616823E+03  0.76130528512E+02 0.  0.
          6    2    1    2  501    0 -0.73938964109E+02 -0.36444454411E+02  0.63554939247E+03  0.66368943955E+03  0.17252673191E+03 0.  0.
         24    2    5    5    0    0 -0.75912423958E+02  0.29098895305E+02  0.38408263449E+03  0.40377128781E+03  0.94352217352E+02 0.  0.
          5    1    5    5  501    0  0.19734598481E+01 -0.65543349716E+02  0.25146675798E+03  0.25991815174E+03  0.47000000000E+01 0. -1.
        -11    1    6    6    0    0 -0.83820936057E+02  0.29041357209E+02  0.38563933953E+03  0.39571081606E+03  0.00000000000E+00 0.  1.
         12    1    6    6    0    0  0.79085120996E+01  0.57538096478E-01 -0.15567050386E+01  0.80604717504E+01  0.00000000000E+00 0. -1.
         -5    1    3    3    0  503  0.55073311106E+02  0.14498130846E+02  0.57855002763E+02  0.81317628710E+02  0.47000000000E+01 0.  1.
         11    1    4    4    0    0  0.10170016447E+02  0.50511507622E+02 -0.45370797374E+02  0.68653848335E+02  0.00000000000E+00 0. -1.
        -12    1    4    4    0    0  0.86956365560E+01 -0.28565184057E+02 -0.29582631396E+02  0.42032319894E+02  0.00000000000E+00 0.  1.
<mgrwt>
<rscale>  2 0.19123281E+03</rscale>
<asrwt>0</asrwt>
<pdfrwt beam="1">  1       21 0.11339570E+00 0.19124095E+03</pdfrwt>
<pdfrwt beam="2">  1       21 0.18249406E-01 0.19124095E+03</pdfrwt>
<totfact> 0.16620171E+04</totfact>
</mgrwt>
</event>
<event>
12    1  0.1074575E-001  0.2915779E+03  0.7546771E-02  0.1089593E+00
         21   -1    0    0  501  502  0.00000000000E+00  0.00000000000E+00  0.67006150554E+03  0.67006150554E+03  0.00000000000E+00 0.  1.
         21   -1    0    0  502  503 -0.00000000000E+00 -0.00000000000E+00 -0.14990963268E+03  0.14990963268E+03  0.00000000000E+00 0. -1.
         -6    2    1    2    0  503  0.16864814085E+03 -0.16329540117E+03  0.98817065421E+02  0.30786764192E+03  0.17294533548E+03 0.  0.
        -24    2    3    3    0    0  0.79533049322E+02 -0.15422021470E+03  0.29683183945E+02  0.19461817342E+03  0.82980488432E+02 0.  0.
          6    2    1    2  501    0 -0.16864814085E+03  0.16329540117E+03  0.42133480744E+03  0.51210349629E+03  0.17210283989E+03 0.  0.
         24    2    5    5    0    0 -0.37567336790E+02  0.11346229950E+03  0.16031955274E+03  0.21576489199E+03  0.81037839447E+02 0.  0.
          5    1    5    5  501    0 -0.13108080406E+03  0.49833101672E+02  0.26101525470E+03  0.29633860430E+03  0.47000000000E+01 0. -1.
        -13    1    6    6    0    0 -0.61096104291E+02  0.95693681734E+02  0.11425277337E+03  0.16107051532E+03  0.00000000000E+00 0.  1.
         14    1    6    6    0    0  0.23528767501E+02  0.17768617769E+02  0.46066779368E+02  0.54694376666E+02  0.00000000000E+00 0. -1.
         -5    1    3    3    0  503  0.89115091530E+02 -0.90751864785E+01  0.69133881476E+02  0.11324946850E+03  0.47000000000E+01 0.  1.
         11    1    4    4    0    0  0.87027533003E+02 -0.10938700873E+03  0.44684360034E+02  0.14675149475E+03  0.00000000000E+00 0. -1.
        -12    1    4    4    0    0 -0.74944836810E+01 -0.44833205965E+02 -0.15001176089E+02  0.47866678669E+02  0.00000000000E+00 0.  1.
<mgrwt>
<rscale>  2 0.29145309E+03</rscale>
<asrwt>0</asrwt>
<pdfrwt beam="1">  1       21 0.10308638E+00 0.29157790E+03</pdfrwt>
<pdfrwt beam="2">  1       21 0.23063021E-01 0.29157790E+03</pdfrwt>
<totfact> 0.12750242E+04</totfact>
</mgrwt>
</event>
<event>
12    1  0.1074575E-001  0.2280230E+03  0.7546771E-02  0.1128162E+00
         21   -1    0    0  503  502  0.00000000000E+00  0.00000000000E+00  0.24530890217E+03  0.24530890217E+03  0.00000000000E+00 0. -1.
         21   -1    0    0  501  503 -0.00000000000E+00 -0.00000000000E+00 -0.25377286520E+03  0.25377286520E+03  0.00000000000E+00 0.  1.
          6    2    1    2  501    0  0.12548143246E+03  0.77964966746E+02 -0.10630589313E+03  0.25158580368E+03  0.17369613631E+03 0.  0.
         24    2    3    3    0    0  0.13372907599E+02  0.14008865464E+02  0.28795699257E+01  0.82463777969E+02  0.80105554019E+02 0.  0.
         -6    2    1    2    0  502 -0.12548143246E+03 -0.77964966746E+02  0.97841930097E+02  0.24749596369E+03  0.17279202188E+03 0.  0.
        -24    2    5    5    0    0 -0.33902133602E+02 -0.88987685014E+02  0.91589902013E+02  0.15492466062E+03  0.80899799563E+02 0.  0.
          5    1    3    3  501    0  0.11210852486E+03  0.63956101282E+02 -0.10918546306E+03  0.16912202571E+03  0.47000000000E+01 0. -1.
        -11    1    4    4    0    0  0.36418067243E+01  0.42415093959E+02 -0.17655012229E+02  0.46086900618E+02  0.00000000000E+00 0.  1.
         12    1    4    4    0    0  0.97311008749E+01 -0.28406228495E+02  0.20534582155E+02  0.36376877351E+02  0.00000000000E+00 0. -1.
         -5    1    5    5    0  502 -0.91579298860E+02  0.11022718268E+02  0.62520280839E+01  0.92571303074E+02  0.47000000000E+01 0.  1.
         11    1    6    6    0    0 -0.19419727411E+02 -0.95074815041E+02  0.47341349199E+02  0.10797013296E+03  0.00000000000E+00 0. -1.
        -12    1    6    6    0    0 -0.14482406191E+02  0.60871300272E+01  0.44248552815E+02  0.46954527654E+02  0.00000000000E+00 0.  1.
<mgrwt>
<rscale>  2 0.22785078E+03</rscale>
<asrwt>0</asrwt>
<pdfrwt beam="1">  1       21 0.37739831E-01 0.22802297E+03</pdfrwt>
<pdfrwt beam="2">  1       21 0.39041980E-01 0.22802297E+03</pdfrwt>
<totfact> 0.42101707E+04</totfact>
</mgrwt>
</event>
<event>
12    1  0.1074575E-001  0.1740609E+03  0.7546771E-02  0.1174466E+00
         21   -1    0    0  503  502  0.00000000000E+00  0.00000000000E+00  0.16725299412E+03  0.16725299412E+03  0.00000000000E+00 0. -1.
         21   -1    0    0  501  503 -0.00000000000E+00 -0.00000000000E+00 -0.18455666727E+03  0.18455666727E+03  0.00000000000E+00 0. -1.
          6    2    1    2  501    0  0.14741033771E+01 -0.14647497462E+02 -0.41866414812E+02  0.17602421115E+03  0.17033791140E+03 0.  0.
         24    2    3    3    0    0  0.58889564306E+02 -0.34466916743E+01 -0.99972787466E+01  0.10924303838E+03  0.91401506461E+02 0.  0.
         -6    2    1    2    0  502 -0.14741033771E+01  0.14647497462E+02  0.24562741669E+02  0.17578545024E+03  0.17343723382E+03 0.  0.
        -24    2    5    5    0    0 -0.24561272626E+01 -0.45362504714E+02 -0.31574112413E+02  0.93471410619E+02  0.75340497963E+02 0.  0.
          5    1    3    3  501    0 -0.57415460929E+02 -0.11200805788E+02 -0.31869136065E+02  0.66781172778E+02  0.47000000000E+01 0. -1.
        -13    1    4    4    0    0  0.32878609226E+02 -0.14738104476E+02  0.38709542285E+02  0.52883299179E+02  0.00000000000E+00 0.  1.
         14    1    4    4    0    0  0.26010955080E+02  0.11291412801E+02 -0.48706821031E+02  0.56359739196E+02  0.00000000000E+00 0. -1.
         -5    1    5    5    0  502  0.98202388551E+00  0.60010002176E+02  0.56136854083E+02  0.82314039619E+02  0.47000000000E+01 0.  1.
         13    1    6    6    0    0 -0.28907079536E+02 -0.33086877325E+02  0.76483532483E+01  0.44596614286E+02  0.00000000000E+00 0. -1.
        -14    1    6    6    0    0  0.26450952273E+02 -0.12275627389E+02 -0.39222465662E+02  0.48874796332E+02  0.00000000000E+00 0.  1.
<mgrwt>
<rscale>  2 0.17328370E+03</rscale>
<asrwt>0</asrwt>
<pdfrwt beam="1">  1       21 0.25731230E-01 0.17406090E+03</pdfrwt>
<pdfrwt beam="2">  1       21 0.28393333E-01 0.17406090E+03</pdfrwt>
<totfact> 0.17096252E+05</totfact>
</mgrwt>
</event>
<event>
12    1  0.1074575E-001  0.2227909E+03  0.7546771E-02  0.1133467E+00
         21   -1    0    0  503  502  0.00000000000E+00  0.00000000000E+00  0.11933432140E+03  0.11933432140E+03  0.00000000000E+00 0.  1.
         21   -1    0    0  501  503 -0.00000000000E+00 -0.00000000000E+00 -0.41055278094E+03  0.41055278094E+03  0.00000000000E+00 0.  1.
          6    2    1    2  501    0 -0.23502188916E+02 -0.11945421292E+03 -0.18585470813E+03  0.28343769344E+03  0.17599230568E+03 0.  0.
         24    2    3    3    0    0  0.41805069080E+01 -0.13018524270E+03 -0.19817796157E+03  0.25095016932E+03  0.82071974355E+02 0.  0.
         -6    2    1    2    0  502  0.23502188916E+02  0.11945421292E+03 -0.10536375141E+03  0.24644940890E+03  0.18658544736E+03 0.  0.
        -24    2    5    5    0    0 -0.18183416120E+02  0.53090355390E+02  0.18701583851E+02  0.99629285388E+02  0.80168714665E+02 0.  0.
          5    1    3    3  501    0 -0.27682695824E+02  0.10731029776E+02  0.12323253441E+02  0.32487524121E+02  0.47000000000E+01 0. -1.
        -11    1    4    4    0    0 -0.30549450401E+02 -0.92720865691E+02 -0.15897088129E+03  0.18655339437E+03  0.00000000000E+00 0.  1.
         12    1    4    4    0    0  0.34729957309E+02 -0.37464377007E+02 -0.39207080282E+02  0.64396774946E+02  0.00000000000E+00 0. -1.
         -5    1    5    5    0  502  0.41685605036E+02  0.66363857532E+02 -0.12406533526E+03  0.14682012351E+03  0.47000000000E+01 0.  1.
         13    1    6    6    0    0 -0.15715602770E+01 -0.21401757978E+02  0.24761421701E+01  0.21601766740E+02  0.00000000000E+00 0. -1.
        -14    1    6    6    0    0 -0.16611855843E+02  0.74492113368E+02  0.16225441681E+02  0.78027518648E+02  0.00000000000E+00 0.  1.
<mgrwt>
<rscale>  2 0.22055927E+03</rscale>
<asrwt>0</asrwt>
<pdfrwt beam="1">  1       21 0.18359126E-01 0.22279091E+03</pdfrwt>
<pdfrwt beam="2">  1       21 0.63161966E-01 0.22279091E+03</pdfrwt>
<totfact> 0.61937738E+04</totfact>
</mgrwt>
</event>
<event>
12    1  0.1074575E-001  0.2567762E+03  0.7546771E-02  0.1109133E+00
         21   -1    0    0  501  502  0.00000000000E+00  0.00000000000E+00  0.16190060893E+03  0.16190060893E+03  0.00000000000E+00 0.  1.
         21   -1    0    0  502  503 -0.00000000000E+00 -0.00000000000E+00 -0.47482482522E+03  0.47482482522E+03  0.00000000000E+00 0. -1.
         -6    2    1    2    0  503 -0.18217170514E+03  0.49447828640E+02 -0.27697433382E+03  0.37768878904E+03  0.17407590835E+03 0.  0.
        -24    2    3    3    0    0 -0.15559880374E+03  0.80606281911E+02 -0.17962659864E+03  0.27197389017E+03  0.10486048631E+03 0.  0.
          6    2    1    2  501    0  0.18217170514E+03 -0.49447828640E+02 -0.35949882480E+02  0.25903664511E+03  0.17371232411E+03 0.  0.
         24    2    5    5    0    0  0.11986591451E+03  0.25020384988E+01  0.35260103878E+02  0.15099150455E+03  0.84741146213E+02 0.  0.
          5    1    5    5  501    0  0.62305790627E+02 -0.51949867139E+02 -0.71209986358E+02  0.10804514056E+03  0.47000000000E+01 0. -1.
        -11    1    6    6    0    0  0.10680101708E+03  0.23315858371E+02  0.16162675433E+01  0.10932839898E+03  0.00000000000E+00 0.  1.
         12    1    6    6    0    0  0.13064897427E+02 -0.20813819872E+02  0.33643836335E+02  0.41663105571E+02  0.00000000000E+00 0. -1.
         -5    1    3    3    0  503 -0.26572901395E+02 -0.31158453271E+02 -0.97347735180E+02  0.10571489887E+03  0.47000000000E+01 0.  1.
         11    1    4    4    0    0 -0.13919930605E+03  0.65748311748E+02 -0.87182982133E+02  0.17691851140E+03  0.00000000000E+00 0. -1.
        -12    1    4    4    0    0 -0.16399497696E+02  0.14857970164E+02 -0.92443616503E+02  0.95055378775E+02  0.00000000000E+00 0.  1.
<mgrwt>
<rscale>  2 0.25671464E+03</rscale>
<asrwt>0</asrwt>
<pdfrwt beam="1">  1       21 0.24907786E-01 0.25677624E+03</pdfrwt>
<pdfrwt beam="2">  1       21 0.73049972E-01 0.25677624E+03</pdfrwt>
<totfact> 0.24876667E+04</totfact>
</mgrwt>
</event>
<event>
12    1  0.1074575E-001  0.1882283E+03  0.7546771E-02  0.1160296E+00
         21   -1    0    0  501  502  0.00000000000E+00  0.00000000000E+00  0.75049563350E+02  0.75049563350E+02  0.00000000000E+00 0. -1.
         21   -1    0    0  502  503 -0.00000000000E+00 -0.00000000000E+00 -0.64411204093E+03  0.64411204093E+03  0.00000000000E+00 0. -1.
         -6    2    1    2    0  503 -0.69441269666E+02  0.29274507140E+02 -0.47114711174E+03  0.50698878040E+03  0.17140284668E+03 0.  0.
        -24    2    3    3    0    0 -0.10506326295E+03 -0.68761694278E+01 -0.38212005806E+03  0.40440367374E+03  0.80255975689E+02 0.  0.
          6    2    1    2  501    0  0.69441269666E+02 -0.29274507140E+02 -0.97915365836E+02  0.21217282388E+03  0.17248420688E+03 0.  0.
         24    2    5    5    0    0  0.73940778194E+02  0.19904801313E+02 -0.21985625839E+02  0.12147406218E+03  0.91701364461E+02 0.  0.
          5    1    5    5  501    0 -0.44995085272E+01 -0.49179308453E+02 -0.75929739998E+02  0.90698761695E+02  0.47000000000E+01 0. -1.
        -13    1    6    6    0    0  0.14310915573E+01 -0.23525861989E+02 -0.28166495817E+02  0.36726906921E+02  0.00000000000E+00 0.  1.
         14    1    6    6    0    0  0.72509686636E+02  0.43430663303E+02  0.61808699779E+01  0.84747155260E+02  0.00000000000E+00 0. -1.
         -5    1    3    3    0  503  0.35621993284E+02  0.36150676567E+02 -0.89027053682E+02  0.10258510666E+03  0.47000000000E+01 0.  1.
         13    1    4    4    0    0 -0.35985489435E+02  0.97487765954E+01 -0.26356249603E+03  0.26618636969E+03  0.00000000000E+00 0. -1.
        -14    1    4    4    0    0 -0.69077773515E+02 -0.16624946023E+02 -0.11855756203E+03  0.13821730405E+03  0.00000000000E+00 0.  1.
<mgrwt>
<rscale>  2 0.18798020E+03</rscale>
<asrwt>0</asrwt>
<pdfrwt beam="1">  1       21 0.11546087E-01 0.18822829E+03</pdfrwt>
<pdfrwt beam="2">  1       21 0.99094156E-01 0.18822829E+03</pdfrwt>
<totfact> 0.52849506E+04</totfact>
</mgrwt>
</event>
<event>
12    1  0.1074575E-001  0.2188988E+03  0.7546771E-02  0.1134806E+00
         21   -1    0    0  503  502  0.00000000000E+00  0.00000000000E+00  0.13721117769E+03  0.13721117769E+03  0.00000000000E+00 0. -1.
         21   -1    0    0  501  503 -0.00000000000E+00 -0.00000000000E+00 -0.80238379026E+03  0.80238379026E+03  0.00000000000E+00 0. -1.
          6    2    1    2  501    0  0.86802711989E+02 -0.10188834851E+03 -0.68579934473E+03  0.71972653741E+03  0.17253869436E+03 0.  0.
         24    2    3    3    0    0  0.85410834533E+02 -0.11836591207E+03 -0.41382739694E+03  0.44721180789E+03  0.86254199066E+02 0.  0.
         -6    2    1    2    0  502 -0.86802711989E+02  0.10188834851E+03  0.20626732158E+02  0.21986843054E+03  0.17320715429E+03 0.  0.
        -24    2    5    5    0    0 -0.78294835509E+02  0.73490027219E+02 -0.50029320951E+02  0.14310114288E+03  0.80275393302E+02 0.  0.
          5    1    3    3  501    0  0.13918774554E+01  0.16477563564E+02 -0.27197194778E+03  0.27251472952E+03  0.47000000000E+01 0. -1.
        -11    1    4    4    0    0 -0.44164382440E+01  0.81575353990E+00  0.23609345098E+01  0.50738932153E+01  0.00000000000E+00 0.  1.
         12    1    4    4    0    0  0.89827272777E+02 -0.11918166561E+03 -0.41618833145E+03  0.44213791467E+03  0.00000000000E+00 0. -1.
         -5    1    5    5    0  502 -0.85078764800E+01  0.28398321292E+02  0.70656053110E+02  0.76767287665E+02  0.47000000000E+01 0.  1.
         13    1    6    6    0    0 -0.37717530161E+02  0.65320122208E+02  0.34122485542E+01  0.75504793801E+02  0.00000000000E+00 0. -1.
        -14    1    6    6    0    0 -0.40577305348E+02  0.81699050109E+01 -0.53441569506E+02  0.67596349076E+02  0.00000000000E+00 0.  1.
<mgrwt>
<rscale>  2 0.21876650E+03</rscale>
<asrwt>0</asrwt>
<pdfrwt beam="1">  1       21 0.21109412E-01 0.21889875E+03</pdfrwt>
<pdfrwt beam="2">  1       21 0.12344366E+00 0.21889875E+03</pdfrwt>
<totfact> 0.10081584E+04</totfact>
</mgrwt>
</event>
<event>
12    1  0.1074575E-001  0.3216513E+03  0.7546771E-02  0.1075122E+00
         21   -1    0    0  501  502  0.00000000000E+00  0.00000000000E+00  0.56785711622E+03  0.56785711622E+03  0.00000000000E+00 0.  1.
         21   -1    0    0  502  503 -0.00000000000E+00 -0.00000000000E+00 -0.25925285492E+03  0.25925285492E+03  0.00000000000E+00 0. -1.
         -6    2    1    2    0  503 -0.16594930594E+03 -0.21191331323E+03 -0.72483374350E+02  0.32971714756E+03  0.17610546093E+03 0.  0.
        -24    2    3    3    0    0 -0.17179918113E+03 -0.23228055300E+03 -0.61724283192E+02  0.30549126186E+03  0.77754806925E+02 0.  0.
          6    2    1    2  501    0  0.16594930594E+03  0.21191331323E+03  0.38108763565E+03  0.49739282357E+03  0.17241058677E+03 0.  0.
         24    2    5    5    0    0  0.18465118039E+03  0.20553409041E+03  0.29829668192E+03  0.41214678782E+03  0.67407295810E+02 0.  0.
          5    1    5    5  501    0 -0.18701874449E+02  0.63792228216E+01  0.82790953730E+02  0.85246035751E+02  0.47000000000E+01 0. -1.
        -11    1    6    6    0    0  0.33388371056E+02  0.79749676097E+02  0.74021149542E+02  0.11381530977E+03  0.00000000000E+00 0.  1.
         12    1    6    6    0    0  0.15126280934E+03  0.12578441431E+03  0.22427553238E+03  0.29833147805E+03  0.00000000000E+00 0. -1.
         -5    1    3    3    0  503  0.58498751811E+01  0.20367239768E+02 -0.10759091159E+02  0.24225885700E+02  0.47000000000E+01 0.  1.
         11    1    4    4    0    0 -0.50516591201E+02 -0.12023880408E+03 -0.36807237827E+01  0.13047162037E+03  0.00000000000E+00 0. -1.
        -12    1    4    4    0    0 -0.12128258992E+03 -0.11204174892E+03 -0.58043559409E+02  0.17501964149E+03  0.00000000000E+00 0.  1.
<mgrwt>
<rscale>  2 0.32114812E+03</rscale>
<asrwt>0</asrwt>
<pdfrwt beam="1">  1       21 0.87362633E-01 0.32165130E+03</pdfrwt>
<pdfrwt beam="2">  1       21 0.39885055E-01 0.32165130E+03</pdfrwt>
<totfact> 0.63176651E+03</totfact>
</mgrwt>
</event>
<event>
12    1  0.1074575E-001  0.1965677E+03  0.7546771E-02  0.1152967E+00
         21   -1    0    0  503  502  0.00000000000E+00  0.00000000000E+00  0.37863183521E+03  0.37863183521E+03  0.00000000000E+00 0.  1.
         21   -1    0    0  501  503 -0.00000000000E+00 -0.00000000000E+00 -0.10133121443E+03  0.10133121443E+03  0.00000000000E+00 0. -1.
          6    2    1    2  501    0  0.91510888790E+02 -0.15907572527E+02  0.13837841991E+03  0.23925938575E+03  0.17166587588E+03 0.  0.
         24    2    3    3    0    0  0.63081097739E+02 -0.66449896834E+02  0.13261579688E+03  0.18079505996E+03  0.81884616647E+02 0.  0.
         -6    2    1    2    0  502 -0.91510888790E+02  0.15907572527E+02  0.13892220088E+03  0.24070366389E+03  0.17323851270E+03 0.  0.
        -24    2    5    5    0    0 -0.11974958505E+01  0.51715449046E+02  0.53014034272E+02  0.11093072351E+03  0.82578543956E+02 0.  0.
          5    1    3    3  501    0  0.28429791051E+02  0.50542324307E+02  0.57626230254E+01  0.58464325787E+02  0.47000000000E+01 0. -1.
        -11    1    4    4    0    0  0.38528399131E+02  0.12255193713E+02  0.44421804801E+02  0.60065997488E+02  0.00000000000E+00 0.  1.
         12    1    4    4    0    0  0.24552698608E+02 -0.78705090547E+02  0.88193992080E+02  0.12072906247E+03  0.00000000000E+00 0. -1.
         -5    1    5    5    0  502 -0.90313392940E+02 -0.35807876519E+02  0.85908166609E+02  0.12977294038E+03  0.47000000000E+01 0.  1.
         11    1    6    6    0    0 -0.28072255142E+02  0.56912272962E+02  0.17003183865E+02  0.65697538645E+02  0.00000000000E+00 0. -1.
        -12    1    6    6    0    0  0.26874759291E+02 -0.51968239165E+01  0.36010850407E+02  0.45233184863E+02  0.00000000000E+00 0.  1.
<mgrwt>
<rscale>  2 0.19622068E+03</rscale>
<asrwt>0</asrwt>
<pdfrwt beam="1">  1       21 0.58251051E-01 0.19656774E+03</pdfrwt>
<pdfrwt beam="2">  1       21 0.15589418E-01 0.19656774E+03</pdfrwt>
<totfact> 0.10078915E+05</totfact>
</mgrwt>
</event>
<event>
12    1  0.1074575E-001  0.2322368E+03  0.7546771E-02  0.1125117E+00
         21   -1    0    0  501  502  0.00000000000E+00  0.00000000000E+00  0.63586676180E+03  0.63586676180E+03  0.00000000000E+00 0.  1.
         21   -1    0    0  502  503 -0.00000000000E+00 -0.00000000000E+00 -0.87158649603E+02  0.87158649603E+02  0.00000000000E+00 0.  1.
         -6    2    1    2    0  503  0.10669600627E+03  0.10930816966E+03  0.21390363002E+03  0.31556011764E+03  0.17461704155E+03 0.  0.
        -24    2    3    3    0    0  0.47992389450E+01  0.63296281029E+00  0.95146595104E+02  0.12498578800E+03  0.80902035237E+02 0.  0.
          6    2    1    2  501    0 -0.10669600627E+03 -0.10930816966E+03  0.33480448217E+03  0.40746529376E+03  0.17493316045E+03 0.  0.
         24    2    5    5    0    0 -0.57000291065E+02 -0.52876105855E+02  0.30811305459E+03  0.32753554809E+03  0.79378618690E+02 0.  0.
          5    1    5    5  501    0 -0.49695715205E+02 -0.56432063810E+02  0.26691427584E+02  0.79929745665E+02  0.47000000000E+01 0. -1.
        -11    1    6    6    0    0 -0.74818823374E+02 -0.27631643736E+02  0.20823480301E+03  0.22298676475E+03  0.00000000000E+00 0.  1.
         12    1    6    6    0    0  0.17818532310E+02 -0.25244462119E+02  0.99878251577E+02  0.10454878335E+03  0.00000000000E+00 0. -1.
         -5    1    3    3    0  503  0.10189676732E+03  0.10867520685E+03  0.11875703492E+03  0.19057432964E+03  0.47000000000E+01 0.  1.
         11    1    4    4    0    0 -0.25908564806E+02  0.27283937565E+02  0.29690541490E+02  0.47929064599E+02  0.00000000000E+00 0. -1.
        -12    1    4    4    0    0  0.30707803751E+02 -0.26650974754E+02  0.65456053614E+02  0.77056723401E+02  0.00000000000E+00 0.  1.
<mgrwt>
<rscale>  2 0.23217726E+03</rscale>
<asrwt>0</asrwt>
<pdfrwt beam="1">  1       21 0.97825653E-01 0.23223679E+03</pdfrwt>
<pdfrwt beam="2">  1       21 0.13409023E-01 0.23223679E+03</pdfrwt>
<totfact> 0.40741083E+04</totfact>
</mgrwt>
</event>
<event>
12    1  0.1074575E-001  0.1940243E+03  0.7546771E-02  0.1156985E+00
         21   -1    0    0  503  502  0.00000000000E+00  0.00000000000E+00  0.48135113489E+03  0.48135113489E+03  0.00000000000E+00 0. -1.
         21   -1    0    0  501  503 -0.00000000000E+00 -0.00000000000E+00 -0.74511450099E+02  0.74511450099E+02  0.00000000000E+00 0.  1.
          6    2    1    2  501    0 -0.88542479375E+02 -0.32168010648E+01  0.21323939840E+03  0.28829927269E+03  0.17261318357E+03 0.  0.
         24    2    3    3    0    0 -0.52859479321E+01  0.42930652988E+02  0.64725113450E+02  0.11183448760E+03  0.80290909159E+02 0.  0.
         -6    2    1    2    0  502  0.88542479375E+02  0.32168010648E+01  0.19360028640E+03  0.26756331230E+03  0.16204609448E+03 0.  0.
        -24    2    5    5    0    0 -0.71384959274E+01 -0.18329574293E+02  0.10664587928E+03  0.13640594788E+03  0.82742417363E+02 0.  0.
          5    1    3    3  501    0 -0.83256531443E+02 -0.46147454053E+02  0.14851428495E+03  0.17646478509E+03  0.47000000000E+01 0. -1.
        -11    1    4    4    0    0 -0.13927048906E+02  0.17739104713E+01 -0.15709911235E+02  0.21069189842E+02  0.00000000000E+00 0.  1.
         12    1    4    4    0    0  0.86411009741E+01  0.41156742517E+02  0.80435024684E+02  0.90765297755E+02  0.00000000000E+00 0. -1.
         -5    1    5    5    0  502  0.95680975303E+02  0.21546375358E+02  0.86954407114E+02  0.13115736442E+03  0.47000000000E+01 0.  1.
         13    1    6    6    0    0  0.97479918752E+01 -0.33387189193E+02  0.10827328797E+03  0.11372261268E+03  0.00000000000E+00 0. -1.
        -14    1    6    6    0    0 -0.16886487803E+02  0.15057614900E+02 -0.16274086831E+01  0.22683335200E+02  0.00000000000E+00 0.  1.
<mgrwt>
<rscale>  2 0.19164646E+03</rscale>
<asrwt>0</asrwt>
<pdfrwt beam="1">  1       21 0.74054019E-01 0.19402430E+03</pdfrwt>
<pdfrwt beam="2">  1       21 0.11463300E-01 0.19402430E+03</pdfrwt>
<totfact> 0.10409965E+05</totfact>
</mgrwt>
</event>
<event>
12    1  0.1074575E-001  0.1790443E+03  0.7546771E-02  0.1170118E+00
         21   -1    0    0  501  502  0.00000000000E+00  0.00000000000E+00  0.44926421400E+02  0.44926421400E+02  0.00000000000E+00 0.  1.
         21   -1    0    0  502  503 -0.00000000000E+00 -0.00000000000E+00 -0.97132665562E+03  0.97132665562E+03  0.00000000000E+00 0.  1.
         -6    2    1    2    0  503 -0.19797509359E+02  0.31418373890E+02 -0.74118069915E+03  0.76249962401E+03  0.17515076997E+03 0.  0.
        -24    2    3    3    0    0 -0.91381812401E+01  0.46045398502E+02 -0.73772796628E+03  0.74348430152E+03  0.79515214281E+02 0.  0.
          6    2    1    2  501    0  0.19797509359E+02 -0.31418373890E+02 -0.18521953507E+03  0.25375345302E+03  0.16942692570E+03 0.  0.
         24    2    5    5    0    0  0.53899635248E+02 -0.34885058800E+02 -0.19165961119E+03  0.21856059188E+03  0.83145581682E+02 0.  0.
          5    1    5    5  501    0 -0.34102125889E+02  0.34666849097E+01  0.64400761221E+01  0.35192861135E+02  0.47000000000E+01 0. -1.
        -13    1    6    6    0    0  0.32785687141E+02 -0.46670069483E+01 -0.12102420888E+02  0.35258344069E+02  0.00000000000E+00 0.  1.
         14    1    6    6    0    0  0.21113948106E+02 -0.30218051851E+02 -0.17955719031E+03  0.18330224781E+03  0.00000000000E+00 0. -1.
         -5    1    3    3    0  503 -0.10659328119E+02 -0.14627024612E+02 -0.34527328762E+01  0.19015322487E+02  0.47000000000E+01 0.  1.
         13    1    4    4    0    0 -0.22267785837E+02  0.59910636361E+02 -0.38746758500E+03  0.39270379176E+03  0.00000000000E+00 0. -1.
        -14    1    4    4    0    0  0.13129604597E+02 -0.13865237859E+02 -0.35026038128E+03  0.35078050976E+03  0.00000000000E+00 0.  1.
<mgrwt>
<rscale>  2 0.17762874E+03</rscale>
<asrwt>0</asrwt>
<pdfrwt beam="1">  1       21 0.69117577E-02 0.17904426E+03</pdfrwt>
<pdfrwt beam="2">  1       21 0.14943486E+00 0.17904426E+03</pdfrwt>
<totfact> 0.47039528E+04</totfact>
</mgrwt>
</event>
<event>
12    1  0.1074575E-001  0.2358828E+03  0.7546771E-02  0.1123141E+00
         21   -1    0    0  503  502  0.00000000000E+00  0.00000000000E+00  0.90613794927E+02  0.90613794927E+02  0.00000000000E+00 0. -1.
         21   -1    0    0  501  503 -0.00000000000E+00 -0.00000000000E+00 -0.61242417286E+03  0.61242417286E+03  0.00000000000E+00 0.  1.
          6    2    1    2  501    0  0.14508972034E+03  0.56787046704E+02 -0.22131960474E+03  0.32102301576E+03  0.17261985281E+03 0.  0.
         24    2    3    3    0    0  0.13657278376E+03  0.22675878335E+02 -0.23392144801E+03  0.28337986937E+03  0.80116077051E+02 0.  0.
         -6    2    1    2    0  502 -0.14508972034E+03 -0.56787046704E+02 -0.30049077319E+03  0.38201495203E+03  0.17710144883E+03 0.  0.
        -24    2    5    5    0    0  0.28665888915E+01 -0.28701441766E+02 -0.12628895209E+03  0.15169292720E+03  0.78929428299E+02 0.  0.
          5    1    3    3  501    0  0.85169365728E+01  0.34111168369E+02  0.12601843271E+02  0.37643146387E+02  0.47000000000E+01 0. -1.
        -11    1    4    4    0    0  0.95714561821E+02  0.52649583925E+02 -0.15683539801E+03  0.19112979386E+03  0.00000000000E+00 0.  1.
         12    1    4    4    0    0  0.40858221943E+02 -0.29973705589E+02 -0.77086049996E+02  0.92250075507E+02  0.00000000000E+00 0. -1.
         -5    1    5    5    0  502 -0.14795630923E+03 -0.28085604939E+02 -0.17420182111E+03  0.23032202483E+03  0.47000000000E+01 0.  1.
         11    1    6    6    0    0  0.26323050439E+02  0.78238309899E+01 -0.13020736081E+02  0.30391691033E+02  0.00000000000E+00 0. -1.
        -12    1    6    6    0    0 -0.23456461547E+02 -0.36525272755E+02 -0.11326821601E+03  0.12130123617E+03  0.00000000000E+00 0.  1.
<mgrwt>
<rscale>  2 0.23504188E+03</rscale>
<asrwt>0</asrwt>
<pdfrwt beam="1">  1       21 0.13940584E-01 0.23588285E+03</pdfrwt>
<pdfrwt beam="2">  1       21 0.94219104E-01 0.23588285E+03</pdfrwt>
<totfact> 0.41414240E+04</totfact>
</mgrwt>
</event>
<event>
12    1  0.1074575E-001  0.1995032E+03  0.7546771E-02  0.1150761E+00
         21   -1    0    0  503  502  0.00000000000E+00  0.00000000000E+00  0.21003892261E+03  0.21003892261E+03  0.00000000000E+00 0.  1.
         21   -1    0    0  501  503 -0.00000000000E+00 -0.00000000000E+00 -0.20008458617E+03  0.20008458617E+03  0.00000000000E+00 0.  1.
          6    2    1    2  501    0  0.91257068580E+02  0.12467054566E+02  0.57733887670E+02  0.20497867822E+03  0.17378082957E+03 0.  0.
         24    2    3    3    0    0  0.11358468502E+03  0.46007824968E+02  0.70159605084E+02  0.16255233984E+03  0.80515168600E+02 0.  0.
         -6    2    1    2    0  502 -0.91257068580E+02 -0.12467054566E+02 -0.47779551231E+02  0.20514483056E+03  0.17696959053E+03 0.  0.
        -24    2    5    5    0    0  0.15028691000E+02  0.10819448285E+02 -0.48524157044E+02  0.96234003079E+02  0.81015230157E+02 0.  0.
          5    1    3    3  501    0 -0.22327616437E+02 -0.33540770402E+02 -0.12425717414E+02  0.42426338378E+02  0.47000000000E+01 0. -1.
        -13    1    4    4    0    0  0.64020637355E+01 -0.18789793248E+02  0.18281372615E+02  0.26986132273E+02  0.00000000000E+00 0.  1.
         14    1    4    4    0    0  0.10718262128E+03  0.64797618216E+02  0.51878232468E+02  0.13556620757E+03  0.00000000000E+00 0. -1.
         -5    1    5    5    0  502 -0.10628575958E+03 -0.23286502851E+02  0.74460581299E+00  0.10891082748E+03  0.47000000000E+01 0.  1.
         13    1    6    6    0    0  0.16884145858E+02 -0.19031643254E+02 -0.59233195023E+02  0.64465876392E+02  0.00000000000E+00 0. -1.
        -14    1    6    6    0    0 -0.18554548582E+01  0.29851091539E+02  0.10709037979E+02  0.31768126688E+02  0.00000000000E+00 0.  1.
<mgrwt>
<rscale>  2 0.19879363E+03</rscale>
<asrwt>0</asrwt>
<pdfrwt beam="1">  1       21 0.32313680E-01 0.19950317E+03</pdfrwt>
<pdfrwt beam="2">  1       21 0.30782244E-01 0.19950317E+03</pdfrwt>
<totfact> 0.93112692E+04</totfact>
</mgrwt>
</event>
<event>
12    1  0.1074575E-001  0.2342548E+03  0.7546771E-02  0.1123830E+00
         21   -1    0    0  503  502  0.00000000000E+00  0.00000000000E+00  0.10331881017E+03  0.10331881017E+03  0.00000000000E+00 0. -1.
         21   -1    0    0  501  503 -0.00000000000E+00 -0.00000000000E+00 -0.65204563815E+03  0.65204563815E+03  0.00000000000E+00 0. -1.
          6    2    1    2  501    0  0.10299875343E+03  0.11844480754E+03 -0.43873499732E+03  0.49735671726E+03  0.17388901832E+03 0.  0.
         24    2    3    3    0    0  0.19262150403E+02  0.95468435915E+02 -0.35240109319E+03  0.37481951744E+03  0.82570500024E+02 0.  0.
         -6    2    1    2    0  502 -0.10299875343E+03 -0.11844480754E+03 -0.10999183067E+03  0.25800773106E+03  0.17271905173E+03 0.  0.
        -24    2    5    5    0    0 -0.97160470817E+01 -0.73004460457E+02 -0.11040513398E+03  0.15413882683E+03  0.78392802677E+02 0.  0.
          5    1    3    3  501    0  0.83736603024E+02  0.22976371628E+02 -0.86333904125E+02  0.12253719982E+03  0.47000000000E+01 0. -1.
        -13    1    4    4    0    0  0.31314797994E+02  0.49875119790E+01 -0.14154981461E+03  0.14505806377E+03  0.00000000000E+00 0.  1.
         14    1    4    4    0    0 -0.12052647591E+02  0.90480923936E+02 -0.21085127858E+03  0.22976145366E+03  0.00000000000E+00 0. -1.
         -5    1    5    5    0  502 -0.93282706345E+02 -0.45440347087E+02  0.41330330389E+00  0.10386890423E+03  0.47000000000E+01 0.  1.
         11    1    6    6    0    0 -0.32276323689E+02 -0.52520410788E+02 -0.30822199282E+02  0.68921423294E+02  0.00000000000E+00 0. -1.
        -12    1    6    6    0    0  0.22560276607E+02 -0.20484049669E+02 -0.79582934694E+02  0.85217403539E+02  0.00000000000E+00 0.  1.
<mgrwt>
<rscale>  2 0.23403770E+03</rscale>
<asrwt>0</asrwt>
<pdfrwt beam="1">  1       21 0.15895201E-01 0.23425479E+03</pdfrwt>
<pdfrwt beam="2">  1       21 0.10031471E+00 0.23425479E+03</pdfrwt>
<totfact> 0.28108921E+04</totfact>
</mgrwt>
</event>
<event>
12    1  0.1074575E-001  0.2030674E+03  0.7546771E-02  0.1150713E+00
         21   -1    0    0  503  502  0.00000000000E+00  0.00000000000E+00  0.15061716026E+03  0.15061716026E+03  0.00000000000E+00 0. -1.
         21   -1    0    0  501  503 -0.00000000000E+00 -0.00000000000E+00 -0.45908238487E+03  0.45908238487E+03  0.00000000000E+00 0. -1.
          6    2    1    2  501    0  0.19527668801E+02 -0.71301967748E+02 -0.35523399988E+03  0.40131600574E+03  0.17145857032E+03 0.  0.
         24    2    3    3    0    0 -0.31110715738E+02 -0.94160141133E+02 -0.20331335572E+03  0.23948673087E+03  0.78635646116E+02 0.  0.
         -6    2    1    2    0  502 -0.19527668801E+02  0.71301967748E+02  0.46768775274E+02  0.20838353940E+03  0.18913244221E+03 0.  0.
        -24    2    5    5    0    0 -0.47896419054E+02 -0.75761603755E+01  0.67668090631E+02  0.12186523804E+03  0.88998317900E+02 0.  0.
          5    1    3    3  501    0  0.50638384539E+02  0.22858173385E+02 -0.15192064416E+03  0.16182927486E+03  0.47000000000E+01 0. -1.
        -11    1    4    4    0    0 -0.24161856890E+02 -0.96748281072E+01 -0.90878178183E+01  0.27567844674E+02  0.00000000000E+00 0.  1.
         12    1    4    4    0    0 -0.69488588481E+01 -0.84485313026E+02 -0.19422553790E+03  0.21191888620E+03  0.00000000000E+00 0. -1.
         -5    1    5    5    0  502  0.28368750253E+02  0.78878128124E+02 -0.20899315357E+02  0.86518301356E+02  0.47000000000E+01 0.  1.
         13    1    6    6    0    0 -0.21789313140E+02  0.25952757850E+02  0.71575129465E+02  0.79191659693E+02  0.00000000000E+00 0. -1.
        -14    1    6    6    0    0 -0.26107105914E+02 -0.33528918225E+02 -0.39070388336E+01  0.42673578348E+02  0.00000000000E+00 0.  1.
<mgrwt>
<rscale>  2 0.19885034E+03</rscale>
<asrwt>0</asrwt>
<pdfrwt beam="1">  1       21 0.23171871E-01 0.20306743E+03</pdfrwt>
<pdfrwt beam="2">  1       21 0.70628060E-01 0.20306743E+03</pdfrwt>
<totfact> 0.31611356E+04</totfact>
</mgrwt>
</event>
<event>
12    1  0.1074575E-001  0.4386068E+03  0.7546771E-02  0.1031233E+00
         21   -1    0    0  503  502  0.00000000000E+00  0.00000000000E+00  0.24525807180E+03  0.24525807180E+03  0.00000000000E+00 0.  1.
         21   -1    0    0  501  503 -0.00000000000E+00 -0.00000000000E+00 -0.99088910244E+03  0.99088910244E+03  0.00000000000E+00 0.  1.
          6    2    1    2  501    0 -0.27354859956E+03  0.29540507485E+03 -0.65563889537E+03  0.78840337444E+03  0.17211776532E+03 0.  0.
         24    2    3    3    0    0 -0.15958318079E+03  0.88420309225E+02 -0.34067383088E+03  0.39463200458E+03  0.79942587613E+02 0.  0.
         -6    2    1    2    0  502  0.27354859956E+03 -0.29540507485E+03 -0.89992135268E+02  0.44774379981E+03  0.17401991637E+03 0.  0.
        -24    2    5    5    0    0  0.14890856945E+03 -0.87236698898E+02 -0.37375255159E+01  0.19019544017E+03  0.79851942200E+02 0.  0.
          5    1    3    3  501    0 -0.11396541877E+03  0.20698476562E+03 -0.31496506449E+03  0.39377136986E+03  0.47000000000E+01 0. -1.
        -11    1    4    4    0    0 -0.91477598334E+02  0.88791113158E+02 -0.25583201158E+03  0.28583567118E+03  0.00000000000E+00 0.  1.
         12    1    4    4    0    0 -0.68105582454E+02 -0.37080393279E+00 -0.84841819304E+02  0.10879633339E+03  0.00000000000E+00 0. -1.
         -5    1    5    5    0  502  0.12464003011E+03 -0.20816837595E+03 -0.86254609752E+02  0.25754835964E+03  0.47000000000E+01 0.  1.
         13    1    6    6    0    0  0.57796537130E+02 -0.51075748757E+02 -0.38477956410E+02  0.86195852248E+02  0.00000000000E+00 0. -1.
        -14    1    6    6    0    0  0.91112032322E+02 -0.36160950141E+02  0.34740430894E+02  0.10399958792E+03  0.00000000000E+00 0.  1.
<mgrwt>
<rscale>  2 0.43841888E+03</rscale>
<asrwt>0</asrwt>
<pdfrwt beam="1">  1       21 0.37732011E-01 0.43860680E+03</pdfrwt>
<pdfrwt beam="2">  1       21 0.15244448E+00 0.43860680E+03</pdfrwt>
<totfact> 0.16620259E+03</totfact>
</mgrwt>
</event>
<event>
12    1  0.1074575E-001  0.2419350E+03  0.7546771E-02  0.1118657E+00
         21   -1    0    0  501  502  0.00000000000E+00  0.00000000000E+00  0.14679624235E+03  0.14679624235E+03  0.00000000000E+00 0. -1.
         21   -1    0    0  502  503 -0.00000000000E+00 -0.00000000000E+00 -0.57480714998E+03  0.57480714998E+03  0.00000000000E+00 0.  1.
         -6    2    1    2    0  503 -0.77526367381E+02 -0.14863348550E+03 -0.41479555276E+03  0.48019566738E+03  0.17444276347E+03 0.  0.
        -24    2    3    3    0    0 -0.49600303025E+02 -0.30446510461E+01 -0.13323356907E+03  0.16195799762E+03  0.77522571603E+02 0.  0.
          6    2    1    2  501    0  0.77526367381E+02  0.14863348550E+03 -0.13215354861E+02  0.24140772495E+03  0.17320737112E+03 0.  0.
         24    2    5    5    0    0  0.11668228781E+03  0.10742929008E+03  0.10398538639E+02  0.17967703736E+03  0.83784840476E+02 0.  0.
          5    1    5    5  501    0 -0.39155920425E+02  0.41204195419E+02 -0.23613893501E+02  0.61730687593E+02  0.47000000000E+01 0. -1.
        -13    1    6    6    0    0  0.79307854107E+02  0.36377086402E+02  0.37463229603E+02  0.94955366938E+02  0.00000000000E+00 0.  1.
         14    1    6    6    0    0  0.37374433699E+02  0.71052203680E+02 -0.27064690964E+02  0.84721670422E+02  0.00000000000E+00 0. -1.
         -5    1    3    3    0  503 -0.27926064356E+02 -0.14558883446E+03 -0.28156198370E+03  0.31823766976E+03  0.47000000000E+01 0.  1.
         11    1    4    4    0    0  0.63200101011E+01 -0.13095028000E+02  0.25540668421E+01  0.14762978813E+02  0.00000000000E+00 0. -1.
        -12    1    4    4    0    0 -0.55920313126E+02  0.10050376954E+02 -0.13578763591E+03  0.14719501881E+03  0.00000000000E+00 0.  1.
<mgrwt>
<rscale>  2 0.24171235E+03</rscale>
<asrwt>0</asrwt>
<pdfrwt beam="1">  1       21 0.22584038E-01 0.24193497E+03</pdfrwt>
<pdfrwt beam="2">  1       21 0.88431868E-01 0.24193497E+03</pdfrwt>
<totfact> 0.19544843E+04</totfact>
</mgrwt>
</event>
<event>
12    1  0.1074575E-001  0.1794499E+03  0.7546771E-02  0.1168942E+00
         21   -1    0    0  503  502  0.00000000000E+00  0.00000000000E+00  0.46882460373E+03  0.46882460373E+03  0.00000000000E+00 0. -1.
         21   -1    0    0  501  503 -0.00000000000E+00 -0.00000000000E+00 -0.77715584953E+02  0.77715584953E+02  0.00000000000E+00 0. -1.
          6    2    1    2  501    0  0.20548671419E+02  0.12734679362E+02  0.96483461452E+02  0.20156700120E+03  0.17531622197E+03 0.  0.
         24    2    3    3    0    0  0.35819280147E+02  0.37418497443E+02 -0.14022543295E+01  0.99360417658E+02  0.84778307950E+02 0.  0.
         -6    2    1    2    0  502 -0.20548671419E+02 -0.12734679362E+02  0.29462555732E+03  0.34497318748E+03  0.17781411950E+03 0.  0.
        -24    2    5    5    0    0  0.27754827865E+02  0.36080914735E+01  0.27832084761E+03  0.29123076698E+03  0.81052554748E+02 0.  0.
          5    1    3    3  501    0 -0.15270608728E+02 -0.24683818082E+02  0.97885715782E+02  0.10220658355E+03  0.47000000000E+01 0. -1.
        -11    1    4    4    0    0 -0.47120527320E+01 -0.24659267183E+02  0.16504731794E+01  0.25159629581E+02  0.00000000000E+00 0.  1.
         12    1    4    4    0    0  0.40531332879E+02  0.62077764626E+02 -0.30527275089E+01  0.74200788077E+02  0.00000000000E+00 0. -1.
         -5    1    5    5    0  502 -0.48303499284E+02 -0.16342770835E+02  0.16304709716E+02  0.53742420494E+02  0.47000000000E+01 0.  1.
         11    1    6    6    0    0 -0.23507293931E+02 -0.11214654079E+02  0.15019993341E+03  0.15244140294E+03  0.00000000000E+00 0. -1.
        -12    1    6    6    0    0  0.51262121796E+02  0.14822745553E+02  0.12812091420E+03  0.13878936404E+03  0.00000000000E+00 0.  1.
<mgrwt>
<rscale>  2 0.17882801E+03</rscale>
<asrwt>0</asrwt>
<pdfrwt beam="1">  1       21 0.72126860E-01 0.17944994E+03</pdfrwt>
<pdfrwt beam="2">  1       21 0.11956244E-01 0.17944994E+03</pdfrwt>
<totfact> 0.10296061E+05</totfact>
</mgrwt>
</event>
<event>
12    1  0.1074575E-001  0.3616216E+03  0.7546771E-02  0.1057997E+00
         21   -1    0    0  501  502  0.00000000000E+00  0.00000000000E+00  0.20417577377E+03  0.20417577377E+03  0.00000000000E+00 0. -1.
         21   -1    0    0  502  503 -0.00000000000E+00 -0.00000000000E+00 -0.64939084932E+03  0.64939084932E+03  0.00000000000E+00 0. -1.
         -6    2    1    2    0  503  0.22044546044E+02 -0.31649148747E+03 -0.17015856147E+03  0.39965504334E+03  0.17354363708E+03 0.  0.
        -24    2    3    3    0    0  0.54748846067E+02 -0.14345504770E+03 -0.34194334172E+02  0.17712517605E+03  0.81408160809E+02 0.  0.
          6    2    1    2  501    0 -0.22044546044E+02  0.31649148747E+03 -0.27505651409E+03  0.45391157975E+03  0.17241465319E+03 0.  0.
         24    2    5    5    0    0 -0.41162523900E+01  0.24777958929E+03 -0.27858668665E+03  0.38265639900E+03  0.86044809922E+02 0.  0.
          5    1    5    5  501    0 -0.17928293654E+02  0.68711898182E+02  0.35301725630E+01  0.71255180748E+02  0.47000000000E+01 0. -1.
        -13    1    6    6    0    0 -0.13385674463E+02  0.11107318658E+02 -0.52163700600E+02  0.54987275518E+02  0.00000000000E+00 0.  1.
         14    1    6    6    0    0  0.92694220725E+01  0.23667227063E+03 -0.22642298605E+03  0.32766912348E+03  0.00000000000E+00 0. -1.
         -5    1    3    3    0  503 -0.32704300023E+02 -0.17303643978E+03 -0.13596422729E+03  0.22252986729E+03  0.47000000000E+01 0.  1.
         13    1    4    4    0    0  0.44846601230E+02 -0.22650851764E+02 -0.23435791888E+02  0.55439291743E+02  0.00000000000E+00 0. -1.
        -14    1    4    4    0    0  0.99022448372E+01 -0.12080419593E+03 -0.10758542284E+02  0.12168588431E+03  0.00000000000E+00 0.  1.
<mgrwt>
<rscale>  2 0.36148646E+03</rscale>
<asrwt>0</asrwt>
<pdfrwt beam="1">  1       21 0.31411657E-01 0.36162165E+03</pdfrwt>
<pdfrwt beam="2">  1       21 0.99906285E-01 0.36162165E+03</pdfrwt>
<totfact> 0.73111965E+03</totfact>
</mgrwt>
</event>
<event>
12    1  0.1074575E-001  0.2652519E+03  0.7546771E-02  0.1105402E+00
         21   -1    0    0  501  502  0.00000000000E+00  0.00000000000E+00  0.21818853843E+03  0.21818853843E+03  0.00000000000E+00 0. -1.
         21   -1    0    0  502  503 -0.00000000000E+00 -0.00000000000E+00 -0.34069558957E+03  0.34069558957E+03  0.00000000000E+00 0. -1.
         -6    2    1    2    0  503  0.17625472794E+03 -0.67376767632E+02 -0.14422154502E+03  0.30192454774E+03  0.18642215679E+03 0.  0.
        -24    2    3    3    0    0  0.80958515913E+02 -0.87184767768E+02 -0.20972937991E+02  0.14480664923E+03  0.79835058118E+02 0.  0.
          6    2    1    2  501    0 -0.17625472794E+03  0.67376767632E+02  0.21714493882E+02  0.25695958026E+03  0.17306457959E+03 0.  0.
         24    2    5    5    0    0 -0.12331949825E+03 -0.23519819782E+02  0.29208846236E+02  0.15140114402E+03  0.79424612940E+02 0.  0.
          5    1    5    5  501    0 -0.52935229691E+02  0.90896587414E+02 -0.74943523543E+01  0.10555843625E+03  0.47000000000E+01 0. -1.
        -11    1    6    6    0    0 -0.56803806495E+01  0.14417702050E+02 -0.13574609432E+02  0.20601137783E+02  0.00000000000E+00 0.  1.
         12    1    6    6    0    0 -0.11763911760E+03 -0.37937521831E+02  0.42783455668E+02  0.13080000623E+03  0.00000000000E+00 0. -1.
         -5    1    3    3    0  503  0.95296212025E+02  0.19808000136E+02 -0.12324860703E+03  0.15711789851E+03  0.47000000000E+01 0.  1.
         11    1    4    4    0    0  0.43079288110E+02 -0.19216731231E+02 -0.43115722970E+02  0.63906755437E+02  0.00000000000E+00 0. -1.
        -12    1    4    4    0    0  0.37879227803E+02 -0.67968036538E+02  0.22142784979E+02  0.80899893797E+02  0.00000000000E+00 0.  1.
<mgrwt>
<rscale>  2 0.26291843E+03</rscale>
<asrwt>0</asrwt>
<pdfrwt beam="1">  1       21 0.33567467E-01 0.26525192E+03</pdfrwt>
<pdfrwt beam="2">  1       21 0.52414706E-01 0.26525192E+03</pdfrwt>
<totfact> 0.28478668E+04</totfact>
</mgrwt>
</event>
<event>
12    1  0.1074575E-001  0.1814515E+03  0.7546771E-02  0.1166447E+00
         21   -1    0    0  501  502  0.00000000000E+00  0.00000000000E+00  0.10409884100E+03  0.10409884100E+03  0.00000000000E+00 0. -1.
         21   -1    0    0  502  503 -0.00000000000E+00 -0.00000000000E+00 -0.43600876631E+03  0.43600876631E+03  0.00000000000E+00 0.  1.
         -6    2    1    2    0  503  0.49999722627E+02  0.22607407778E+02 -0.24320391264E+02  0.18307411504E+03  0.17295543651E+03 0.  0.
        -24    2    3    3    0    0 -0.12704791472E+02  0.55967750585E+02  0.19092550804E+02  0.99698206655E+02  0.79255322107E+02 0.  0.
          6    2    1    2  501    0 -0.49999722627E+02 -0.22607407778E+02 -0.30758953405E+03  0.35703349227E+03  0.17277304765E+03 0.  0.
         24    2    5    5    0    0 -0.74204254555E+02 -0.29318559034E+02 -0.10977178033E+03  0.15757208596E+03  0.80082889687E+02 0.  0.
          5    1    5    5  501    0  0.24204531928E+02  0.67111512561E+01 -0.19781775372E+03  0.19946140630E+03  0.47000000000E+01 0. -1.
        -11    1    6    6    0    0 -0.53852993026E+02 -0.32653482296E+02 -0.11926269826E+03  0.13487025603E+03  0.00000000000E+00 0.  1.
         12    1    6    6    0    0 -0.20351261529E+02  0.33349232616E+01  0.94909179391E+01  0.22701829933E+02  0.00000000000E+00 0. -1.
         -5    1    3    3    0  503  0.62704514099E+02 -0.33360342806E+02 -0.43412942068E+02  0.83375908388E+02  0.47000000000E+01 0.  1.
         13    1    4    4    0    0 -0.53065450404E+01  0.16796162497E+02  0.47557351549E+02  0.50714615065E+02  0.00000000000E+00 0. -1.
        -14    1    4    4    0    0 -0.73982464314E+01  0.39171588088E+02 -0.28464800745E+02  0.48983591590E+02  0.00000000000E+00 0.  1.
<mgrwt>
<rscale>  2 0.18140803E+03</rscale>
<asrwt>0</asrwt>
<pdfrwt beam="1">  1       21 0.16015207E-01 0.18145151E+03</pdfrwt>
<pdfrwt beam="2">  1       21 0.67078271E-01 0.18145151E+03</pdfrwt>
<totfact> 0.71168885E+04</totfact>
</mgrwt>
</event>
<event>
12    1  0.1074575E-001  0.1747032E+03  0.7546771E-02  0.1173231E+00
         21   -1    0    0  503  502  0.00000000000E+00  0.00000000000E+00  0.29537992060E+02  0.29537992060E+02  0.00000000000E+00 0. -1.
         21   -1    0    0  501  503 -0.00000000000E+00 -0.00000000000E+00 -0.10553615013E+04  0.10553615013E+04  0.00000000000E+00 0. -1.
          6    2    1    2  501    0  0.14447954254E+02 -0.15693269591E+02 -0.59817401241E+03  0.62294137921E+03  0.17259429515E+03 0.  0.
         24    2    3    3    0    0  0.82894524963E+01 -0.37100864722E+02 -0.59324509447E+03  0.59964767823E+03  0.78691846515E+02 0.  0.
         -6    2    1    2    0  502 -0.14447954254E+02  0.15693269591E+02 -0.42764949679E+03  0.46195811411E+03  0.17339603511E+03 0.  0.
        -24    2    5    5    0    0 -0.34597437681E+02  0.36548607612E+02 -0.42206855096E+03  0.43205520852E+03  0.77440674647E+02 0.  0.
          5    1    3    3  501    0  0.61585017580E+01  0.21407595132E+02 -0.49289179355E+01  0.23293700978E+02  0.47000000000E+01 0. -1.
        -13    1    4    4    0    0  0.27964837697E+01  0.23636059940E+02 -0.23996806789E+03  0.24114551055E+03  0.00000000000E+00 0.  1.
         14    1    4    4    0    0  0.54929687267E+01 -0.60736924663E+02 -0.35327702658E+03  0.35850216768E+03  0.00000000000E+00 0. -1.
         -5    1    5    5    0  502  0.20149483427E+02 -0.20855338022E+02 -0.55809458366E+01  0.29902905591E+02  0.47000000000E+01 0.  1.
         13    1    6    6    0    0  0.12930447880E+02  0.25714150399E+02 -0.28735993099E+03  0.28879775614E+03  0.00000000000E+00 0. -1.
        -14    1    6    6    0    0 -0.47527885561E+02  0.10834457214E+02 -0.13470861997E+03  0.14325745238E+03  0.00000000000E+00 0.  1.
<mgrwt>
<rscale>  2 0.17450393E+03</rscale>
<asrwt>0</asrwt>
<pdfrwt beam="1">  1       21 0.45443054E-02 0.17470320E+03</pdfrwt>
<pdfrwt beam="2">  1       21 0.16236335E+00 0.17470320E+03</pdfrwt>
<totfact> 0.77226293E+04</totfact>
</mgrwt>
</event>
<event>
12    1  0.1074575E-001  0.3910920E+03  0.7546771E-02  0.1047139E+00
         21   -1    0    0  503  502  0.00000000000E+00  0.00000000000E+00  0.25486438221E+03  0.25486438221E+03  0.00000000000E+00 0. -1.
         21   -1    0    0  501  503 -0.00000000000E+00 -0.00000000000E+00 -0.74791307690E+03  0.74791307690E+03  0.00000000000E+00 0.  1.
          6    2    1    2  501    0 -0.30277891951E+03 -0.17184740333E+03 -0.47170561628E+03  0.61110351183E+03  0.17243755277E+03 0.  0.
         24    2    3    3    0    0 -0.30367203332E+03 -0.12160148663E+03 -0.42476475368E+03  0.54217612701E+03  0.80785093608E+02 0.  0.
         -6    2    1    2    0  502  0.30277891951E+03  0.17184740333E+03 -0.21343078409E+02  0.39167394727E+03  0.17817505392E+03 0.  0.
        -24    2    5    5    0    0  0.28945581620E+03  0.15938111396E+03  0.25085525706E+02  0.34156787246E+03  0.82778734468E+02 0.  0.
          5    1    3    3  501    0  0.89311380663E+00 -0.50245916701E+02 -0.46940862598E+02  0.68927384825E+02  0.47000000000E+01 0. -1.
        -11    1    4    4    0    0 -0.24089919463E+03 -0.11338029220E+03 -0.38255694725E+03  0.46608725634E+03  0.00000000000E+00 0.  1.
         12    1    4    4    0    0 -0.62772838689E+02 -0.82211944352E+01 -0.42207806431E+02  0.76088870663E+02  0.00000000000E+00 0. -1.
         -5    1    5    5    0  502  0.13323103317E+02  0.12466289369E+02 -0.46428604115E+02  0.50106074808E+02  0.47000000000E+01 0.  1.
         11    1    6    6    0    0  0.33213915386E+02  0.36744959288E+02  0.29130318345E+02  0.57462436906E+02  0.00000000000E+00 0. -1.
        -12    1    6    6    0    0  0.25624190081E+03  0.12263615468E+03 -0.40447926395E+01  0.28410543556E+03  0.00000000000E+00 0.  1.
<mgrwt>
<rscale>  2 0.39044532E+03</rscale>
<asrwt>0</asrwt>
<pdfrwt beam="1">  1       21 0.39209905E-01 0.39109200E+03</pdfrwt>
<pdfrwt beam="2">  1       21 0.11506355E+00 0.39109200E+03</pdfrwt>
<totfact> 0.32640602E+03</totfact>
</mgrwt>
</event>
<event>
12    1  0.1074575E-001  0.2032057E+03  0.7546771E-02  0.1147708E+00
         21   -1    0    0  503  502  0.00000000000E+00  0.00000000000E+00  0.93441470302E+02  0.93441470302E+02  0.00000000000E+00 0. -1.
         21   -1    0    0  501  503 -0.00000000000E+00 -0.00000000000E+00 -0.60364388364E+03  0.60364388364E+03  0.00000000000E+00 0. -1.
          6    2    1    2  501    0 -0.67164611633E+02  0.71005086546E+02 -0.44063356567E+03  0.48523241116E+03  0.17815652183E+03 0.  0.
         24    2    3    3    0    0 -0.11391896744E+03  0.47721083549E+02 -0.27990709896E+03  0.31616673846E+03  0.79740764388E+02 0.  0.
         -6    2    1    2    0  502  0.67164611633E+02 -0.71005086546E+02 -0.69568847669E+02  0.21185294279E+03  0.17461110340E+03 0.  0.
        -24    2    5    5    0    0  0.20907157865E+02 -0.24785166090E+02  0.17908180895E+02  0.10253526991E+03  0.95610485434E+02 0.  0.
          5    1    3    3  501    0  0.46754355805E+02  0.23284002997E+02 -0.16072646671E+03  0.16906567270E+03  0.47000000000E+01 0. -1.
        -13    1    4    4    0    0 -0.81151536505E+02  0.14894864294E+02 -0.96392667625E+02  0.12688173719E+03  0.00000000000E+00 0.  1.
         14    1    4    4    0    0 -0.32767430934E+02  0.32826219254E+02 -0.18351443133E+03  0.18928500128E+03  0.00000000000E+00 0. -1.
         -5    1    5    5    0  502  0.46257453768E+02 -0.46219920456E+02 -0.87477028564E+02  0.10931767287E+03  0.47000000000E+01 0.  1.
         13    1    6    6    0    0  0.42236356665E+02 -0.28403991473E+02  0.44949088172E+02  0.67905206600E+02  0.00000000000E+00 0. -1.
        -14    1    6    6    0    0 -0.21329198800E+02  0.36188253822E+01 -0.27040907277E+02  0.34630063312E+02  0.00000000000E+00 0.  1.
<mgrwt>
<rscale>  2 0.20242594E+03</rscale>
<asrwt>0</asrwt>
<pdfrwt beam="1">  1       21 0.14375611E-01 0.20320569E+03</pdfrwt>
<pdfrwt beam="2">  1       21 0.92868287E-01 0.20320569E+03</pdfrwt>
<totfact> 0.41164687E+04</totfact>
</mgrwt>
</event>
<event>
12    1  0.1074575E-001  0.1984271E+03  0.7546771E-02  0.1151456E+00
         21   -1    0    0  503  502  0.00000000000E+00  0.00000000000E+00  0.10555127614E+03  0.10555127614E+03  0.00000000000E+00 0. -1.
         21   -1    0    0  501  503 -0.00000000000E+00 -0.00000000000E+00 -0.37599500314E+03  0.37599500314E+03  0.00000000000E+00 0. -1.
          6    2    1    2  501    0  0.37527370460E+02 -0.85197244648E+02 -0.10459848876E+03  0.22430818102E+03  0.17523253748E+03 0.  0.
         24    2    3    3    0    0  0.18370881093E+02 -0.43880327392E+02 -0.13878740539E+03  0.16716773338E+03  0.80125743585E+02 0.  0.
         -6    2    1    2    0  502 -0.37527370460E+02  0.85197244648E+02 -0.16584523824E+03  0.25723809826E+03  0.17320485594E+03 0.  0.
        -24    2    5    5    0    0  0.76094210205E+01  0.12913428675E+02 -0.13050077961E+02  0.82221724741E+02  0.79783754964E+02 0.  0.
          5    1    3    3  501    0  0.19156489367E+02 -0.41316917256E+02  0.34188916627E+02  0.57140447640E+02  0.47000000000E+01 0. -1.
        -11    1    4    4    0    0 -0.14886114417E+02  0.70108206961E+01 -0.83133640672E+02  0.84746387655E+02  0.00000000000E+00 0.  1.
         12    1    4    4    0    0  0.33256995509E+02 -0.50891148088E+02 -0.55653764714E+02  0.82421345724E+02  0.00000000000E+00 0. -1.
         -5    1    5    5    0  502 -0.45136791480E+02  0.72283815973E+02 -0.15279516028E+03  0.17501637352E+03  0.47000000000E+01 0.  1.
         13    1    6    6    0    0 -0.24826298301E+01  0.20194077284E+02 -0.44210921481E+02  0.48667954410E+02  0.00000000000E+00 0. -1.
        -14    1    6    6    0    0  0.10092050851E+02 -0.72806486088E+01  0.31160843520E+02  0.33553770331E+02  0.00000000000E+00 0.  1.
<mgrwt>
<rscale>  2 0.19797850E+03</rscale>
<asrwt>0</asrwt>
<pdfrwt beam="1">  1       21 0.16238658E-01 0.19842711E+03</pdfrwt>
<pdfrwt beam="2">  1       21 0.57845385E-01 0.19842711E+03</pdfrwt>
<totfact> 0.94868071E+04</totfact>
</mgrwt>
</event>
<event>
12    1  0.1074575E-001  0.1812079E+03  0.7546771E-02  0.1170811E+00
         21   -1    0    0  503  502  0.00000000000E+00  0.00000000000E+00  0.77119940673E+02  0.77119940673E+02  0.00000000000E+00 0. -1.
         21   -1    0    0  501  503 -0.00000000000E+00 -0.00000000000E+00 -0.10931618463E+04  0.10931618463E+04  0.00000000000E+00 0. -1.
          6    2    1    2  501    0  0.16779001949E+02  0.52617645420E+02 -0.98646114936E+03  0.10029665460E+04  0.17258662069E+03 0.  0.
         24    2    3    3    0    0 -0.37166344027E+02  0.76417401882E+02 -0.54768720869E+03  0.56022374280E+03  0.81660314656E+02 0.  0.
         -6    2    1    2    0  502 -0.16779001949E+02 -0.52617645420E+02 -0.29580756237E+02  0.16731524096E+03  0.15514257057E+03 0.  0.
        -24    2    5    5    0    0 -0.52576845478E+02 -0.17057902137E+02  0.11744853267E+02  0.10192505099E+03  0.84826161860E+02 0.  0.
          5    1    3    3  501    0  0.53945345976E+02 -0.23799756461E+02 -0.43877394067E+03  0.44274280319E+03  0.47000000000E+01 0. -1.
        -13    1    4    4    0    0  0.97429342648E+01  0.17275676114E+01 -0.63693575703E+01  0.11767666455E+02  0.00000000000E+00 0.  1.
         14    1    4    4    0    0 -0.46909278291E+02  0.74689834270E+02 -0.54131785112E+03  0.54845607634E+03  0.00000000000E+00 0. -1.
         -5    1    5    5    0  502  0.35797843529E+02 -0.35559743283E+02 -0.41325609503E+02  0.65390189972E+02  0.47000000000E+01 0.  1.
         13    1    6    6    0    0 -0.30407283052E+02  0.32717184983E+02  0.15570921069E+02  0.47301909462E+02  0.00000000000E+00 0. -1.
        -14    1    6    6    0    0 -0.22169562427E+02 -0.49775087119E+02 -0.38260678020E+01  0.54623141531E+02  0.00000000000E+00 0.  1.
<mgrwt>
<rscale>  2 0.17692644E+03</rscale>
<asrwt>0</asrwt>
<pdfrwt beam="1">  1       21 0.11864607E-01 0.18120787E+03</pdfrwt>
<pdfrwt beam="2">  1       21 0.16817874E+00 0.18120787E+03</pdfrwt>
<totfact> 0.13276799E+04</totfact>
</mgrwt>
</event>
<event>
12    1  0.1074575E-001  0.3965175E+03  0.7546771E-02  0.1045000E+00
         21   -1    0    0  501  502  0.00000000000E+00  0.00000000000E+00  0.12345219818E+03  0.12345219818E+03  0.00000000000E+00 0. -1.
         21   -1    0    0  502  503 -0.00000000000E+00 -0.00000000000E+00 -0.16161860280E+04  0.16161860280E+04  0.00000000000E+00 0. -1.
         -6    2    1    2    0  503 -0.89388297852E+02  0.34512921981E+03 -0.11470810558E+04  0.12136808082E+04  0.17355606962E+03 0.  0.
        -24    2    3    3    0    0 -0.98788614900E+02  0.30672125379E+03 -0.82958081821E+03  0.89369326355E+03  0.81524213748E+02 0.  0.
          6    2    1    2  501    0  0.89388297852E+02 -0.34512921981E+03 -0.34565277393E+03  0.52595741795E+03  0.17335200952E+03 0.  0.
         24    2    5    5    0    0  0.10232244331E+03 -0.35626663071E+03 -0.33572221723E+03  0.50565864960E+03  0.74735990054E+02 0.  0.
          5    1    5    5  501    0 -0.12934145456E+02  0.11137410896E+02 -0.99305566990E+01  0.20298768349E+02  0.47000000000E+01 0. -1.
        -13    1    6    6    0    0  0.66100680561E+01 -0.14497039130E+03 -0.14769197185E+03  0.20705802545E+03  0.00000000000E+00 0.  1.
         14    1    6    6    0    0  0.95712375251E+02 -0.21129623941E+03 -0.18803024538E+03  0.29860062415E+03  0.00000000000E+00 0. -1.
         -5    1    3    3    0  503  0.94003170484E+01  0.38407966027E+02 -0.31750023764E+03  0.31998754463E+03  0.47000000000E+01 0.  1.
         13    1    4    4    0    0 -0.44572273647E+01  0.14334423779E+03 -0.37788360429E+03  0.40418245357E+03  0.00000000000E+00 0. -1.
        -14    1    4    4    0    0 -0.94331387535E+02  0.16337701599E+03 -0.45169721392E+03  0.48951080998E+03  0.00000000000E+00 0.  1.
<mgrwt>
<rscale>  2 0.39649521E+03</rscale>
<asrwt>0</asrwt>
<pdfrwt beam="1">  1       21 0.18992647E-01 0.39651753E+03</pdfrwt>
<pdfrwt beam="2">  1       21 0.24864399E+00 0.39651753E+03</pdfrwt>
<totfact> 0.14635642E+03</totfact>
</mgrwt>
</event>
<event>
12    1  0.1074575E-001  0.2155547E+03  0.7546771E-02  0.1138712E+00
         21   -1    0    0  501  502  0.00000000000E+00  0.00000000000E+00  0.24254144639E+03  0.24254144639E+03  0.00000000000E+00 0. -1.
         21   -1    0    0  502  503 -0.00000000000E+00 -0.00000000000E+00 -0.30221786417E+03  0.30221786417E+03  0.00000000000E+00 0.  1.
         -6    2    1    2    0  503 -0.41108743114E+02  0.11583224120E+03 -0.19918313431E+03  0.28799883105E+03  0.16781647365E+03 0.  0.
        -24    2    3    3    0    0 -0.54865408863E+02  0.84765886562E+02 -0.56216190231E+02  0.14097501888E+03  0.80735539207E+02 0.  0.
          6    2    1    2  501    0  0.41108743114E+02 -0.11583224120E+03  0.13950671654E+03  0.25676047952E+03  0.17707846572E+03 0.  0.
         24    2    5    5    0    0  0.87578750428E+02 -0.30085198101E+02  0.45832130203E+02  0.12144959634E+03  0.63829958654E+02 0.  0.
          5    1    5    5  501    0 -0.46470007314E+02 -0.85747043104E+02  0.93674586332E+02  0.13531088317E+03  0.47000000000E+01 0. -1.
        -13    1    6    6    0    0  0.36649719721E+02 -0.45496527001E+02  0.31360661859E+02  0.66307066268E+02  0.00000000000E+00 0.  1.
         14    1    6    6    0    0  0.50929030706E+02  0.15411328900E+02  0.14471468344E+02  0.55142530076E+02  0.00000000000E+00 0. -1.
         -5    1    3    3    0  503  0.13756665749E+02  0.31066354643E+02 -0.14296694408E+03  0.14702381216E+03  0.47000000000E+01 0.  1.
         11    1    4    4    0    0 -0.66241079317E+02  0.53452332393E+02 -0.64321020779E+02  0.10668751633E+03  0.00000000000E+00 0. -1.
        -12    1    4    4    0    0  0.11375670454E+02  0.31313554169E+02  0.81048305479E+01  0.34287502551E+02  0.00000000000E+00 0.  1.
<mgrwt>
<rscale>  2 0.21364400E+03</rscale>
<asrwt>0</asrwt>
<pdfrwt beam="1">  1       21 0.37314069E-01 0.21555468E+03</pdfrwt>
<pdfrwt beam="2">  1       21 0.46495056E-01 0.21555468E+03</pdfrwt>
<totfact> 0.30312596E+04</totfact>
</mgrwt>
</event>
<event>
12    1  0.1074575E-001  0.2157917E+03  0.7546771E-02  0.1137118E+00
         21   -1    0    0  501  502  0.00000000000E+00  0.00000000000E+00  0.49775959993E+03  0.49775959993E+03  0.00000000000E+00 0. -1.
         21   -1    0    0  502  503 -0.00000000000E+00 -0.00000000000E+00 -0.93893084138E+02  0.93893084138E+02  0.00000000000E+00 0. -1.
         -6    2    1    2    0  503 -0.10701269774E+03  0.70210843667E+02  0.18106526135E+03  0.28169252984E+03  0.17373765411E+03 0.  0.
        -24    2    3    3    0    0 -0.10218081382E+02  0.18734626125E+02  0.18372013594E+02  0.85452417749E+02  0.80679547671E+02 0.  0.
          6    2    1    2  501    0  0.10701269774E+03 -0.70210843667E+02  0.22280125445E+03  0.30996015423E+03  0.17335979402E+03 0.  0.
         24    2    5    5    0    0  0.10530841286E+03 -0.57634377474E+02  0.24442834498E+03  0.28444754688E+03  0.82180337139E+02 0.  0.
          5    1    5    5  501    0  0.17042848777E+01 -0.12576466194E+02 -0.21627090533E+02  0.25512607350E+02  0.47000000000E+01 0. -1.
        -11    1    6    6    0    0  0.44071859011E+02 -0.33725985975E+02  0.19346818104E+03  0.20127023615E+03  0.00000000000E+00 0.  1.
         12    1    6    6    0    0  0.61236553849E+02 -0.23908391499E+02  0.50960163941E+02  0.83177310730E+02  0.00000000000E+00 0. -1.
         -5    1    3    3    0  503 -0.96794616356E+02  0.51476217542E+02  0.16269324776E+03  0.19624011209E+03  0.47000000000E+01 0.  1.
         11    1    4    4    0    0 -0.45359951754E+02  0.54809898179E+01  0.70921893054E+01  0.46237058964E+02  0.00000000000E+00 0. -1.
        -12    1    4    4    0    0  0.35141870372E+02  0.13253636307E+02  0.11279824289E+02  0.39215358785E+02  0.00000000000E+00 0.  1.
<mgrwt>
<rscale>  2 0.21571562E+03</rscale>
<asrwt>0</asrwt>
<pdfrwt beam="1">  1       21 0.76578399E-01 0.21579169E+03</pdfrwt>
<pdfrwt beam="2">  1       21 0.14445090E-01 0.21579169E+03</pdfrwt>
<totfact> 0.63077275E+04</totfact>
</mgrwt>
</event>
<event>
12    1  0.1074575E-001  0.1895462E+03  0.7546771E-02  0.1159032E+00
         21   -1    0    0  501  502  0.00000000000E+00  0.00000000000E+00  0.11133735540E+03  0.11133735540E+03  0.00000000000E+00 0. -1.
         21   -1    0    0  502  503 -0.00000000000E+00 -0.00000000000E+00 -0.61138732067E+03  0.61138732067E+03  0.00000000000E+00 0. -1.
         -6    2    1    2    0  503 -0.54114335653E+02  0.51545612720E+02 -0.49910540058E+03  0.53388572423E+03  0.17419085550E+03 0.  0.
        -24    2    3    3    0    0  0.17197896438E+02  0.51836519406E+02 -0.39992414797E+03  0.41163790241E+03  0.80769091747E+02 0.  0.
          6    2    1    2  501    0  0.54114335653E+02 -0.51545612720E+02 -0.94456469860E+00  0.18883895184E+03  0.17341841314E+03 0.  0.
         24    2    5    5    0    0  0.10384296456E+03 -0.42595842267E+02  0.37551082498E+01  0.13787610409E+03  0.79987200062E+02 0.  0.
          5    1    5    5  501    0 -0.49728628911E+02 -0.89497704539E+01 -0.46996729484E+01  0.50962847745E+02  0.47000000000E+01 0. -1.
        -11    1    6    6    0    0  0.93642765367E+02 -0.64424505807E+02  0.14665030460E+01  0.11367337017E+03  0.00000000000E+00 0.  1.
         12    1    6    6    0    0  0.10200199197E+02  0.21828663541E+02  0.22886052037E+01  0.24202733924E+02  0.00000000000E+00 0. -1.
         -5    1    3    3    0  503 -0.71312232091E+02 -0.29090668572E+00 -0.99181252605E+02  0.12224782182E+03  0.47000000000E+01 0.  1.
         11    1    4    4    0    0  0.14752055420E+02 -0.95083710273E+01 -0.23504795854E+03  0.23570230180E+03  0.00000000000E+00 0. -1.
        -12    1    4    4    0    0  0.24458410178E+01  0.61344890433E+02 -0.16487618943E+03  0.17593560061E+03  0.00000000000E+00 0.  1.
<mgrwt>
<rscale>  2 0.18936856E+03</rscale>
<asrwt>0</asrwt>
<pdfrwt beam="1">  1       21 0.17128824E-01 0.18954621E+03</pdfrwt>
<pdfrwt beam="2">  1       21 0.94059587E-01 0.18954621E+03</pdfrwt>
<totfact> 0.29222660E+04</totfact>
</mgrwt>
</event>
<event>
12    1  0.1074575E-001  0.1772658E+03  0.7546771E-02  0.1172871E+00
         21   -1    0    0  503  502  0.00000000000E+00  0.00000000000E+00  0.15460108789E+03  0.15460108789E+03  0.00000000000E+00 0.  1.
         21   -1    0    0  501  503 -0.00000000000E+00 -0.00000000000E+00 -0.49900935131E+03  0.49900935131E+03  0.00000000000E+00 0.  1.
          6    2    1    2  501    0 -0.32890682532E+02  0.86399347485E+01 -0.43007097999E+03  0.46517114548E+03  0.17397327750E+03 0.  0.
         24    2    3    3    0    0 -0.41452194100E+02 -0.11124663719E+02 -0.43319620976E+03  0.44290467081E+03  0.81630562509E+02 0.  0.
         -6    2    1    2    0  502  0.32890682532E+02 -0.86399347485E+01  0.85662716568E+02  0.18843929373E+03  0.16436185976E+03 0.  0.
        -24    2    5    5    0    0  0.49348927442E+02 -0.31889920151E+02  0.34341770345E+00  0.98367608916E+02  0.78890968439E+02 0.  0.
          5    1    3    3  501    0  0.85615115687E+01  0.19764598468E+02  0.31252297710E+01  0.22266474666E+02  0.47000000000E+01 0. -1.
        -11    1    4    4    0    0 -0.21098798935E+01 -0.41893972093E+02 -0.17914858911E+03  0.18399394955E+03  0.00000000000E+00 0.  1.
         12    1    4    4    0    0 -0.39342314207E+02  0.30769308374E+02 -0.25404762065E+03  0.25891072126E+03  0.00000000000E+00 0. -1.
         -5    1    5    5    0  502 -0.16458244911E+02  0.23249985403E+02  0.85319298864E+02  0.90071684815E+02  0.47000000000E+01 0.  1.
         11    1    6    6    0    0 -0.20671220069E+02 -0.16899335984E+02  0.16245057736E+01  0.26749316157E+02  0.00000000000E+00 0. -1.
        -12    1    6    6    0    0  0.70020147511E+02 -0.14990584167E+02 -0.12810880701E+01  0.71618292760E+02  0.00000000000E+00 0.  1.
<mgrwt>
<rscale>  2 0.17486159E+03</rscale>
<asrwt>0</asrwt>
<pdfrwt beam="1">  1       21 0.23784783E-01 0.17726575E+03</pdfrwt>
<pdfrwt beam="2">  1       21 0.76770669E-01 0.17726575E+03</pdfrwt>
<totfact> 0.25355682E+04</totfact>
</mgrwt>
</event>
<event>
12    1  0.1074575E-001  0.2541903E+03  0.7546771E-02  0.1110695E+00
         21   -1    0    0  501  502  0.00000000000E+00  0.00000000000E+00  0.23801372950E+03  0.23801372950E+03  0.00000000000E+00 0. -1.
         21   -1    0    0  502  503 -0.00000000000E+00 -0.00000000000E+00 -0.28936721789E+03  0.28936721789E+03  0.00000000000E+00 0.  1.
         -6    2    1    2    0  503 -0.18194450768E+03 -0.37382842892E+02 -0.91385861899E+02  0.27005764081E+03  0.17343146424E+03 0.  0.
        -24    2    3    3    0    0 -0.20342744724E+03 -0.11728562972E+02 -0.68262941850E+02  0.22911355452E+03  0.79453798885E+02 0.  0.
          6    2    1    2  501    0  0.18194450768E+03  0.37382842892E+02  0.40032373508E+02  0.25732330658E+03  0.17352640250E+03 0.  0.
         24    2    5    5    0    0  0.11128152963E+03 -0.48030866063E+02  0.28117775989E+02  0.14573116627E+03  0.75871078583E+02 0.  0.
          5    1    5    5  501    0  0.70662978048E+02  0.85413708955E+02  0.11914597519E+02  0.11159214031E+03  0.47000000000E+01 0. -1.
        -11    1    6    6    0    0  0.48381121793E+02 -0.54907632194E+02 -0.67369347622E+01  0.73491273694E+02  0.00000000000E+00 0.  1.
         12    1    6    6    0    0  0.62900407834E+02  0.68767661306E+01  0.34854710751E+02  0.72239892578E+02  0.00000000000E+00 0. -1.
         -5    1    3    3    0  503  0.21482939562E+02 -0.25654279920E+02 -0.23122920049E+02  0.40944086289E+02  0.47000000000E+01 0.  1.
         13    1    4    4    0    0 -0.95101965553E+02 -0.58643886908E+01  0.93272014669E+01  0.95738036297E+02  0.00000000000E+00 0. -1.
        -14    1    4    4    0    0 -0.10832548168E+03 -0.58641742811E+01 -0.77590143317E+02  0.13337551823E+03  0.00000000000E+00 0.  1.
<mgrwt>
<rscale>  2 0.25417407E+03</rscale>
<asrwt>0</asrwt>
<pdfrwt beam="1">  1       21 0.36617497E-01 0.25419027E+03</pdfrwt>
<pdfrwt beam="2">  1       21 0.44518034E-01 0.25419027E+03</pdfrwt>
<totfact> 0.33825803E+04</totfact>
</mgrwt>
</event>
<event>
12    1  0.1074575E-001  0.2697517E+03  0.7546771E-02  0.1101496E+00
         21   -1    0    0  501  502  0.00000000000E+00  0.00000000000E+00  0.93659059419E+03  0.93659059419E+03  0.00000000000E+00 0. -1.
         21   -1    0    0  502  503 -0.00000000000E+00 -0.00000000000E+00 -0.19052367703E+03  0.19052367703E+03  0.00000000000E+00 0. -1.
         -6    2    1    2    0  503 -0.14667109123E+03  0.14618971220E+03 -0.60795051287E+02  0.27651768751E+03  0.17286454897E+03 0.  0.
        -24    2    3    3    0    0 -0.10526975370E+03  0.12099316592E+03 -0.10733904648E+03  0.20915768319E+03  0.80648610006E+02 0.  0.
          6    2    1    2  501    0  0.14667109123E+03 -0.14618971220E+03  0.80686196845E+03  0.85059658372E+03  0.17205949886E+03 0.  0.
         24    2    5    5    0    0  0.13417984545E+03 -0.13371507901E+03  0.46277280863E+03  0.50602280700E+03  0.77565814123E+02 0.  0.
          5    1    5    5  501    0  0.12491245780E+02 -0.12474633185E+02  0.34408915982E+03  0.34457377672E+03  0.47000000000E+01 0. -1.
        -13    1    6    6    0    0  0.88037934214E+02 -0.12542955744E+03  0.30349025766E+03  0.33998468823E+03  0.00000000000E+00 0.  1.
         14    1    6    6    0    0  0.46141911234E+02 -0.82855215702E+01  0.15928255097E+03  0.16603811877E+03  0.00000000000E+00 0. -1.
         -5    1    3    3    0  503 -0.41401337527E+02  0.25196546283E+02  0.46543995193E+02  0.67360004321E+02  0.47000000000E+01 0.  1.
         13    1    4    4    0    0 -0.11072238897E+03  0.12513904964E+03 -0.88433510568E+02  0.18904950398E+03  0.00000000000E+00 0. -1.
        -14    1    4    4    0    0  0.54526352645E+01 -0.41458837220E+01 -0.18905535913E+02  0.20108179214E+02  0.00000000000E+00 0.  1.
<mgrwt>
<rscale>  2 0.26962284E+03</rscale>
<asrwt>0</asrwt>
<pdfrwt beam="1">  1       21 0.14409086E+00 0.26975173E+03</pdfrwt>
<pdfrwt beam="2">  1       21 0.29311335E-01 0.26975173E+03</pdfrwt>
<totfact> 0.34925093E+03</totfact>
</mgrwt>
</event>
<event>
12    1  0.1074575E-001  0.1866756E+03  0.7546771E-02  0.1161589E+00
         21   -1    0    0  501  502  0.00000000000E+00  0.00000000000E+00  0.34744513726E+03  0.34744513726E+03  0.00000000000E+00 0.  1.
         21   -1    0    0  502  503 -0.00000000000E+00 -0.00000000000E+00 -0.10007803250E+03  0.10007803250E+03  0.00000000000E+00 0.  1.
         -6    2    1    2    0  503 -0.43150465339E+02 -0.54010878346E+02  0.12349908114E+03  0.22348956263E+03  0.17296364913E+03 0.  0.
        -24    2    3    3    0    0  0.24720360607E+02 -0.70782138517E+02  0.10229932193E+03  0.15028270521E+03  0.80613478125E+02 0.  0.
          6    2    1    2  501    0  0.43150465339E+02  0.54010878346E+02  0.12386802362E+03  0.22403360714E+03  0.17340309170E+03 0.  0.
         24    2    5    5    0    0  0.73186907922E+01  0.33003249184E+02 -0.61633910585E+01  0.87448485857E+02  0.80414380541E+02 0.  0.
          5    1    5    5  501    0  0.35831774547E+02  0.21007629162E+02  0.13003141468E+03  0.13658512128E+03  0.47000000000E+01 0. -1.
        -13    1    6    6    0    0  0.38490117081E+02 -0.35820034214E+01  0.19454884436E+01  0.38705358630E+02  0.00000000000E+00 0.  1.
         14    1    6    6    0    0 -0.31171426289E+02  0.36585252606E+02 -0.81088795021E+01  0.48743127227E+02  0.00000000000E+00 0. -1.
         -5    1    3    3    0  503 -0.67870825946E+02  0.16771260171E+02  0.21199759209E+02  0.73206857417E+02  0.47000000000E+01 0.  1.
         11    1    4    4    0    0  0.47450035553E+01  0.11602677633E+01 -0.12453845859E+02  0.13377576638E+02  0.00000000000E+00 0. -1.
        -12    1    4    4    0    0  0.19975357052E+02 -0.71942406281E+02  0.11475316779E+03  0.13690512857E+03  0.00000000000E+00 0.  1.
<mgrwt>
<rscale>  2 0.18657346E+03</rscale>
<asrwt>0</asrwt>
<pdfrwt beam="1">  1       21 0.53453097E-01 0.18667557E+03</pdfrwt>
<pdfrwt beam="2">  1       21 0.15396621E-01 0.18667557E+03</pdfrwt>
<totfact> 0.12417819E+05</totfact>
</mgrwt>
</event>
<event>
12    1  0.1074575E-001  0.2366173E+03  0.7546771E-02  0.1122268E+00
         21   -1    0    0  501  502  0.00000000000E+00  0.00000000000E+00  0.22923285033E+03  0.22923285033E+03  0.00000000000E+00 0. -1.
         21   -1    0    0  502  503 -0.00000000000E+00 -0.00000000000E+00 -0.24907901898E+03  0.24907901898E+03  0.00000000000E+00 0.  1.
         -6    2    1    2    0  503 -0.65209491313E+02  0.14459510093E+03 -0.47240681147E+02  0.24128704224E+03  0.17557828405E+03 0.  0.
        -24    2    3    3    0    0 -0.75634277413E+02  0.16028872289E+03 -0.74098094169E+02  0.20814527751E+03  0.80130583319E+02 0.  0.
          6    2    1    2  501    0  0.65209491313E+02 -0.14459510093E+03  0.27394512500E+02  0.23702482707E+03  0.17398358648E+03 0.  0.
         24    2    5    5    0    0  0.16083508984E+02 -0.14879888985E+00  0.20927723002E+02  0.84243919632E+02  0.80002293733E+02 0.  0.
          5    1    5    5  501    0  0.49125982329E+02 -0.14444630204E+03  0.64667894980E+01  0.15278090744E+03  0.47000000000E+01 0. -1.
        -13    1    6    6    0    0 -0.16393818859E+02 -0.45491193283E+01 -0.23514533498E+02  0.29023870677E+02  0.00000000000E+00 0.  1.
         14    1    6    6    0    0  0.32477327843E+02  0.44003204385E+01  0.44442256500E+02  0.55220048955E+02  0.00000000000E+00 0. -1.
         -5    1    3    3    0  503  0.10424786100E+02 -0.15693621964E+02  0.26857413022E+02  0.33141764736E+02  0.47000000000E+01 0.  1.
         11    1    4    4    0    0  0.88142430655E+01  0.25975329624E+02  0.92258617706E+01  0.28940026871E+02  0.00000000000E+00 0. -1.
        -12    1    4    4    0    0 -0.84448520479E+02  0.13431339327E+03 -0.83323955939E+02  0.17920525064E+03  0.00000000000E+00 0.  1.
<mgrwt>
<rscale>  2 0.23632154E+03</rscale>
<asrwt>0</asrwt>
<pdfrwt beam="1">  1       21 0.35266592E-01 0.23661732E+03</pdfrwt>
<pdfrwt beam="2">  1       21 0.38319849E-01 0.23661732E+03</pdfrwt>
<totfact> 0.49894983E+04</totfact>
</mgrwt>
</event>
<event>
12    1  0.1074575E-001  0.1982699E+03  0.7546771E-02  0.1151988E+00
         21   -1    0    0  501  502  0.00000000000E+00  0.00000000000E+00  0.10779627184E+04  0.10779627184E+04  0.00000000000E+00 0. -1.
         21   -1    0    0  502  503 -0.00000000000E+00 -0.00000000000E+00 -0.51732187033E+02  0.51732187033E+02  0.00000000000E+00 0. -1.
         -6    2    1    2    0  503  0.29549788175E+02  0.82007536136E+02  0.19642595792E+03  0.27653221933E+03  0.17403587395E+03 0.  0.
        -24    2    3    3    0    0  0.12815304867E+02  0.61163646321E+02  0.27449298003E+02  0.10538984507E+03  0.80301505666E+02 0.  0.
          6    2    1    2  501    0 -0.29549788175E+02 -0.82007536136E+02  0.82980457340E+03  0.85316268605E+03  0.17808007431E+03 0.  0.
         24    2    5    5    0    0 -0.70841550710E+01 -0.10145773401E+03  0.36492115115E+03  0.38730680581E+03  0.80593164904E+02 0.  0.
          5    1    5    5  501    0 -0.22465633104E+02  0.19450197872E+02  0.46488342226E+03  0.46585588024E+03  0.47000000000E+01 0. -1.
        -11    1    6    6    0    0  0.74695271988E+01  0.12573006462E+02  0.48152082875E+02  0.50323924859E+02  0.00000000000E+00 0.  1.
         12    1    6    6    0    0 -0.14553682270E+02 -0.11403074047E+03  0.31676906827E+03  0.33698288095E+03  0.00000000000E+00 0. -1.
         -5    1    3    3    0  503  0.16734483308E+02  0.20843889815E+02  0.16897665991E+03  0.17114237427E+03  0.47000000000E+01 0.  1.
         13    1    4    4    0    0  0.28572252181E+01 -0.14320256649E+02 -0.12666118034E+02  0.19330391421E+02  0.00000000000E+00 0. -1.
        -14    1    4    4    0    0  0.99580796493E+01  0.75483902970E+02  0.40115416038E+02  0.86059453645E+02  0.00000000000E+00 0.  1.
<mgrwt>
<rscale>  2 0.19735752E+03</rscale>
<asrwt>0</asrwt>
<pdfrwt beam="1">  1       21 0.16584040E+00 0.19826986E+03</pdfrwt>
<pdfrwt beam="2">  1       21 0.79587988E-02 0.19826986E+03</pdfrwt>
<totfact> 0.27549183E+04</totfact>
</mgrwt>
</event>
<event>
12    1  0.1074575E-001  0.1866004E+03  0.7546771E-02  0.1161742E+00
         21   -1    0    0  501  502  0.00000000000E+00  0.00000000000E+00  0.24322326880E+03  0.24322326880E+03  0.00000000000E+00 0. -1.
         21   -1    0    0  502  503 -0.00000000000E+00 -0.00000000000E+00 -0.37526730482E+03  0.37526730482E+03  0.00000000000E+00 0.  1.
         -6    2    1    2    0  503 -0.63805560147E+02 -0.24530109099E+02 -0.30959151910E+03  0.36147835497E+03  0.17362838666E+03 0.  0.
        -24    2    3    3    0    0 -0.60323215433E+02 -0.75160405052E+02 -0.18865926193E+03  0.23024476774E+03  0.90179593875E+02 0.  0.
          6    2    1    2  501    0  0.63805560147E+02  0.24530109099E+02  0.17754748308E+03  0.25701221864E+03  0.17279842600E+03 0.  0.
         24    2    5    5    0    0 -0.20789719540E+01  0.67219712362E+02  0.98085507397E+02  0.14521119282E+03  0.83322937438E+02 0.  0.
          5    1    5    5  501    0  0.65884532101E+02 -0.42689603263E+02  0.79461975682E+02  0.11180102583E+03  0.47000000000E+01 0. -1.
        -13    1    6    6    0    0 -0.11480376615E+02 -0.41617567180E+01 -0.96970746205E+01  0.15593348659E+02  0.00000000000E+00 0.  1.
         14    1    6    6    0    0  0.94014046612E+01  0.71381469080E+02  0.10778258202E+03  0.12961784416E+03  0.00000000000E+00 0. -1.
         -5    1    3    3    0  503 -0.34823447143E+01  0.50630295953E+02 -0.12093225717E+03  0.13123358723E+03  0.47000000000E+01 0.  1.
         13    1    4    4    0    0  0.72549222954E+01 -0.61025591461E+02 -0.10619205926E+03  0.12269274697E+03  0.00000000000E+00 0. -1.
        -14    1    4    4    0    0 -0.67578137728E+02 -0.14134813591E+02 -0.82467202679E+02  0.10755202077E+03  0.00000000000E+00 0.  1.
<mgrwt>
<rscale>  2 0.18640705E+03</rscale>
<asrwt>0</asrwt>
<pdfrwt beam="1">  1       21 0.37418965E-01 0.18660035E+03</pdfrwt>
<pdfrwt beam="2">  1       21 0.57733431E-01 0.18660035E+03</pdfrwt>
<totfact> 0.19451700E+04</totfact>
</mgrwt>
</event>
<event>
12    1  0.1074575E-001  0.1753673E+03  0.7546771E-02  0.1173433E+00
         21   -1    0    0  501  502  0.00000000000E+00  0.00000000000E+00  0.15375026112E+03  0.15375026112E+03  0.00000000000E+00 0.  1.
         21   -1    0    0  502  503 -0.00000000000E+00 -0.00000000000E+00 -0.21595829154E+03  0.21595829154E+03  0.00000000000E+00 0.  1.
         -6    2    1    2    0  503 -0.18123878059E+02  0.20208452939E+02 -0.88012481013E+02  0.19245290059E+03  0.16898244171E+03 0.  0.
        -24    2    3    3    0    0  0.51256210414E+02 -0.74578124624E+01 -0.44821419603E+02  0.10604354517E+03  0.80953417130E+02 0.  0.
          6    2    1    2  501    0  0.18123878059E+02 -0.20208452939E+02  0.25804450594E+02  0.17725565207E+03  0.17325368682E+03 0.  0.
         24    2    5    5    0    0  0.71286306662E+02 -0.45163628387E+02  0.20060546962E+02  0.11806032265E+03  0.80089471176E+02 0.  0.
          5    1    5    5  501    0 -0.53162428604E+02  0.24955175448E+02  0.57439036315E+01  0.59195329424E+02  0.47000000000E+01 0. -1.
        -11    1    6    6    0    0  0.15648695642E+02  0.14533592484E+02  0.28947702694E+02  0.35973274483E+02  0.00000000000E+00 0.  1.
         12    1    6    6    0    0  0.55637611020E+02 -0.59697220871E+02 -0.88871557315E+01  0.82087048167E+02  0.00000000000E+00 0. -1.
         -5    1    3    3    0  503 -0.69380088472E+02  0.27666265402E+02 -0.43191061410E+02  0.86409355416E+02  0.47000000000E+01 0.  1.
         13    1    4    4    0    0  0.24415121926E+02 -0.54163261829E+01  0.22436955246E+02  0.33598388781E+02  0.00000000000E+00 0. -1.
        -14    1    4    4    0    0  0.26841088487E+02 -0.20414862795E+01 -0.67258374848E+02  0.72445156392E+02  0.00000000000E+00 0.  1.
<mgrwt>
<rscale>  2 0.17430305E+03</rscale>
<asrwt>0</asrwt>
<pdfrwt beam="1">  1       21 0.23653886E-01 0.17536732E+03</pdfrwt>
<pdfrwt beam="2">  1       21 0.33224353E-01 0.17536732E+03</pdfrwt>
<totfact> 0.14764087E+05</totfact>
</mgrwt>
</event>
<event>
12    1  0.1074575E-001  0.1983337E+03  0.7546771E-02  0.1152794E+00
         21   -1    0    0  503  502  0.00000000000E+00  0.00000000000E+00  0.14823230870E+04  0.14823230870E+04  0.00000000000E+00 0. -1.
         21   -1    0    0  501  503 -0.00000000000E+00 -0.00000000000E+00 -0.34680801254E+02  0.34680801254E+02  0.00000000000E+00 0.  1.
          6    2    1    2  501    0  0.62994526332E+02 -0.73816425490E+02  0.32408180121E+03  0.37607251165E+03  0.16426912407E+03 0.  0.
         24    2    3    3    0    0  0.74029652846E+02 -0.74478491006E+02  0.15117191127E+03  0.20274584784E+03  0.85002923105E+02 0.  0.
         -6    2    1    2    0  502 -0.62994526332E+02  0.73816425490E+02  0.11235604846E+04  0.11409313766E+04  0.17297129442E+03 0.  0.
        -24    2    5    5    0    0 -0.47526856409E+01 -0.24128493031E+02  0.49606680899E+03  0.50315733988E+03  0.80500046566E+02 0.  0.
          5    1    3    3  501    0 -0.11035126514E+02  0.66206551569E+00  0.17290988993E+03  0.17332666380E+03  0.47000000000E+01 0. -1.
        -13    1    4    4    0    0  0.22247031772E+00  0.16107458771E+02  0.81269888677E+01  0.18042939593E+02  0.00000000000E+00 0.  1.
         14    1    4    4    0    0  0.73807182529E+02 -0.90585949777E+02  0.14304492241E+03  0.18470290825E+03  0.00000000000E+00 0. -1.
         -5    1    5    5    0  502 -0.58241840691E+02  0.97944918522E+02  0.62749367558E+03  0.63777403676E+03  0.47000000000E+01 0.  1.
         11    1    6    6    0    0 -0.37095135973E+01 -0.28437604328E+02  0.49763042343E+03  0.49845611257E+03  0.00000000000E+00 0. -1.
        -12    1    6    6    0    0 -0.10431720436E+01  0.43091112967E+01 -0.15636144454E+01  0.47012273093E+01  0.00000000000E+00 0.  1.
<mgrwt>
<rscale>  2 0.19642071E+03</rscale>
<asrwt>0</asrwt>
<pdfrwt beam="1">  1       21 0.22804966E+00 0.19833367E+03</pdfrwt>
<pdfrwt beam="2">  1       21 0.53355090E-02 0.19833367E+03</pdfrwt>
<totfact> 0.21547750E+04</totfact>
</mgrwt>
</event>
<event>
12    1  0.1074575E-001  0.2548307E+03  0.7546771E-02  0.1110330E+00
         21   -1    0    0  501  502  0.00000000000E+00  0.00000000000E+00  0.79493494036E+02  0.79493494036E+02  0.00000000000E+00 0. -1.
         21   -1    0    0  502  503 -0.00000000000E+00 -0.00000000000E+00 -0.96501831644E+03  0.96501831644E+03  0.00000000000E+00 0. -1.
         -6    2    1    2    0  503  0.15325732494E+03  0.10698542522E+03 -0.64775279334E+03  0.69598025936E+03  0.17283272629E+03 0.  0.
        -24    2    3    3    0    0  0.59725891991E+02  0.86800232337E+01 -0.41271115047E+03  0.42454197006E+03  0.79138269181E+02 0.  0.
          6    2    1    2  501    0 -0.15325732494E+03 -0.10698542522E+03 -0.23777202906E+03  0.34853155112E+03  0.17321955855E+03 0.  0.
         24    2    5    5    0    0 -0.57438534895E+02  0.31569202968E+02 -0.10517785495E+03  0.13409757403E+03  0.51224782318E+02 0.  0.
          5    1    5    5  501    0 -0.95818790041E+02 -0.13855462819E+03 -0.13259417411E+03  0.21443397708E+03  0.47000000000E+01 0. -1.
        -13    1    6    6    0    0 -0.30766085601E+02  0.28005080437E+02 -0.22811333277E+02  0.47446743611E+02  0.00000000000E+00 0.  1.
         14    1    6    6    0    0 -0.26672449294E+02  0.35641225313E+01 -0.82366521671E+02  0.86650830423E+02  0.00000000000E+00 0. -1.
         -5    1    3    3    0  503  0.93531432945E+02  0.98305401991E+02 -0.23504164288E+03  0.27143828930E+03  0.47000000000E+01 0.  1.
         11    1    4    4    0    0  0.78942753086E+02  0.16279615886E+01 -0.33506433432E+03  0.34424223543E+03  0.00000000000E+00 0. -1.
        -12    1    4    4    0    0 -0.19216861096E+02  0.70520616450E+01 -0.77646816146E+02  0.80299734629E+02  0.00000000000E+00 0.  1.
<mgrwt>
<rscale>  2 0.25476501E+03</rscale>
<asrwt>0</asrwt>
<pdfrwt beam="1">  1       21 0.12229769E-01 0.25483074E+03</pdfrwt>
<pdfrwt beam="2">  1       21 0.14846435E+00 0.25483074E+03</pdfrwt>
<totfact> 0.16759549E+04</totfact>
</mgrwt>
</event>
<event>
12    1  0.1074575E-001  0.2202557E+03  0.7546771E-02  0.1133843E+00
         21   -1    0    0  503  502  0.00000000000E+00  0.00000000000E+00  0.29887380599E+03  0.29887380599E+03  0.00000000000E+00 0. -1.
         21   -1    0    0  501  503 -0.00000000000E+00 -0.00000000000E+00 -0.51888946119E+03  0.51888946119E+03  0.00000000000E+00 0.  1.
          6    2    1    2  501    0 -0.96715964639E+02 -0.97626886895E+02 -0.44930083682E+03  0.50038367701E+03  0.17212668414E+03 0.  0.
         24    2    3    3    0    0 -0.14076560099E+02 -0.35563166094E+02 -0.32894267751E+03  0.34167213636E+03  0.84105144630E+02 0.  0.
         -6    2    1    2    0  502  0.96715964639E+02  0.97626886895E+02  0.22928518161E+03  0.31737959017E+03  0.17109390080E+03 0.  0.
        -24    2    5    5    0    0  0.96347813914E+02  0.24282562101E+02  0.75163810621E+02  0.14663120069E+03  0.77321190640E+02 0.  0.
          5    1    3    3  501    0 -0.82639404540E+02 -0.62063720801E+02 -0.12035815931E+03  0.15871154065E+03  0.47000000000E+01 0. -1.
        -11    1    4    4    0    0 -0.19646673060E+02  0.24506147012E+02 -0.13267899551E+03  0.13634609951E+03  0.00000000000E+00 0.  1.
         12    1    4    4    0    0  0.55701129610E+01 -0.60069313106E+02 -0.19626368200E+03  0.20532603685E+03  0.00000000000E+00 0. -1.
         -5    1    5    5    0  502  0.36815072525E+00  0.73344324794E+02  0.15412137099E+03  0.17074838948E+03  0.47000000000E+01 0.  1.
         13    1    6    6    0    0  0.44276121738E+02  0.49900832589E+02  0.30255980006E+02  0.73252251675E+02  0.00000000000E+00 0. -1.
        -14    1    6    6    0    0  0.52071692175E+02 -0.25618270488E+02  0.44907830615E+02  0.73378949020E+02  0.00000000000E+00 0.  1.
<mgrwt>
<rscale>  2 0.22005390E+03</rscale>
<asrwt>0</asrwt>
<pdfrwt beam="1">  1       21 0.45980587E-01 0.22025572E+03</pdfrwt>
<pdfrwt beam="2">  1       21 0.79829146E-01 0.22025572E+03</pdfrwt>
<totfact> 0.61400349E+03</totfact>
</mgrwt>
</event>
<event>
12    1  0.1074575E-001  0.1764595E+03  0.7546771E-02  0.1171555E+00
         21   -1    0    0  501  502  0.00000000000E+00  0.00000000000E+00  0.16880257133E+04  0.16880257133E+04  0.00000000000E+00 0. -1.
         21   -1    0    0  502  503 -0.00000000000E+00 -0.00000000000E+00 -0.36513773291E+03  0.36513773291E+03  0.00000000000E+00 0. -1.
         -6    2    1    2    0  503 -0.17851677191E+02  0.23522896258E+02 -0.33893377886E+03  0.38211785834E+03  0.17397109582E+03 0.  0.
        -24    2    3    3    0    0  0.16590247223E+02 -0.45769370121E+02 -0.14920078199E+03  0.17715843689E+03  0.82183738489E+02 0.  0.
          6    2    1    2  501    0  0.17851677191E+02 -0.23522896258E+02  0.16618217593E+04  0.16710455879E+04  0.17282878287E+03 0.  0.
         24    2    5    5    0    0  0.37376643076E+02 -0.56834153763E+02  0.55191451593E+03  0.56045698585E+03  0.69823102237E+02 0.  0.
          5    1    5    5  501    0 -0.19524965885E+02  0.33311257505E+02  0.11099072433E+04  0.11105886020E+04  0.47000000000E+01 0. -1.
        -11    1    6    6    0    0 -0.92930990005E+01  0.10539581917E+02  0.51836419112E+02  0.53707158018E+02  0.00000000000E+00 0.  1.
         12    1    6    6    0    0  0.46669742077E+02 -0.67373735680E+02  0.50007809682E+03  0.50674982783E+03  0.00000000000E+00 0. -1.
         -5    1    3    3    0  503 -0.34441924414E+02  0.69292266379E+02 -0.18973299687E+03  0.20495942144E+03  0.47000000000E+01 0.  1.
         11    1    4    4    0    0  0.36250298725E+02 -0.82550871820E+01 -0.22247294116E+02  0.43326351306E+02  0.00000000000E+00 0. -1.
        -12    1    4    4    0    0 -0.19660051502E+02 -0.37514282939E+02 -0.12695348787E+03  0.13383208559E+03  0.00000000000E+00 0.  1.
<mgrwt>
<rscale>  2 0.17617729E+03</rscale>
<asrwt>0</asrwt>
<pdfrwt beam="1">  1       21 0.25969626E+00 0.17645949E+03</pdfrwt>
<pdfrwt beam="2">  1       21 0.56175037E-01 0.17645949E+03</pdfrwt>
<totfact> 0.17845040E+02</totfact>
</mgrwt>
</event>
<event>
12    1  0.1074575E-001  0.2354560E+03  0.7546771E-02  0.1123148E+00
         21   -1    0    0  501  502  0.00000000000E+00  0.00000000000E+00  0.90059370154E+03  0.90059370154E+03  0.00000000000E+00 0.  1.
         21   -1    0    0  502  503 -0.00000000000E+00 -0.00000000000E+00 -0.17835934608E+03  0.17835934608E+03  0.00000000000E+00 0. -1.
         -6    2    1    2    0  503  0.81528187842E+02 -0.13403207379E+03 -0.76718076484E+02  0.24602778259E+03  0.17329906038E+03 0.  0.
        -24    2    3    3    0    0 -0.25935590980E+02 -0.43240424203E+02 -0.65217625260E+01  0.88734426444E+02  0.72724658027E+02 0.  0.
          6    2    1    2  501    0 -0.81528187842E+02  0.13403207379E+03  0.79895243195E+03  0.83292526503E+03  0.17557923111E+03 0.  0.
         24    2    5    5    0    0 -0.25742718009E+02  0.11316719019E+03  0.72678002500E+03  0.73923263812E+03  0.69182281444E+02 0.  0.
          5    1    5    5  501    0 -0.55785469834E+02  0.20864883605E+02  0.72172406950E+02  0.93692626910E+02  0.47000000000E+01 0. -1.
        -13    1    6    6    0    0  0.57995808210E+01  0.95504251769E+01  0.25229911992E+03  0.25254641489E+03  0.00000000000E+00 0.  1.
         14    1    6    6    0    0 -0.31542298830E+02  0.10361676501E+03  0.47448090507E+03  0.48668622324E+03  0.00000000000E+00 0. -1.
         -5    1    3    3    0  503  0.10746377882E+03 -0.90791649591E+02 -0.70196313958E+02  0.15729335615E+03  0.47000000000E+01 0.  1.
         11    1    4    4    0    0  0.36576435903E+01 -0.31885185252E+02 -0.34021595491E+02  0.46770849415E+02  0.00000000000E+00 0. -1.
        -12    1    4    4    0    0 -0.29593234570E+02 -0.11355238951E+02  0.27499832965E+02  0.41963577029E+02  0.00000000000E+00 0.  1.
<mgrwt>
<rscale>  2 0.23503096E+03</rscale>
<asrwt>0</asrwt>
<pdfrwt beam="1">  1       21 0.13855287E+00 0.23545596E+03</pdfrwt>
<pdfrwt beam="2">  1       21 0.27439900E-01 0.23545596E+03</pdfrwt>
<totfact> 0.45030027E+03</totfact>
</mgrwt>
</event>
<event>
12    1  0.1074575E-001  0.2880454E+03  0.7546771E-02  0.1091410E+00
         21   -1    0    0  501  502  0.00000000000E+00  0.00000000000E+00  0.11863847168E+03  0.11863847168E+03  0.00000000000E+00 0.  1.
         21   -1    0    0  502  503 -0.00000000000E+00 -0.00000000000E+00 -0.76615848222E+03  0.76615848222E+03  0.00000000000E+00 0.  1.
         -6    2    1    2    0  503  0.79038700966E+02  0.21633731669E+03 -0.19233103379E+03  0.34612527393E+03  0.17251819571E+03 0.  0.
        -24    2    3    3    0    0  0.58825388857E+02  0.20941004687E+03 -0.10249562162E+03  0.25366416680E+03  0.80790859381E+02 0.  0.
          6    2    1    2  501    0 -0.79038700966E+02 -0.21633731669E+03 -0.45518897676E+03  0.53867167997E+03  0.17297752282E+03 0.  0.
         24    2    5    5    0    0 -0.90004772453E+02 -0.75683014403E+02 -0.18086953904E+03  0.23016376859E+03  0.80204691173E+02 0.  0.
          5    1    5    5  501    0  0.10966071486E+02 -0.14065430229E+03 -0.27431943772E+03  0.30850791138E+03  0.47000000000E+01 0. -1.
        -13    1    6    6    0    0 -0.58048132310E+01 -0.43698679858E+02 -0.26487786030E+02  0.51428331557E+02  0.00000000000E+00 0.  1.
         14    1    6    6    0    0 -0.84199959222E+02 -0.31984334545E+02 -0.15438175301E+03  0.17873543703E+03  0.00000000000E+00 0. -1.
         -5    1    3    3    0  503  0.20213312109E+02  0.69272698195E+01 -0.89835412161E+02  0.92461107130E+02  0.47000000000E+01 0.  1.
         13    1    4    4    0    0 -0.13487587334E+02  0.42184061858E+02  0.66762407773E+00  0.44292841508E+02  0.00000000000E+00 0. -1.
        -14    1    4    4    0    0  0.72312976191E+02  0.16722598501E+03 -0.10316324570E+03  0.20937132529E+03  0.00000000000E+00 0.  1.
<mgrwt>
<rscale>  2 0.28797651E+03</rscale>
<asrwt>0</asrwt>
<pdfrwt beam="1">  1       21 0.18252072E-01 0.28804544E+03</pdfrwt>
<pdfrwt beam="2">  1       21 0.11787054E+00 0.28804544E+03</pdfrwt>
<totfact> 0.14308752E+04</totfact>
</mgrwt>
</event>
<event>
12    1  0.1074575E-001  0.2029102E+03  0.7546771E-02  0.1147687E+00
         21   -1    0    0  503  502  0.00000000000E+00  0.00000000000E+00  0.14698297988E+04  0.14698297988E+04  0.00000000000E+00 0. -1.
         21   -1    0    0  501  503 -0.00000000000E+00 -0.00000000000E+00 -0.31104123753E+02  0.31104123753E+02  0.00000000000E+00 0. -1.
          6    2    1    2  501    0 -0.51791680158E+02 -0.87458803885E+02  0.96252561286E+03  0.98330564989E+03  0.17350223393E+03 0.  0.
         24    2    3    3    0    0  0.34673934664E+01 -0.42953116837E+01  0.65474150685E+03  0.65969650668E+03  0.80514393866E+02 0.  0.
         -6    2    1    2    0  502  0.51791680158E+02  0.87458803885E+02  0.47620006221E+03  0.51762827269E+03  0.17561636862E+03 0.  0.
        -24    2    5    5    0    0 -0.23083960532E+02  0.50749859038E+01  0.13680499646E+03  0.16041047402E+03  0.80357254814E+02 0.  0.
          5    1    3    3  501    0 -0.55259073624E+02 -0.83163492201E+02  0.30778410601E+03  0.32360914321E+03  0.47000000000E+01 0. -1.
        -11    1    4    4    0    0  0.30315287358E+02  0.53730167974E+01  0.11054241679E+03  0.11474977938E+03  0.00000000000E+00 0.  1.
         12    1    4    4    0    0 -0.26847893891E+02 -0.96683284811E+01  0.54419909006E+03  0.54494672730E+03  0.00000000000E+00 0. -1.
         -5    1    5    5    0  502  0.74875640690E+02  0.82383817981E+02  0.33939506575E+03  0.35721779867E+03  0.47000000000E+01 0.  1.
         13    1    6    6    0    0  0.26613404900E+02  0.65217160716E+01  0.81791511057E+02  0.86259245197E+02  0.00000000000E+00 0. -1.
        -14    1    6    6    0    0 -0.49697365432E+02 -0.14467301678E+01  0.55013485407E+02  0.74151228821E+02  0.00000000000E+00 0.  1.
<mgrwt>
<rscale>  2 0.20245186E+03</rscale>
<asrwt>0</asrwt>
<pdfrwt beam="1">  1       21 0.22612761E+00 0.20291015E+03</pdfrwt>
<pdfrwt beam="2">  1       21 0.47852509E-02 0.20291015E+03</pdfrwt>
<totfact> 0.26531475E+04</totfact>
</mgrwt>
</event>
<event>
11    1  0.1074575E-001  0.2317783E+03  0.7546771E-02  0.1125803E+00
         21   -1    0    0  503  502  0.00000000000E+00  0.00000000000E+00  0.48239826932E+02  0.48239826932E+02  0.00000000000E+00 0. -1.
         21   -1    0    0  501  503 -0.00000000000E+00 -0.00000000000E+00 -0.12335954169E+04  0.12335954169E+04  0.00000000000E+00 0. -1.
          6    2    1    2  501    0  0.85073901010E+02 -0.12736794846E+03 -0.38102863626E+03  0.44477907112E+03  0.17083745938E+03 0.  0.
         24    2    3    3    0    0  0.93597293779E+02 -0.14448711718E+03 -0.25997447433E+03  0.32213358901E+03  0.80909464412E+02 0.  0.
         -6    2    1    2    0  502 -0.85073901010E+02  0.12736794846E+03 -0.80432695372E+03  0.83705617272E+03  0.17395696273E+03 0.  0.
          5    1    3    3  501    0 -0.85233927686E+01  0.17119168719E+02 -0.12105416192E+03  0.12264548211E+03  0.47000000000E+01 0. -1.
        -11    1    4    4    0    0  0.60398625879E+01 -0.34532668798E+02 -0.11493048651E+03  0.12015823686E+03  0.00000000000E+00 0.  1.
         12    1    4    4    0    0  0.87557431191E+02 -0.10995444838E+03 -0.14504398782E+03  0.20197535216E+03  0.00000000000E+00 0. -1.
         -5    1    5    5    0  502 -0.79818894346E+02  0.83031698758E+02 -0.21230050585E+03  0.24157589631E+03  0.47000000000E+01 0.  1.
         11    1    5    5    0    0 -0.22246168760E+02  0.40550938139E+02 -0.39952731638E+03  0.40219565779E+03  0.00000000000E+00 0. -1.
        -12    1    5    5    0    0  0.16991162095E+02  0.37853115668E+01 -0.19249913149E+03  0.19328461863E+03  0.00000000000E+00 0.  1.
<mgrwt>
<rscale>  2 0.23119310E+03</rscale>
<asrwt>0</asrwt>
<pdfrwt beam="1">  1       21 0.74215108E-02 0.23177832E+03</pdfrwt>
<pdfrwt beam="2">  1       21 0.18978394E+00 0.23177832E+03</pdfrwt>
<totfact> 0.20819317E+04</totfact>
</mgrwt>
</event>
<event>
12    1  0.1074575E-001  0.1890857E+03  0.7546771E-02  0.1159905E+00
         21   -1    0    0  501  502  0.00000000000E+00  0.00000000000E+00  0.44475137380E+02  0.44475137380E+02  0.00000000000E+00 0. -1.
         21   -1    0    0  502  503 -0.00000000000E+00 -0.00000000000E+00 -0.79863628053E+03  0.79863628053E+03  0.00000000000E+00 0. -1.
         -6    2    1    2    0  503 -0.40710513881E+02 -0.58263408169E+02 -0.41140302103E+03  0.45165703223E+03  0.17230687271E+03 0.  0.
        -24    2    3    3    0    0  0.86253869193E+01 -0.93782633034E+02 -0.26452064353E+03  0.29262191265E+03  0.82382239281E+02 0.  0.
          6    2    1    2  501    0  0.40710513881E+02  0.58263408169E+02 -0.34275812212E+03  0.39145438567E+03  0.17521824994E+03 0.  0.
         24    2    5    5    0    0  0.72019199565E+02  0.49586965039E+00 -0.28179320729E+03  0.30169842127E+03  0.80171782630E+02 0.  0.
          5    1    5    5  501    0 -0.31308685685E+02  0.57767538519E+02 -0.60964914832E+02  0.89755964405E+02  0.47000000000E+01 0. -1.
        -13    1    6    6    0    0  0.11822992759E+01 -0.30439000859E+02 -0.81675354308E+02  0.87171062321E+02  0.00000000000E+00 0.  1.
         14    1    6    6    0    0  0.70836900289E+02  0.30934870509E+02 -0.20011785298E+03  0.21452735895E+03  0.00000000000E+00 0. -1.
         -5    1    3    3    0  503 -0.49335900800E+02  0.35519224865E+02 -0.14688237749E+03  0.15903511958E+03  0.47000000000E+01 0.  1.
         11    1    4    4    0    0 -0.14975759098E+02 -0.93680859170E+02 -0.24228102494E+03  0.26019314322E+03  0.00000000000E+00 0. -1.
        -12    1    4    4    0    0  0.23601146017E+02 -0.10177386387E+00 -0.22239618597E+02  0.32428769427E+02  0.00000000000E+00 0.  1.
<mgrwt>
<rscale>  2 0.18840842E+03</rscale>
<asrwt>0</asrwt>
<pdfrwt beam="1">  1       21 0.68423288E-02 0.18908571E+03</pdfrwt>
<pdfrwt beam="2">  1       21 0.12286712E+00 0.18908571E+03</pdfrwt>
<totfact> 0.78479280E+04</totfact>
</mgrwt>
</event>
<event>
12    1  0.1074575E-001  0.1885651E+03  0.7546771E-02  0.1159865E+00
         21   -1    0    0  503  502  0.00000000000E+00  0.00000000000E+00  0.41051670195E+03  0.41051670195E+03  0.00000000000E+00 0.  1.
         21   -1    0    0  501  503 -0.00000000000E+00 -0.00000000000E+00 -0.14050799925E+03  0.14050799925E+03  0.00000000000E+00 0.  1.
          6    2    1    2  501    0  0.61354790622E+02  0.43525049220E+02 -0.35855230180E+02  0.19194376513E+03  0.17291029813E+03 0.  0.
         24    2    3    3    0    0  0.54772552976E+02  0.82415167480E+02 -0.64379097881E+02  0.14304112533E+03  0.80770061911E+02 0.  0.
         -6    2    1    2    0  502 -0.61354790622E+02 -0.43525049220E+02  0.30586393288E+03  0.35908093607E+03  0.17241674214E+03 0.  0.
        -24    2    5    5    0    0 -0.36511110461E+02 -0.89786344764E+02  0.15723641437E+03  0.20138012704E+03  0.80224788382E+02 0.  0.
          5    1    3    3  501    0  0.65822376464E+01 -0.38890118260E+02  0.28523867701E+02  0.48902639799E+02  0.47000000000E+01 0. -1.
        -11    1    4    4    0    0  0.58051246383E+02  0.33170269486E+02 -0.65606542490E+02  0.93671940313E+02  0.00000000000E+00 0.  1.
         12    1    4    4    0    0 -0.32786934078E+01  0.49244897994E+02  0.12274446088E+01  0.49369185016E+02  0.00000000000E+00 0. -1.
         -5    1    5    5    0  502 -0.24843680162E+02  0.46261295544E+02  0.14862751851E+03  0.15770080903E+03  0.47000000000E+01 0.  1.
         11    1    6    6    0    0 -0.53939741211E+02 -0.76554391470E+02  0.15254979862E+03  0.17900142903E+03  0.00000000000E+00 0. -1.
        -12    1    6    6    0    0  0.17428630750E+02 -0.13231953294E+02  0.46866157561E+01  0.22378698020E+02  0.00000000000E+00 0.  1.
<mgrwt>
<rscale>  2 0.18845192E+03</rscale>
<asrwt>0</asrwt>
<pdfrwt beam="1">  1       21 0.63156415E-01 0.18856514E+03</pdfrwt>
<pdfrwt beam="2">  1       21 0.21616615E-01 0.18856514E+03</pdfrwt>
<totfact> 0.46382366E+04</totfact>
</mgrwt>
</event>
<event>
12    1  0.1074575E-001  0.1751642E+03  0.7546771E-02  0.1173458E+00
         21   -1    0    0  501  502  0.00000000000E+00  0.00000000000E+00  0.47787665734E+02  0.47787665734E+02  0.00000000000E+00 0.  1.
         21   -1    0    0  502  503 -0.00000000000E+00 -0.00000000000E+00 -0.15412615044E+04  0.15412615044E+04  0.00000000000E+00 0.  1.
         -6    2    1    2    0  503 -0.18002096901E+02  0.16579478302E+02 -0.13548178490E+04  0.13656482022E+04  0.16989600839E+03 0.  0.
        -24    2    3    3    0    0 -0.42744853653E+02 -0.38306278320E+02 -0.60312191531E+03  0.61153049455E+03  0.83180572066E+02 0.  0.
          6    2    1    2  501    0  0.18002096901E+02 -0.16579478302E+02 -0.13865598968E+03  0.22340096792E+03  0.17344611383E+03 0.  0.
         24    2    5    5    0    0  0.31708891363E+02 -0.50358661801E+02 -0.23161562623E+02  0.10219881393E+03  0.79791547017E+02 0.  0.
          5    1    5    5  501    0 -0.13706794462E+02  0.33779183500E+02 -0.11549442705E+03  0.12120215399E+03  0.47000000000E+01 0. -1.
        -11    1    6    6    0    0  0.18475697741E+02 -0.67505262661E+02 -0.34190895979E+02  0.77893062989E+02  0.00000000000E+00 0.  1.
         12    1    6    6    0    0  0.13233193623E+02  0.17146600860E+02  0.11029333356E+02  0.24305750940E+02  0.00000000000E+00 0. -1.
         -5    1    3    3    0  503  0.24742756752E+02  0.54885756621E+02 -0.75169593366E+03  0.75411770764E+03  0.47000000000E+01 0.  1.
         13    1    4    4    0    0 -0.33143239397E+02 -0.22268660674E+02 -0.58182704710E+03  0.58319557638E+03  0.00000000000E+00 0. -1.
        -14    1    4    4    0    0 -0.96016142558E+01 -0.16037617646E+02 -0.21294868206E+02  0.28334918175E+02  0.00000000000E+00 0.  1.
<mgrwt>
<rscale>  2 0.17427890E+03</rscale>
<asrwt>0</asrwt>
<pdfrwt beam="1">  1       21 0.73519490E-02 0.17516423E+03</pdfrwt>
<pdfrwt beam="2">  1       21 0.23711714E+00 0.17516423E+03</pdfrwt>
<totfact> 0.11197404E+04</totfact>
</mgrwt>
</event>
<event>
12    1  0.1074575E-001  0.1772904E+03  0.7546771E-02  0.1170769E+00
         21   -1    0    0  503  502  0.00000000000E+00  0.00000000000E+00  0.47569478890E+03  0.47569478890E+03  0.00000000000E+00 0. -1.
         21   -1    0    0  501  503 -0.00000000000E+00 -0.00000000000E+00 -0.11004953806E+03  0.11004953806E+03  0.00000000000E+00 0. -1.
          6    2    1    2  501    0 -0.34185410465E+02 -0.17115634590E+02 -0.37043229715E+01  0.17604811305E+03  0.17180695231E+03 0.  0.
         24    2    3    3    0    0 -0.30131311856E+02 -0.39696210342E+02  0.56630678123E+02  0.11132778800E+03  0.81872813601E+02 0.  0.
         -6    2    1    2    0  502  0.34185410465E+02  0.17115634590E+02  0.36934957382E+03  0.40969621392E+03  0.17311930217E+03 0.  0.
        -24    2    5    5    0    0  0.64952158795E+02  0.33678395583E+02  0.35586534461E+03  0.37194926315E+03  0.79706295899E+02 0.  0.
          5    1    3    3  501    0 -0.40540986086E+01  0.22580575753E+02 -0.60335001094E+02  0.64720325045E+02  0.47000000000E+01 0. -1.
        -11    1    4    4    0    0  0.21688770514E+02 -0.49506507659E+00  0.37958795036E+02  0.43720910060E+02  0.00000000000E+00 0.  1.
         12    1    4    4    0    0 -0.51820082370E+02 -0.39201145266E+02  0.18671883087E+02  0.67606877942E+02  0.00000000000E+00 0. -1.
         -5    1    5    5    0  502 -0.30766748330E+02 -0.16562760993E+02  0.13484229207E+02  0.37746950762E+02  0.47000000000E+01 0.  1.
         13    1    6    6    0    0  0.59209834024E+02 -0.74299086535E+01  0.27080431938E+03  0.27730125745E+03  0.00000000000E+00 0. -1.
        -14    1    6    6    0    0  0.57423247714E+01  0.41108304236E+02  0.85061025226E+02  0.94648005703E+02  0.00000000000E+00 0.  1.
<mgrwt>
<rscale>  2 0.17696920E+03</rscale>
<asrwt>0</asrwt>
<pdfrwt beam="1">  1       21 0.73183813E-01 0.17729038E+03</pdfrwt>
<pdfrwt beam="2">  1       21 0.16930698E-01 0.17729038E+03</pdfrwt>
<totfact> 0.53166170E+04</totfact>
</mgrwt>
</event>
<event>
12    1  0.1074575E-001  0.2240147E+03  0.7546771E-02  0.1131440E+00
         21   -1    0    0  501  502  0.00000000000E+00  0.00000000000E+00  0.20303858393E+03  0.20303858393E+03  0.00000000000E+00 0.  1.
         21   -1    0    0  502  503 -0.00000000000E+00 -0.00000000000E+00 -0.27643268014E+03  0.27643268014E+03  0.00000000000E+00 0.  1.
         -6    2    1    2    0  503 -0.13760086858E+03 -0.97647988396E+01 -0.11892934525E+03  0.25362721666E+03  0.17650276355E+03 0.  0.
        -24    2    3    3    0    0 -0.35695604296E+02  0.23613729201E+02  0.27938121489E+01  0.91339120768E+02  0.80642700994E+02 0.  0.
          6    2    1    2  501    0  0.13760086858E+03  0.97647988396E+01  0.45535249032E+02  0.22584404741E+03  0.17292404262E+03 0.  0.
         24    2    5    5    0    0  0.48995213078E+02  0.67692718930E+02  0.36504673668E+02  0.11949440047E+03  0.77223606770E+02 0.  0.
          5    1    5    5  501    0  0.88605655501E+02 -0.57927920090E+02  0.90305753639E+01  0.10634964694E+03  0.47000000000E+01 0. -1.
        -11    1    6    6    0    0  0.17699480170E+02 -0.10970691306E+02  0.27299823627E+02  0.34335230247E+02  0.00000000000E+00 0.  1.
         12    1    6    6    0    0  0.31295732908E+02  0.78663410236E+02  0.92048500408E+01  0.85159170220E+02  0.00000000000E+00 0. -1.
         -5    1    3    3    0  503 -0.10190526428E+03 -0.33378528040E+02 -0.12172315740E+03  0.16228809589E+03  0.47000000000E+01 0.  1.
         11    1    4    4    0    0  0.20748721892E+02  0.23227015845E+01 -0.17962436681E+02  0.27541850597E+02  0.00000000000E+00 0. -1.
        -12    1    4    4    0    0 -0.56444326188E+02  0.21291027616E+02  0.20756248830E+02  0.63797270171E+02  0.00000000000E+00 0.  1.
<mgrwt>
<rscale>  2 0.22330917E+03</rscale>
<asrwt>0</asrwt>
<pdfrwt beam="1">  1       21 0.31236706E-01 0.22401468E+03</pdfrwt>
<pdfrwt beam="2">  1       21 0.42528104E-01 0.22401468E+03</pdfrwt>
<totfact> 0.51621795E+04</totfact>
</mgrwt>
</event>
<event>
12    1  0.1074575E-001  0.1781227E+03  0.7546771E-02  0.1170013E+00
         21   -1    0    0  503  502  0.00000000000E+00  0.00000000000E+00  0.18634466460E+04  0.18634466460E+04  0.00000000000E+00 0. -1.
         21   -1    0    0  501  503 -0.00000000000E+00 -0.00000000000E+00 -0.17438468277E+02  0.17438468277E+02  0.00000000000E+00 0. -1.
          6    2    1    2  501    0 -0.10543169111E+02  0.35040662932E+02  0.75064368863E+03  0.77113240604E+03  0.17274326007E+03 0.  0.
         24    2    3    3    0    0  0.51467640313E+02  0.40509166890E+02  0.33946272425E+03  0.35523924610E+03  0.81670497815E+02 0.  0.
         -6    2    1    2    0  502  0.10543169111E+02 -0.35040662932E+02  0.10953644891E+04  0.11097527083E+04  0.17432355832E+03 0.  0.
        -24    2    5    5    0    0  0.34464812171E+02 -0.73933251747E+01  0.26976674764E+03  0.28333251185E+03  0.79124772380E+02 0.  0.
          5    1    3    3  501    0 -0.62010809424E+02 -0.54685039587E+01  0.41118096438E+03  0.41589315995E+03  0.47000000000E+01 0. -1.
        -13    1    4    4    0    0  0.43632147531E+02  0.48936386548E+02  0.13130342730E+03  0.14676213492E+03  0.00000000000E+00 0.  1.
         14    1    4    4    0    0  0.78354927823E+01 -0.84272196574E+01  0.20815929695E+03  0.20847711117E+03  0.00000000000E+00 0. -1.
         -5    1    5    5    0  502 -0.23921643059E+02 -0.27647337757E+02  0.82559774150E+03  0.82642019643E+03  0.47000000000E+01 0.  1.
         13    1    6    6    0    0  0.26151064142E+02  0.34808812338E+02  0.14139964864E+03  0.14795064112E+03  0.00000000000E+00 0. -1.
        -14    1    6    6    0    0  0.83137480289E+01 -0.42202137513E+02  0.12836709900E+03  0.13538187073E+03  0.00000000000E+00 0.  1.
<mgrwt>
<rscale>  2 0.17773490E+03</rscale>
<asrwt>0</asrwt>
<pdfrwt beam="1">  1       21 0.28668394E+00 0.17812274E+03</pdfrwt>
<pdfrwt beam="2">  1       21 0.26828427E-02 0.17812274E+03</pdfrwt>
<totfact> 0.31416152E+04</totfact>
</mgrwt>
</event>
<event>
12    1  0.1074575E-001  0.2162693E+03  0.7546771E-02  0.1137405E+00
         21   -1    0    0  503  502  0.00000000000E+00  0.00000000000E+00  0.20686325494E+03  0.20686325494E+03  0.00000000000E+00 0.  1.
         21   -1    0    0  501  503 -0.00000000000E+00 -0.00000000000E+00 -0.22914666473E+03  0.22914666473E+03  0.00000000000E+00 0.  1.
          6    2    1    2  501    0 -0.11653981354E+03 -0.47846465912E+02 -0.48834639217E+02  0.21811687691E+03  0.17122890400E+03 0.  0.
         24    2    3    3    0    0 -0.13203104217E+03  0.61672541866E+01 -0.43768023430E+02  0.16150220815E+03  0.81835763829E+02 0.  0.
         -6    2    1    2    0  502  0.11653981354E+03  0.47846465912E+02  0.26551229426E+02  0.21789304277E+03  0.17578850321E+03 0.  0.
        -24    2    5    5    0    0  0.12738606663E+03  0.65829278774E+02 -0.20637510021E+02  0.16602889431E+03  0.81110930273E+02 0.  0.
          5    1    3    3  501    0  0.15491228629E+02 -0.54013720099E+02 -0.50666157869E+01  0.56614668761E+02  0.47000000000E+01 0. -1.
        -13    1    4    4    0    0 -0.11330014798E+03 -0.66587786128E+01 -0.64684069770E+02  0.13063419057E+03  0.00000000000E+00 0.  1.
         14    1    4    4    0    0 -0.18730894190E+02  0.12826032799E+02  0.20916046340E+02  0.30868017575E+02  0.00000000000E+00 0. -1.
         -5    1    5    5    0  502 -0.10846253092E+02 -0.17982812862E+02  0.47188739447E+02  0.51864148457E+02  0.47000000000E+01 0.  1.
         11    1    6    6    0    0  0.11737702125E+02  0.25066259035E+02 -0.32669359254E+02  0.42817963838E+02  0.00000000000E+00 0. -1.
        -12    1    6    6    0    0  0.11564836451E+03  0.40763019739E+02  0.12031849234E+02  0.12321093047E+03  0.00000000000E+00 0.  1.
<mgrwt>
<rscale>  2 0.21534095E+03</rscale>
<asrwt>0</asrwt>
<pdfrwt beam="1">  1       21 0.31825116E-01 0.21626930E+03</pdfrwt>
<pdfrwt beam="2">  1       21 0.35253333E-01 0.21626930E+03</pdfrwt>
<totfact> 0.72901224E+04</totfact>
</mgrwt>
</event>
<event>
12    1  0.1074575E-001  0.3288309E+03  0.7546771E-02  0.1071747E+00
         21   -1    0    0  501  502  0.00000000000E+00  0.00000000000E+00  0.30871840170E+03  0.30871840170E+03  0.00000000000E+00 0. -1.
         21   -1    0    0  502  503 -0.00000000000E+00 -0.00000000000E+00 -0.10033621125E+04  0.10033621125E+04  0.00000000000E+00 0.  1.
         -6    2    1    2    0  503 -0.45401596727E+02  0.27506673475E+03 -0.87681539147E+03  0.93615993788E+03  0.17282125164E+03 0.  0.
        -24    2    3    3    0    0 -0.30482177817E+02  0.65020483928E+02 -0.20351121200E+03  0.23067951672E+03  0.81482510581E+02 0.  0.
          6    2    1    2  501    0  0.45401596727E+02 -0.27506673475E+03  0.18217168070E+03  0.37592057630E+03  0.17437529896E+03 0.  0.
         24    2    5    5    0    0 -0.25470756061E+02 -0.16555822255E+03  0.54944929710E+02  0.19364676908E+03  0.80136392508E+02 0.  0.
          5    1    5    5  501    0  0.70872352788E+02 -0.10950851219E+03  0.12722675099E+03  0.18227380722E+03  0.47000000000E+01 0. -1.
        -11    1    6    6    0    0 -0.28524695620E+02 -0.18871194394E+02 -0.60882250532E+01  0.34739699515E+02  0.00000000000E+00 0.  1.
         12    1    6    6    0    0  0.30539395587E+01 -0.14668702816E+03  0.61033154763E+02  0.15890706956E+03  0.00000000000E+00 0. -1.
         -5    1    3    3    0  503 -0.14919418911E+02  0.21004625082E+03 -0.67330417947E+03  0.70548042115E+03  0.47000000000E+01 0.  1.
         11    1    4    4    0    0 -0.55661270465E+02  0.48753337064E+02 -0.11074200485E+03  0.13318729873E+03  0.00000000000E+00 0. -1.
        -12    1    4    4    0    0  0.25179092648E+02  0.16267146865E+02 -0.92769207157E+02  0.97492217998E+02  0.00000000000E+00 0.  1.
<mgrwt>
<rscale>  2 0.32862534E+03</rscale>
<asrwt>0</asrwt>
<pdfrwt beam="1">  1       21 0.47495138E-01 0.32883090E+03</pdfrwt>
<pdfrwt beam="2">  1       21 0.15436340E+00 0.32883090E+03</pdfrwt>
<totfact> 0.10542995E+03</totfact>
</mgrwt>
</event>
<event>
12    1  0.1074575E-001  0.1942483E+03  0.7546771E-02  0.1156426E+00
         21   -1    0    0  503  502  0.00000000000E+00  0.00000000000E+00  0.88649662323E+02  0.88649662323E+02  0.00000000000E+00 0.  1.
         21   -1    0    0  501  503 -0.00000000000E+00 -0.00000000000E+00 -0.59880177785E+03  0.59880177785E+03  0.00000000000E+00 0. -1.
          6    2    1    2  501    0 -0.67693835012E+02 -0.14738415575E+02 -0.44512895792E+03  0.48260899110E+03  0.17312415463E+03 0.  0.
         24    2    3    3    0    0  0.98605434314E+01 -0.46882698536E+02 -0.17463851506E+03  0.19935097051E+03  0.83348549869E+02 0.  0.
         -6    2    1    2    0  502  0.67693835012E+02  0.14738415575E+02 -0.65023157602E+02  0.20484244907E+03  0.18147380452E+03 0.  0.
        -24    2    5    5    0    0  0.14487892751E+02  0.26211480504E+01 -0.10678706511E+03  0.13596564286E+03  0.82863799754E+02 0.  0.
          5    1    3    3  501    0 -0.77554378443E+02  0.32144282961E+02 -0.27049044287E+03  0.28325802059E+03  0.47000000000E+01 0. -1.
        -11    1    4    4    0    0 -0.19831721900E+02 -0.21496573713E+02 -0.11215861313E+02  0.31324039011E+02  0.00000000000E+00 0.  1.
         12    1    4    4    0    0  0.29692265332E+02 -0.25386124822E+02 -0.16342265374E+03  0.16802693150E+03  0.00000000000E+00 0. -1.
         -5    1    5    5    0  502  0.53205942260E+02  0.12117267525E+02  0.41763907507E+02  0.68876806215E+02  0.47000000000E+01 0.  1.
         13    1    6    6    0    0 -0.23669759070E+02  0.28696519892E+02 -0.38739618875E+02  0.53707595542E+02  0.00000000000E+00 0. -1.
        -14    1    6    6    0    0  0.38157651821E+02 -0.26075371842E+02 -0.68047446235E+02  0.82258047316E+02  0.00000000000E+00 0.  1.
<mgrwt>
<rscale>  2 0.19227426E+03</rscale>
<asrwt>0</asrwt>
<pdfrwt beam="1">  1       21 0.13638410E-01 0.19424834E+03</pdfrwt>
<pdfrwt beam="2">  1       21 0.92123348E-01 0.19424834E+03</pdfrwt>
<totfact> 0.46362616E+04</totfact>
</mgrwt>
</event>
<event>
12    1  0.1074575E-001  0.2046105E+03  0.7546771E-02  0.1145916E+00
         21   -1    0    0  501  502  0.00000000000E+00  0.00000000000E+00  0.75782975193E+03  0.75782975193E+03  0.00000000000E+00 0.  1.
         21   -1    0    0  502  503 -0.00000000000E+00 -0.00000000000E+00 -0.61295638130E+03  0.61295638130E+03  0.00000000000E+00 0.  1.
         -6    2    1    2    0  503 -0.10080990594E+03 -0.43402752720E+02 -0.58134954963E+03  0.61628949823E+03  0.17262389952E+03 0.  0.
        -24    2    3    3    0    0 -0.19647337722E+02  0.26815776190E+02 -0.35221701100E+03  0.36322465566E+03  0.82281370372E+02 0.  0.
          6    2    1    2  501    0  0.10080990594E+03  0.43402752720E+02  0.72622292026E+03  0.75449663500E+03  0.17268180630E+03 0.  0.
         24    2    5    5    0    0  0.76816644971E+02 -0.25001299083E+02  0.32133667592E+03  0.34314550551E+03  0.89250864187E+02 0.  0.
          5    1    5    5  501    0  0.23993260969E+02  0.68404051803E+02  0.40488624434E+03  0.41135112949E+03  0.47000000000E+01 0. -1.
        -11    1    6    6    0    0 -0.10373871729E+01 -0.40314169567E+02  0.12647340938E+03  0.13274724751E+03  0.00000000000E+00 0.  1.
         12    1    6    6    0    0  0.77854032144E+02  0.15312870484E+02  0.19486326654E+03  0.21039825800E+03  0.00000000000E+00 0. -1.
         -5    1    3    3    0  503 -0.81162568218E+02 -0.70218528911E+02 -0.22913253864E+03  0.25306484257E+03  0.47000000000E+01 0.  1.
         13    1    4    4    0    0 -0.39614084926E+01 -0.20334944811E+02 -0.25999509401E+02  0.33244205913E+02  0.00000000000E+00 0. -1.
        -14    1    4    4    0    0 -0.15685929230E+02  0.47150721001E+02 -0.32621750159E+03  0.32998044974E+03  0.00000000000E+00 0.  1.
<mgrwt>
<rscale>  2 0.20459825E+03</rscale>
<asrwt>0</asrwt>
<pdfrwt beam="1">  1       21 0.11658919E+00 0.20461046E+03</pdfrwt>
<pdfrwt beam="2">  1       21 0.94300982E-01 0.20461046E+03</pdfrwt>
<totfact> 0.52741367E+02</totfact>
</mgrwt>
</event>
<event>
12    1  0.1074575E-001  0.3418743E+03  0.7546771E-02  0.1066051E+00
         21   -1    0    0  501  502  0.00000000000E+00  0.00000000000E+00  0.28648495206E+03  0.28648495206E+03  0.00000000000E+00 0. -1.
         21   -1    0    0  502  503 -0.00000000000E+00 -0.00000000000E+00 -0.48941240256E+03  0.48941240256E+03  0.00000000000E+00 0. -1.
         -6    2    1    2    0  503  0.20481840029E+03  0.21154200185E+03 -0.26020842995E+03  0.42925753162E+03  0.17278022396E+03 0.  0.
        -24    2    3    3    0    0  0.98107130072E+02  0.19266485615E+03 -0.16516362268E+03  0.28503809045E+03  0.84987851979E+02 0.  0.
          6    2    1    2  501    0 -0.20481840029E+03 -0.21154200185E+03  0.57280979446E+02  0.34663982300E+03  0.17371661014E+03 0.  0.
         24    2    5    5    0    0 -0.74312465525E+02 -0.16837494615E+03  0.89769586895E+01  0.20086409756E+03  0.79958332128E+02 0.  0.
          5    1    5    5  501    0 -0.13050593477E+03 -0.43167055704E+02  0.48304020756E+02  0.14577572544E+03  0.47000000000E+01 0. -1.
        -11    1    6    6    0    0 -0.21878283469E+02 -0.10037096369E+03 -0.29334556172E+02  0.10683401062E+03  0.00000000000E+00 0.  1.
         12    1    6    6    0    0 -0.52434182056E+02 -0.68003982463E+02  0.38311514861E+02  0.94030086939E+02  0.00000000000E+00 0. -1.
         -5    1    3    3    0  503  0.10671127022E+03  0.18877145697E+02 -0.95044807272E+02  0.14421944117E+03  0.47000000000E+01 0.  1.
         11    1    4    4    0    0  0.88822341301E+02  0.84714685366E+02 -0.73130104056E+02  0.14287756419E+03  0.00000000000E+00 0. -1.
        -12    1    4    4    0    0  0.92847887711E+01  0.10795017079E+03 -0.92033518620E+02  0.14216052626E+03  0.00000000000E+00 0.  1.
<mgrwt>
<rscale>  2 0.34175555E+03</rscale>
<asrwt>0</asrwt>
<pdfrwt beam="1">  1       21 0.44074608E-01 0.34187433E+03</pdfrwt>
<pdfrwt beam="2">  1       21 0.75294215E-01 0.34187433E+03</pdfrwt>
<totfact> 0.71747979E+03</totfact>
</mgrwt>
</event>
<event>
12    1  0.1074575E-001  0.2625195E+03  0.7546771E-02  0.1105796E+00
         21   -1    0    0  503  502  0.00000000000E+00  0.00000000000E+00  0.34053118741E+03  0.34053118741E+03  0.00000000000E+00 0.  1.
         21   -1    0    0  501  503 -0.00000000000E+00 -0.00000000000E+00 -0.30826475321E+03  0.30826475321E+03  0.00000000000E+00 0.  1.
          6    2    1    2  501    0 -0.11292567257E+03  0.16259412218E+03 -0.17469936614E+03  0.31533526688E+03  0.17241637369E+03 0.  0.
         24    2    3    3    0    0 -0.14477739291E+03  0.10538835156E+03 -0.13589780954E+03  0.23908119764E+03  0.81390455750E+02 0.  0.
         -6    2    1    2    0  502  0.11292567257E+03 -0.16259412218E+03  0.20696580034E+03  0.33346067374E+03  0.17079848457E+03 0.  0.
        -24    2    5    5    0    0  0.18390318720E+02 -0.16717438722E+02  0.38631463901E+02  0.91436958525E+02  0.79061057424E+02 0.  0.
          5    1    3    3  501    0  0.31851720341E+02  0.57205770622E+02 -0.38801556602E+02  0.76254069241E+02  0.47000000000E+01 0. -1.
        -13    1    4    4    0    0 -0.18777507081E+02  0.59589469093E+02 -0.47708626018E+02  0.78610511991E+02  0.00000000000E+00 0.  1.
         14    1    4    4    0    0 -0.12599988583E+03  0.45798882468E+02 -0.88189183518E+02  0.16047068565E+03  0.00000000000E+00 0. -1.
         -5    1    5    5    0  502  0.94535353846E+02 -0.14587668346E+03  0.16833433644E+03  0.24202371522E+03  0.47000000000E+01 0.  1.
         11    1    6    6    0    0  0.70186360663E+00 -0.45900720594E+02  0.10214010038E+02  0.47028658971E+02  0.00000000000E+00 0. -1.
        -12    1    6    6    0    0  0.17688455114E+02  0.29183281872E+02  0.28417453863E+02  0.44408299553E+02  0.00000000000E+00 0.  1.
<mgrwt>
<rscale>  2 0.26225411E+03</rscale>
<asrwt>0</asrwt>
<pdfrwt beam="1">  1       21 0.52389413E-01 0.26251945E+03</pdfrwt>
<pdfrwt beam="2">  1       21 0.47425347E-01 0.26251945E+03</pdfrwt>
<totfact> 0.14124440E+04</totfact>
</mgrwt>
</event>
<event>
12    1  0.1074575E-001  0.2548276E+03  0.7546771E-02  0.1110420E+00
         21   -1    0    0  501  502  0.00000000000E+00  0.00000000000E+00  0.27160360769E+04  0.27160360769E+04  0.00000000000E+00 0. -1.
         21   -1    0    0  502  503 -0.00000000000E+00 -0.00000000000E+00 -0.27879851911E+02  0.27879851911E+02  0.00000000000E+00 0. -1.
         -6    2    1    2    0  503 -0.60937017127E+02 -0.17519396844E+03  0.82311694339E+03  0.86166038075E+03  0.17473082901E+03 0.  0.
        -24    2    3    3    0    0  0.29674229384E+02 -0.11422301487E+03  0.53858273402E+03  0.55684951893E+03  0.77990822132E+02 0.  0.
          6    2    1    2  501    0  0.60937017127E+02  0.17519396844E+03  0.18650392815E+04  0.18822555480E+04  0.17351708761E+03 0.  0.
         24    2    5    5    0    0  0.21733263411E+02  0.18554163332E+03  0.17074243137E+04  0.17194410015E+04  0.79256155150E+02 0.  0.
          5    1    5    5  501    0  0.39203753716E+02 -0.10347664880E+02  0.15761496781E+03  0.16281454650E+03  0.47000000000E+01 0. -1.
        -11    1    6    6    0    0  0.35692804766E+02  0.67758514189E+02  0.45365026961E+03  0.46006929877E+03  0.00000000000E+00 0.  1.
         12    1    6    6    0    0 -0.13959541355E+02  0.11778311914E+03  0.12537740441E+04  0.12593717027E+04  0.00000000000E+00 0. -1.
         -5    1    3    3    0  503 -0.90611246511E+02 -0.60970953570E+02  0.28453420938E+03  0.30481086181E+03  0.47000000000E+01 0.  1.
         13    1    4    4    0    0 -0.17125279953E+02 -0.83732382914E+02  0.33750936454E+03  0.34816225860E+03  0.00000000000E+00 0. -1.
        -14    1    4    4    0    0  0.46799509337E+02 -0.30490631960E+02  0.20107336948E+03  0.20868726033E+03  0.00000000000E+00 0.  1.
<mgrwt>
<rscale>  2 0.25461968E+03</rscale>
<asrwt>0</asrwt>
<pdfrwt beam="1">  1       21 0.41785150E+00 0.25482761E+03</pdfrwt>
<pdfrwt beam="2">  1       21 0.42892101E-02 0.25482761E+03</pdfrwt>
<totfact> 0.21657669E+03</totfact>
</mgrwt>
</event>
<event>
12    1  0.1074575E-001  0.2144069E+03  0.7546771E-02  0.1138237E+00
         21   -1    0    0  503  502  0.00000000000E+00  0.00000000000E+00  0.29596133258E+03  0.29596133258E+03  0.00000000000E+00 0.  1.
         21   -1    0    0  501  503 -0.00000000000E+00 -0.00000000000E+00 -0.20588506943E+03  0.20588506943E+03  0.00000000000E+00 0.  1.
          6    2    1    2  501    0 -0.71685946238E+01  0.12335351918E+03 -0.79785326782E+02  0.22877062422E+03  0.17522220377E+03 0.  0.
         24    2    3    3    0    0 -0.96014590646E+01  0.15687174943E+03 -0.53740271868E+02  0.18599416488E+03  0.83695153773E+02 0.  0.
         -6    2    1    2    0  502  0.71685946238E+01 -0.12335351918E+03  0.16986158993E+03  0.27307577779E+03  0.17449911529E+03 0.  0.
        -24    2    5    5    0    0  0.13406695247E+02 -0.29693206461E+02  0.97383554446E+01  0.87407502900E+02  0.80522108821E+02 0.  0.
          5    1    3    3  501    0  0.24328644408E+01 -0.33518230245E+02 -0.26045054914E+02  0.42776459340E+02  0.47000000000E+01 0. -1.
        -13    1    4    4    0    0  0.12734132424E+02  0.35664260121E+02 -0.49956657807E+02  0.62687839633E+02  0.00000000000E+00 0.  1.
         14    1    4    4    0    0 -0.22335591488E+02  0.12120748931E+03 -0.37836140606E+01  0.12330632525E+03  0.00000000000E+00 0. -1.
         -5    1    5    5    0  502 -0.62381006231E+01 -0.93660312723E+02  0.16012323449E+03  0.18566827489E+03  0.47000000000E+01 0.  1.
         11    1    6    6    0    0 -0.69365812070E+01 -0.22499149546E+02 -0.32408624851E+02  0.40058043560E+02  0.00000000000E+00 0. -1.
        -12    1    6    6    0    0  0.20343276454E+02 -0.71940569147E+01  0.42146980295E+02  0.47349459340E+02  0.00000000000E+00 0.  1.
<mgrwt>
<rscale>  2 0.21425907E+03</rscale>
<asrwt>0</asrwt>
<pdfrwt beam="1">  1       21 0.45532513E-01 0.21440686E+03</pdfrwt>
<pdfrwt beam="2">  1       21 0.31674626E-01 0.21440686E+03</pdfrwt>
<totfact> 0.43849149E+04</totfact>
</mgrwt>
</event>
<event>
12    1  0.1074575E-001  0.2394997E+03  0.7546771E-02  0.1120359E+00
         21   -1    0    0  501  502  0.00000000000E+00  0.00000000000E+00  0.68048435809E+03  0.68048435809E+03  0.00000000000E+00 0. -1.
         21   -1    0    0  502  503 -0.00000000000E+00 -0.00000000000E+00 -0.85315764691E+02  0.85315764691E+02  0.00000000000E+00 0. -1.
         -6    2    1    2    0  503 -0.15789221518E+03  0.28651269255E+02  0.24748609430E+03  0.34439723941E+03  0.17778988946E+03 0.  0.
        -24    2    3    3    0    0 -0.11101283148E+03  0.85385637870E+02  0.12666566370E+03  0.20284819615E+03  0.74085385954E+02 0.  0.
          6    2    1    2  501    0  0.15789221518E+03 -0.28651269255E+02  0.34768249911E+03  0.42140288338E+03  0.17591595461E+03 0.  0.
         24    2    5    5    0    0  0.17117178857E+03 -0.57912198349E+02  0.24531671060E+03  0.31400924438E+03  0.75946778318E+02 0.  0.
          5    1    5    5  501    0 -0.13279573384E+02  0.29260929094E+02  0.10236578850E+03  0.10739363899E+03  0.47000000000E+01 0. -1.
        -13    1    6    6    0    0  0.10613728334E+03  0.39475965185E+01  0.12950837540E+03  0.16749067357E+03  0.00000000000E+00 0.  1.
         14    1    6    6    0    0  0.65034505230E+02 -0.61859794867E+02  0.11580833520E+03  0.14651857081E+03  0.00000000000E+00 0. -1.
         -5    1    3    3    0  503 -0.46879383709E+02 -0.56734368615E+02  0.12082043059E+03  0.14154904326E+03  0.47000000000E+01 0.  1.
         11    1    4    4    0    0 -0.86633050425E+02  0.22615352678E+02  0.86198536512E+02  0.12428566812E+03  0.00000000000E+00 0. -1.
        -12    1    4    4    0    0 -0.24379781050E+02  0.62770285191E+02  0.40467127189E+02  0.78562528027E+02  0.00000000000E+00 0.  1.
<mgrwt>
<rscale>  2 0.23915197E+03</rscale>
<asrwt>0</asrwt>
<pdfrwt beam="1">  1       21 0.10468990E+00 0.23949967E+03</pdfrwt>
<pdfrwt beam="2">  1       21 0.13125503E-01 0.23949967E+03</pdfrwt>
<totfact> 0.35879828E+04</totfact>
</mgrwt>
</event>
<event>
12    1  0.1074575E-001  0.2671697E+03  0.7546771E-02  0.1102952E+00
         21   -1    0    0  503  502  0.00000000000E+00  0.00000000000E+00  0.55922703128E+02  0.55922703128E+02  0.00000000000E+00 0. -1.
         21   -1    0    0  501  503 -0.00000000000E+00 -0.00000000000E+00 -0.12927543769E+04  0.12927543769E+04  0.00000000000E+00 0. -1.
          6    2    1    2  501    0  0.41172376059E+02 -0.19964776106E+03 -0.69766718459E+03  0.74707374111E+03  0.17269997436E+03 0.  0.
         24    2    3    3    0    0  0.90368013580E+02 -0.12934898926E+03 -0.52613775727E+03  0.55522337622E+03  0.80959983806E+02 0.  0.
         -6    2    1    2    0  502 -0.41172376059E+02  0.19964776106E+03 -0.53916448922E+03  0.60160333897E+03  0.17226095892E+03 0.  0.
        -24    2    5    5    0    0 -0.63654815915E+02  0.50713320161E+02 -0.26526129317E+03  0.28898219669E+03  0.80767443438E+02 0.  0.
          5    1    3    3  501    0 -0.49195637521E+02 -0.70298771806E+02 -0.17152942732E+03  0.19185036489E+03  0.47000000000E+01 0. -1.
        -13    1    4    4    0    0  0.97757737962E+02 -0.77801789618E+02 -0.35541551637E+03  0.37673582665E+03  0.00000000000E+00 0.  1.
         14    1    4    4    0    0 -0.73897243815E+01 -0.51547199640E+02 -0.17072224089E+03  0.17848754957E+03  0.00000000000E+00 0. -1.
         -5    1    5    5    0  502  0.22482439856E+02  0.14893444090E+03 -0.27390319606E+03  0.31262114228E+03  0.47000000000E+01 0.  1.
         13    1    6    6    0    0 -0.27620906740E+02  0.68522086613E+02 -0.15743756154E+03  0.17391025452E+03  0.00000000000E+00 0. -1.
        -14    1    6    6    0    0 -0.36033909174E+02 -0.17808766452E+02 -0.10782373162E+03  0.11507194216E+03  0.00000000000E+00 0.  1.
<mgrwt>
<rscale>  2 0.26709883E+03</rscale>
<asrwt>0</asrwt>
<pdfrwt beam="1">  1       21 0.86034928E-02 0.26716975E+03</pdfrwt>
<pdfrwt beam="2">  1       21 0.19888529E+00 0.26716975E+03</pdfrwt>
<totfact> 0.13698662E+04</totfact>
</mgrwt>
</event>
<event>
12    1  0.1074575E-001  0.1861461E+03  0.7546771E-02  0.1162558E+00
         21   -1    0    0  503  502  0.00000000000E+00  0.00000000000E+00  0.86354067771E+02  0.86354067771E+02  0.00000000000E+00 0.  1.
         21   -1    0    0  501  503 -0.00000000000E+00 -0.00000000000E+00 -0.18794770018E+04  0.18794770018E+04  0.00000000000E+00 0.  1.
          6    2    1    2  501    0  0.26745515529E+02  0.57349581647E+02 -0.17685576227E+04  0.17780710086E+04  0.17244172873E+03 0.  0.
         24    2    3    3    0    0  0.80098354766E+02  0.60971631837E+02 -0.13275536310E+04  0.13338117877E+04  0.80758624645E+02 0.  0.
         -6    2    1    2    0  502 -0.26745515529E+02 -0.57349581647E+02 -0.24565311289E+02  0.18776006090E+03  0.17506024344E+03 0.  0.
        -24    2    5    5    0    0 -0.40135965178E+01  0.35163838633E+02 -0.27556001253E+02  0.92332039331E+02  0.80704818800E+02 0.  0.
          5    1    3    3  501    0 -0.53352839237E+02 -0.36220501901E+01 -0.44100399170E+03  0.44425922095E+03  0.47000000000E+01 0. -1.
        -11    1    4    4    0    0 -0.81245179460E+01  0.20820313906E+02 -0.51703519017E+03  0.51751800078E+03  0.00000000000E+00 0.  1.
         12    1    4    4    0    0  0.88222872712E+02  0.40151317931E+02 -0.81051844084E+03  0.81629378691E+03  0.00000000000E+00 0. -1.
         -5    1    5    5    0  502 -0.22731919011E+02 -0.92513420280E+02  0.29906899648E+01  0.95428021568E+02  0.47000000000E+01 0.  1.
         11    1    6    6    0    0  0.92234653559E+01 -0.27631611416E+01 -0.46806821579E+02  0.47786880198E+02  0.00000000000E+00 0. -1.
        -12    1    6    6    0    0 -0.13237061874E+02  0.37926999775E+02  0.19250820326E+02  0.44545159133E+02  0.00000000000E+00 0.  1.
<mgrwt>
<rscale>  2 0.18552797E+03</rscale>
<asrwt>0</asrwt>
<pdfrwt beam="1">  1       21 0.13285243E-01 0.18614614E+03</pdfrwt>
<pdfrwt beam="2">  1       21 0.28915027E+00 0.18614614E+03</pdfrwt>
<totfact> 0.19426307E+03</totfact>
</mgrwt>
</event>
<event>
12    1  0.1074575E-001  0.2032894E+03  0.7546771E-02  0.1147819E+00
         21   -1    0    0  503  502  0.00000000000E+00  0.00000000000E+00  0.98248022968E+02  0.98248022968E+02  0.00000000000E+00 0. -1.
         21   -1    0    0  501  503 -0.00000000000E+00 -0.00000000000E+00 -0.42866759147E+03  0.42866759147E+03  0.00000000000E+00 0. -1.
          6    2    1    2  501    0  0.85723610522E+02  0.52583911728E+02 -0.21483077208E+03  0.29306234374E+03  0.17210366502E+03 0.  0.
         24    2    3    3    0    0 -0.16871396093E+02  0.31145242886E+02 -0.64539678354E+02  0.10977335128E+03  0.81425723263E+02 0.  0.
         -6    2    1    2    0  502 -0.85723610522E+02 -0.52583911728E+02 -0.11558879642E+03  0.23385327069E+03  0.17667194792E+03 0.  0.
        -24    2    5    5    0    0 -0.11234662116E+02 -0.36619895121E+02  0.67384310620E+01  0.89667647818E+02  0.80793850387E+02 0.  0.
          5    1    3    3  501    0  0.10259500661E+03  0.21438668842E+02 -0.15029109373E+03  0.18328899246E+03  0.47000000000E+01 0. -1.
        -13    1    4    4    0    0  0.12393802853E+02 -0.12465263054E+02  0.87285414789E+01  0.19625915737E+02  0.00000000000E+00 0.  1.
         14    1    4    4    0    0 -0.29265198946E+02  0.43610505940E+02 -0.73268219833E+02  0.90147435544E+02  0.00000000000E+00 0. -1.
         -5    1    5    5    0  502 -0.74488948406E+02 -0.15964016607E+02 -0.12232722748E+03  0.14418562287E+03  0.47000000000E+01 0.  1.
         11    1    6    6    0    0  0.12360144047E+02  0.22361599708E+02  0.54697322603E+01  0.26129146051E+02  0.00000000000E+00 0. -1.
        -12    1    6    6    0    0 -0.23594806163E+02 -0.58981494829E+02  0.12686988018E+01  0.63538501767E+02  0.00000000000E+00 0.  1.
<mgrwt>
<rscale>  2 0.20229277E+03</rscale>
<asrwt>0</asrwt>
<pdfrwt beam="1">  1       21 0.15115080E-01 0.20328941E+03</pdfrwt>
<pdfrwt beam="2">  1       21 0.65948861E-01 0.20328941E+03</pdfrwt>
<totfact> 0.81317022E+04</totfact>
</mgrwt>
</event>
<event>
12    1  0.1074575E-001  0.3141104E+03  0.7546771E-02  0.1078486E+00
         21   -1    0    0  503  502  0.00000000000E+00  0.00000000000E+00  0.13677065233E+03  0.13677065233E+03  0.00000000000E+00 0.  1.
         21   -1    0    0  501  503 -0.00000000000E+00 -0.00000000000E+00 -0.99598645974E+03  0.99598645974E+03  0.00000000000E+00 0.  1.
          6    2    1    2  501    0  0.21644835624E+03  0.14833196264E+03 -0.72837606242E+03  0.79321942837E+03  0.17266473634E+03 0.  0.
         24    2    3    3    0    0  0.22333735643E+03  0.14766674180E+03 -0.57504808884E+03  0.63966338542E+03  0.82485760969E+02 0.  0.
         -6    2    1    2    0  502 -0.21644835624E+03 -0.14833196264E+03 -0.13083974499E+03  0.33953768370E+03  0.17121488757E+03 0.  0.
        -24    2    5    5    0    0 -0.51616341269E+02 -0.80062167430E+01 -0.25015560244E+02  0.98536114831E+02  0.79719768434E+02 0.  0.
          5    1    3    3  501    0 -0.68890001866E+01  0.66522083338E+00 -0.15332797358E+03  0.15355604295E+03  0.47000000000E+01 0. -1.
        -13    1    4    4    0    0  0.62727325223E+02  0.59762829728E+02 -0.27338230182E+03  0.28678248917E+03  0.00000000000E+00 0.  1.
         14    1    4    4    0    0  0.16061003121E+03  0.87903912074E+02 -0.30166578702E+03  0.35288089625E+03  0.00000000000E+00 0. -1.
         -5    1    5    5    0  502 -0.16483201497E+03 -0.14032574589E+03 -0.10582418474E+03  0.24100156887E+03  0.47000000000E+01 0.  1.
         13    1    6    6    0    0 -0.17484574671E+02 -0.33591498006E+02 -0.38298008504E+02  0.53859414638E+02  0.00000000000E+00 0. -1.
        -14    1    6    6    0    0 -0.34131766598E+02  0.25585281263E+02  0.13282448260E+02  0.44676700193E+02  0.00000000000E+00 0.  1.
<mgrwt>
<rscale>  2 0.31391160E+03</rscale>
<asrwt>0</asrwt>
<pdfrwt beam="1">  1       21 0.21041639E-01 0.31411045E+03</pdfrwt>
<pdfrwt beam="2">  1       21 0.15322868E+00 0.31411045E+03</pdfrwt>
<totfact> 0.54742469E+03</totfact>
</mgrwt>
</event>
<event>
12    1  0.1074575E-001  0.2339016E+03  0.7546771E-02  0.1124000E+00
         21   -1    0    0  503  502  0.00000000000E+00  0.00000000000E+00  0.98059848103E+03  0.98059848103E+03  0.00000000000E+00 0.  1.
         21   -1    0    0  501  503 -0.00000000000E+00 -0.00000000000E+00 -0.58682383383E+02  0.58682383383E+02  0.00000000000E+00 0. -1.
          6    2    1    2  501    0  0.42552853634E+02  0.14336828810E+03  0.34396397615E+03  0.41595816738E+03  0.17984651438E+03 0.  0.
         24    2    3    3    0    0 -0.90641301609E+01  0.66692514642E+02  0.28994917614E+03  0.30879858604E+03  0.82194841898E+02 0.  0.
         -6    2    1    2    0  502 -0.42552853634E+02 -0.14336828810E+03  0.57795212149E+03  0.62332269703E+03  0.17926884422E+03 0.  0.
        -24    2    5    5    0    0 -0.36169054899E+02 -0.17723713158E+03  0.42661145072E+03  0.46803605860E+03  0.65872763145E+02 0.  0.
          5    1    3    3  501    0  0.51616983795E+02  0.76675773461E+02  0.54014800016E+02  0.10715958134E+03  0.47000000000E+01 0. -1.
        -11    1    4    4    0    0  0.10962674841E+02 -0.16313402390E+02  0.38150032646E+02  0.42915408983E+02  0.00000000000E+00 0.  1.
         12    1    4    4    0    0 -0.20026805002E+02  0.83005917033E+02  0.25179914349E+03  0.26588317706E+03  0.00000000000E+00 0. -1.
         -5    1    5    5    0  502 -0.63837987351E+01  0.33868843472E+02  0.15134067077E+03  0.15528663843E+03  0.47000000000E+01 0.  1.
         11    1    6    6    0    0  0.15753208944E+02 -0.51227447397E+02  0.15773145879E+03  0.16658819901E+03  0.00000000000E+00 0. -1.
        -12    1    6    6    0    0 -0.51922263843E+02 -0.12600968418E+03  0.26887999193E+03  0.30144785959E+03  0.00000000000E+00 0.  1.
<mgrwt>
<rscale>  2 0.23379060E+03</rscale>
<asrwt>0</asrwt>
<pdfrwt beam="1">  1       21 0.15086129E+00 0.23390165E+03</pdfrwt>
<pdfrwt beam="2">  1       21 0.90280597E-02 0.23390165E+03</pdfrwt>
<totfact> 0.27904049E+04</totfact>
</mgrwt>
</event>
<event>
12    1  0.1074575E-001  0.2760399E+03  0.7546771E-02  0.1098958E+00
         21   -1    0    0  501  502  0.00000000000E+00  0.00000000000E+00  0.19877564343E+03  0.19877564343E+03  0.00000000000E+00 0. -1.
         21   -1    0    0  502  503 -0.00000000000E+00 -0.00000000000E+00 -0.94121409253E+03  0.94121409253E+03  0.00000000000E+00 0. -1.
         -6    2    1    2    0  503  0.19081874656E+03 -0.75092867956E+02 -0.81626450303E+03  0.86167612145E+03  0.18478979007E+03 0.  0.
        -24    2    3    3    0    0  0.25637815457E+02 -0.74862166792E+02 -0.35911300460E+03  0.37557492237E+03  0.76372315974E+02 0.  0.
          6    2    1    2  501    0 -0.19081874656E+03  0.75092867956E+02  0.73826053933E+02  0.27831361450E+03  0.17308220278E+03 0.  0.
         24    2    5    5    0    0 -0.22975017784E+02  0.31030232027E+02 -0.54112303784E+00  0.89460231727E+02  0.80697667282E+02 0.  0.
          5    1    5    5  501    0 -0.16784372878E+03  0.44062635929E+02  0.74367176971E+02  0.18885338278E+03  0.47000000000E+01 0. -1.
        -11    1    6    6    0    0 -0.20913290916E+02 -0.24325557909E+02  0.88447174861E+01  0.33276531249E+02  0.00000000000E+00 0.  1.
         12    1    6    6    0    0 -0.20617268681E+01  0.55355789936E+02 -0.93858405240E+01  0.56183700478E+02  0.00000000000E+00 0. -1.
         -5    1    3    3    0  503  0.16518093111E+03 -0.23070116401E+00 -0.45715149844E+03  0.48610119908E+03  0.47000000000E+01 0.  1.
         11    1    4    4    0    0  0.25406957416E+02 -0.61562073392E+02 -0.12991089098E+03  0.14598712943E+03  0.00000000000E+00 0. -1.
        -12    1    4    4    0    0  0.23085804159E+00 -0.13300093400E+02 -0.22920211362E+03  0.22958779294E+03  0.00000000000E+00 0.  1.
<mgrwt>
<rscale>  2 0.27409529E+03</rscale>
<asrwt>0</asrwt>
<pdfrwt beam="1">  1       21 0.30580868E-01 0.27603985E+03</pdfrwt>
<pdfrwt beam="2">  1       21 0.14480217E+00 0.27603985E+03</pdfrwt>
<totfact> 0.31590776E+03</totfact>
</mgrwt>
</event>
<event>
12    1  0.1074575E-001  0.1742679E+03  0.7546771E-02  0.1173685E+00
         21   -1    0    0  501  502  0.00000000000E+00  0.00000000000E+00  0.39760261924E+03  0.39760261924E+03  0.00000000000E+00 0. -1.
         21   -1    0    0  502  503 -0.00000000000E+00 -0.00000000000E+00 -0.12343613227E+03  0.12343613227E+03  0.00000000000E+00 0. -1.
         -6    2    1    2    0  503  0.19887966996E+02 -0.10177993833E+02 -0.24611336387E+02  0.17515223322E+03  0.17196936975E+03 0.  0.
        -24    2    3    3    0    0  0.30834627493E+02 -0.63927951115E+02 -0.45386380670E+02  0.11630854410E+03  0.80188507245E+02 0.  0.
          6    2    1    2  501    0 -0.19887966996E+02  0.10177993833E+02  0.29877782335E+03  0.34588651829E+03  0.17282989619E+03 0.  0.
         24    2    5    5    0    0 -0.65329636108E+02 -0.18679730016E+02  0.12618775240E+03  0.16503537478E+03  0.81831732261E+02 0.  0.
          5    1    5    5  501    0  0.45441669112E+02  0.28857723849E+02  0.17259007095E+03  0.18085114351E+03  0.47000000000E+01 0. -1.
        -11    1    6    6    0    0  0.15216481175E+02 -0.66765117570E+01  0.22944395861E+01  0.16774431782E+02  0.00000000000E+00 0.  1.
         12    1    6    6    0    0 -0.80546117283E+02 -0.12003218259E+02  0.12389331282E+03  0.14826094300E+03  0.00000000000E+00 0. -1.
         -5    1    3    3    0  503 -0.10946660497E+02  0.53749957283E+02  0.20775044283E+02  0.58843689117E+02  0.47000000000E+01 0.  1.
         11    1    4    4    0    0  0.20828279407E+02  0.37355990064E+01 -0.42933672606E+02  0.47865145632E+02  0.00000000000E+00 0. -1.
        -12    1    4    4    0    0  0.10006348086E+02 -0.67663550122E+02 -0.24527080640E+01  0.68443398469E+02  0.00000000000E+00 0.  1.
<mgrwt>
<rscale>  2 0.17405414E+03</rscale>
<asrwt>0</asrwt>
<pdfrwt beam="1">  1       21 0.61169633E-01 0.17426789E+03</pdfrwt>
<pdfrwt beam="2">  1       21 0.18990174E-01 0.17426789E+03</pdfrwt>
<totfact> 0.63718750E+04</totfact>
</mgrwt>
</event>
<event>
12    1  0.1074575E-001  0.1890913E+03  0.7546771E-02  0.1159473E+00
         21   -1    0    0  501  502  0.00000000000E+00  0.00000000000E+00  0.86180985775E+03  0.86180985775E+03  0.00000000000E+00 0.  1.
         21   -1    0    0  502  503 -0.00000000000E+00 -0.00000000000E+00 -0.15744691828E+03  0.15744691828E+03  0.00000000000E+00 0.  1.
         -6    2    1    2    0  503  0.50232414903E+02  0.57624953379E+02 -0.85725845593E+02  0.20685551522E+03  0.17203590560E+03 0.  0.
        -24    2    3    3    0    0  0.17487582622E+02  0.87306975853E+02 -0.10299735414E+03  0.15917279815E+03  0.82457268526E+02 0.  0.
          6    2    1    2  501    0 -0.50232414903E+02 -0.57624953379E+02  0.79008878507E+03  0.81240126081E+03  0.17294967335E+03 0.  0.
         24    2    5    5    0    0 -0.69087760483E+02 -0.61949554036E+02  0.33370105607E+03  0.35557955007E+03  0.80433548394E+02 0.  0.
          5    1    5    5  501    0  0.18855345580E+02  0.43246006574E+01  0.45638772900E+03  0.45682171075E+03  0.47000000000E+01 0. -1.
        -13    1    6    6    0    0 -0.47461125323E+02 -0.75767981846E+02  0.19492979458E+03  0.21445505428E+03  0.00000000000E+00 0.  1.
         14    1    6    6    0    0 -0.21626635160E+02  0.13818427810E+02  0.13877126149E+03  0.14112449578E+03  0.00000000000E+00 0. -1.
         -5    1    3    3    0  503  0.32744832281E+02 -0.29682022474E+02  0.17271508550E+02  0.47682717067E+02  0.47000000000E+01 0.  1.
         11    1    4    4    0    0  0.19071323195E+02  0.64514377218E+01 -0.68241710807E+02  0.71149613568E+02  0.00000000000E+00 0. -1.
        -12    1    4    4    0    0 -0.15837405728E+01  0.80855538131E+02 -0.34755643336E+02  0.88023184584E+02  0.00000000000E+00 0.  1.
<mgrwt>
<rscale>  2 0.18888210E+03</rscale>
<asrwt>0</asrwt>
<pdfrwt beam="1">  1       21 0.13258613E+00 0.18909130E+03</pdfrwt>
<pdfrwt beam="2">  1       21 0.24222603E-01 0.18909130E+03</pdfrwt>
<totfact> 0.66343769E+03</totfact>
</mgrwt>
</event>
<event>
12    1  0.1074575E-001  0.1891702E+03  0.7546771E-02  0.1159371E+00
         21   -1    0    0  503  502  0.00000000000E+00  0.00000000000E+00  0.55341047407E+03  0.55341047407E+03  0.00000000000E+00 0. -1.
         21   -1    0    0  501  503 -0.00000000000E+00 -0.00000000000E+00 -0.74201542632E+02  0.74201542632E+02  0.00000000000E+00 0. -1.
          6    2    1    2  501    0 -0.25194227770E+02  0.71529500565E+02  0.12607932185E+03  0.22733535332E+03  0.17330363213E+03 0.  0.
         24    2    3    3    0    0 -0.45329635561E+02  0.93461486000E+01  0.82703914044E+01  0.92527200744E+02  0.79691637891E+02 0.  0.
         -6    2    1    2    0  502  0.25194227770E+02 -0.71529500565E+02  0.35312960958E+03  0.40027666338E+03  0.17253888696E+03 0.  0.
        -24    2    5    5    0    0  0.61237325791E+02 -0.33306230600E+01  0.23237989404E+03  0.25691427078E+03  0.90793305120E+02 0.  0.
          5    1    3    3  501    0  0.20135407791E+02  0.62183351965E+02  0.11780893045E+03  0.13480815258E+03  0.47000000000E+01 0. -1.
        -13    1    4    4    0    0 -0.56412540275E+02 -0.50059953231E+01  0.30110034285E+02  0.64140851679E+02  0.00000000000E+00 0.  1.
         14    1    4    4    0    0  0.11082904714E+02  0.14352143923E+02 -0.21839642881E+02  0.28386349065E+02  0.00000000000E+00 0. -1.
         -5    1    5    5    0  502 -0.36043098021E+02 -0.68198877505E+02  0.12074971554E+03  0.14336239260E+03  0.47000000000E+01 0.  1.
         13    1    6    6    0    0  0.21343523754E+02 -0.35227367931E+02  0.17635314843E+03  0.18109927227E+03  0.00000000000E+00 0. -1.
        -14    1    6    6    0    0  0.39893802037E+02  0.31896744871E+02  0.56026745619E+02  0.75814998509E+02  0.00000000000E+00 0.  1.
<mgrwt>
<rscale>  2 0.18899488E+03</rscale>
<asrwt>0</asrwt>
<pdfrwt beam="1">  1       21 0.85140070E-01 0.18917021E+03</pdfrwt>
<pdfrwt beam="2">  1       21 0.11415622E-01 0.18917021E+03</pdfrwt>
<totfact> 0.76699906E+04</totfact>
</mgrwt>
</event>
<event>
12    1  0.1074575E-001  0.2096292E+03  0.7546771E-02  0.1141942E+00
         21   -1    0    0  501  502  0.00000000000E+00  0.00000000000E+00  0.18045784995E+03  0.18045784995E+03  0.00000000000E+00 0.  1.
         21   -1    0    0  502  503 -0.00000000000E+00 -0.00000000000E+00 -0.26010591775E+03  0.26010591775E+03  0.00000000000E+00 0. -1.
         -6    2    1    2    0  503 -0.11061442859E+03 -0.39960415852E+02 -0.96292365128E+02  0.23068725077E+03  0.17352809986E+03 0.  0.
        -24    2    3    3    0    0 -0.29147450163E+02  0.23476726275E+02  0.26137740281E+01  0.87629032073E+02  0.79191444738E+02 0.  0.
          6    2    1    2  501    0  0.11061442859E+03  0.39960415852E+02  0.16644297330E+02  0.20987651693E+03  0.17302812799E+03 0.  0.
         24    2    5    5    0    0  0.80531972308E+02 -0.38919451536E+02 -0.12144484654E+02  0.12055758487E+03  0.79915708664E+02 0.  0.
          5    1    5    5  501    0  0.30082456281E+02  0.78879867388E+02  0.28788781984E+02  0.89318932053E+02  0.47000000000E+01 0. -1.
        -13    1    6    6    0    0 -0.74265266190E+01 -0.19860354813E+01  0.18763778003E+02  0.20277499834E+02  0.00000000000E+00 0.  1.
         14    1    6    6    0    0  0.87958498927E+02 -0.36933416055E+02 -0.30908262658E+02  0.10028008504E+03  0.00000000000E+00 0. -1.
         -5    1    3    3    0  503 -0.81466978426E+02 -0.63437142127E+02 -0.98906139156E+02  0.14305821870E+03  0.47000000000E+01 0.  1.
         11    1    4    4    0    0 -0.33090585649E+02  0.50073736929E+02  0.68511384226E+01  0.60409470170E+02  0.00000000000E+00 0. -1.
        -12    1    4    4    0    0  0.39431354854E+01 -0.26597010653E+02 -0.42373643946E+01  0.27219561902E+02  0.00000000000E+00 0.  1.
<mgrwt>
<rscale>  2 0.20952567E+03</rscale>
<asrwt>0</asrwt>
<pdfrwt beam="1">  1       21 0.27762746E-01 0.20962917E+03</pdfrwt>
<pdfrwt beam="2">  1       21 0.40016295E-01 0.20962917E+03</pdfrwt>
<totfact> 0.73994006E+04</totfact>
</mgrwt>
</event>
<event>
12    1  0.1074575E-001  0.2349793E+03  0.7546771E-02  0.1123262E+00
         21   -1    0    0  503  502  0.00000000000E+00  0.00000000000E+00  0.15968320670E+03  0.15968320670E+03  0.00000000000E+00 0.  1.
         21   -1    0    0  501  503 -0.00000000000E+00 -0.00000000000E+00 -0.53070639723E+03  0.53070639723E+03  0.00000000000E+00 0. -1.
          6    2    1    2  501    0 -0.50039137261E+02  0.15029611186E+03 -0.38953333534E+03  0.45468234816E+03  0.17293635212E+03 0.  0.
         24    2    3    3    0    0 -0.19351654056E+02  0.12926722938E+03 -0.38865914985E+03  0.41717515252E+03  0.76776754371E+02 0.  0.
         -6    2    1    2    0  502  0.50039137261E+02 -0.15029611186E+03  0.18510144805E+02  0.23570725577E+03  0.17355819907E+03 0.  0.
        -24    2    5    5    0    0 -0.13559974671E+02 -0.12591867191E+02  0.41679467627E+01  0.83276633246E+02  0.81087593577E+02 0.  0.
          5    1    3    3  501    0 -0.30687483204E+02  0.21028882488E+02 -0.87418548789E+00  0.37507195635E+02  0.47000000000E+01 0.  1.
        -11    1    4    4    0    0 -0.45517730611E+01 -0.10134649834E+02 -0.22376999738E+02  0.24983192000E+02  0.00000000000E+00 0.  1.
         12    1    4    4    0    0 -0.14799880995E+02  0.13940187921E+03 -0.36628215011E+03  0.39219196052E+03  0.00000000000E+00 0. -1.
         -5    1    5    5    0  502  0.63599111932E+02 -0.13770424467E+03  0.14342198042E+02  0.15243062253E+03  0.47000000000E+01 0.  1.
         11    1    6    6    0    0  0.25104626176E+02 -0.22263883212E+02 -0.17571593900E+02  0.37877218263E+02  0.00000000000E+00 0. -1.
        -12    1    6    6    0    0 -0.38664600847E+02  0.96720160210E+01  0.21739540663E+02  0.45399414983E+02  0.00000000000E+00 0.  1.
<mgrwt>
<rscale>  2 0.23486451E+03</rscale>
<asrwt>0</asrwt>
<pdfrwt beam="1">  1       21 0.24566647E-01 0.23497933E+03</pdfrwt>
<pdfrwt beam="2">  1       21 0.81647139E-01 0.23497933E+03</pdfrwt>
<totfact> 0.20075045E+04</totfact>
</mgrwt>
</event>
<event>
12    1  0.1074575E-001  0.1771340E+03  0.7546771E-02  0.1170742E+00
         21   -1    0    0  501  502  0.00000000000E+00  0.00000000000E+00  0.15705429364E+04  0.15705429364E+04  0.00000000000E+00 0.  1.
         21   -1    0    0  502  503 -0.00000000000E+00 -0.00000000000E+00 -0.39449786445E+03  0.39449786445E+03  0.00000000000E+00 0.  1.
         -6    2    1    2    0  503 -0.22391881856E+02 -0.31253238216E+02 -0.36942173140E+03  0.40945599057E+03  0.17234741458E+03 0.  0.
        -24    2    3    3    0    0  0.16475790582E+02  0.29293912620E+01 -0.10176993722E+03  0.13680470955E+03  0.89879783174E+02 0.  0.
          6    2    1    2  501    0  0.22391881856E+02  0.31253238216E+02  0.15454668033E+04  0.15555848103E+04  0.17291125017E+03 0.  0.
         24    2    5    5    0    0 -0.46915505559E+02 -0.75127962775E+01  0.98101924594E+03  0.98555897363E+03  0.81671432123E+02 0.  0.
          5    1    5    5  501    0  0.69307387415E+02  0.38766034493E+02  0.56444755739E+03  0.57002583663E+03  0.47000000000E+01 0. -1.
        -13    1    6    6    0    0 -0.56642759806E+02 -0.33532669006E+02  0.62462309861E+03  0.62808188753E+03  0.00000000000E+00 0.  1.
         14    1    6    6    0    0  0.97272542469E+01  0.26019872728E+02  0.35639614733E+03  0.35747708610E+03  0.00000000000E+00 0. -1.
         -5    1    3    3    0  503 -0.38867672438E+02 -0.34182629478E+02 -0.26765179418E+03  0.27265128103E+03  0.47000000000E+01 0.  1.
         11    1    4    4    0    0  0.27411725416E+02 -0.39077962644E+02 -0.58659857942E+02  0.75627169644E+02  0.00000000000E+00 0. -1.
        -12    1    4    4    0    0 -0.10935934834E+02  0.42007353906E+02 -0.43110079283E+02  0.61177539904E+02  0.00000000000E+00 0.  1.
<mgrwt>
<rscale>  2 0.17699627E+03</rscale>
<asrwt>0</asrwt>
<pdfrwt beam="1">  1       21 0.24162199E+00 0.17713402E+03</pdfrwt>
<pdfrwt beam="2">  1       21 0.60691980E-01 0.17713402E+03</pdfrwt>
<totfact> 0.19281264E+02</totfact>
</mgrwt>
</event>
<event>
12    1  0.1074575E-001  0.2059267E+03  0.7546771E-02  0.1144834E+00
         21   -1    0    0  503  502  0.00000000000E+00  0.00000000000E+00  0.15791592149E+03  0.15791592149E+03  0.00000000000E+00 0.  1.
         21   -1    0    0  501  503 -0.00000000000E+00 -0.00000000000E+00 -0.27134003083E+03  0.27134003083E+03  0.00000000000E+00 0.  1.
          6    2    1    2  501    0 -0.12243110293E+00 -0.11193508309E+03 -0.34858185555E+02  0.20885618657E+03  0.17284772418E+03 0.  0.
         24    2    3    3    0    0  0.29203475321E+01 -0.14873540896E+03 -0.25009223077E+02  0.17035145247E+03  0.79141681875E+02 0.  0.
         -6    2    1    2    0  502  0.12243110293E+00  0.11193508309E+03 -0.78565923785E+02  0.22039976575E+03  0.17284089374E+03 0.  0.
        -24    2    5    5    0    0  0.91812868394E+01  0.14809702003E+03 -0.59035866061E+02  0.17805284490E+03  0.78743626583E+02 0.  0.
          5    1    3    3  501    0 -0.30427786350E+01  0.36800325876E+02 -0.98489624777E+01  0.38504734103E+02  0.47000000000E+01 0. -1.
        -11    1    4    4    0    0 -0.37438712768E+02 -0.65156623151E+02 -0.18009902043E+02  0.77274829834E+02  0.00000000000E+00 0.  1.
         12    1    4    4    0    0  0.40359060300E+02 -0.83578785811E+02 -0.69993210336E+01  0.93076622634E+02  0.00000000000E+00 0. -1.
         -5    1    5    5    0  502 -0.90588557365E+01 -0.36161936940E+02 -0.19530057724E+02  0.42346920847E+02  0.47000000000E+01 0.  1.
         13    1    6    6    0    0 -0.55949155657E+01  0.19768312908E+02  0.18285173171E+02  0.27503396759E+02  0.00000000000E+00 0. -1.
        -14    1    6    6    0    0  0.14776202405E+02  0.12832870712E+03 -0.77321039232E+02  0.15054944814E+03  0.00000000000E+00 0.  1.
<mgrwt>
<rscale>  2 0.20592529E+03</rscale>
<asrwt>0</asrwt>
<pdfrwt beam="1">  1       21 0.24294758E-01 0.20592672E+03</pdfrwt>
<pdfrwt beam="2">  1       21 0.41744619E-01 0.20592672E+03</pdfrwt>
<totfact> 0.87877787E+04</totfact>
</mgrwt>
</event>
<event>
12    1  0.1074575E-001  0.2020965E+03  0.7546771E-02  0.1148155E+00
         21   -1    0    0  503  502  0.00000000000E+00  0.00000000000E+00  0.37555921127E+02  0.37555921127E+02  0.00000000000E+00 0.  1.
         21   -1    0    0  501  503 -0.00000000000E+00 -0.00000000000E+00 -0.17845194879E+04  0.17845194879E+04  0.00000000000E+00 0. -1.
          6    2    1    2  501    0  0.67407382498E+02  0.79307966680E+02 -0.14457495440E+04  0.14598064005E+04  0.17323242836E+03 0.  0.
         24    2    3    3    0    0  0.23863157796E+02 -0.20526263028E+02 -0.82202241284E+03  0.82662349088E+03  0.81208193413E+02 0.  0.
         -6    2    1    2    0  502 -0.67407382498E+02 -0.79307966680E+02 -0.30121402280E+03  0.36226900853E+03  0.17226560370E+03 0.  0.
        -24    2    5    5    0    0  0.10823912012E+02  0.11681098246E+02 -0.75009318890E+02  0.10616394523E+03  0.73421932822E+02 0.  0.
          5    1    3    3  501    0  0.43544224702E+02  0.99834229708E+02 -0.62372713114E+03  0.63318290963E+03  0.47000000000E+01 0. -1.
        -11    1    4    4    0    0  0.34840729797E+02 -0.33161858463E+02 -0.26374098979E+03  0.26809120650E+03  0.00000000000E+00 0.  1.
         12    1    4    4    0    0 -0.10977572000E+02  0.12635595435E+02 -0.55828142306E+03  0.55853228438E+03  0.00000000000E+00 0. -1.
         -5    1    5    5    0  502 -0.78231294510E+02 -0.90989064926E+02 -0.22620470391E+03  0.25610506330E+03  0.47000000000E+01 0.  1.
         11    1    6    6    0    0  0.24918187858E+02 -0.23277762244E+02 -0.51415929335E+02  0.61695770443E+02  0.00000000000E+00 0. -1.
        -12    1    6    6    0    0 -0.14094275846E+02  0.34958860490E+02 -0.23593389555E+02  0.44468174789E+02  0.00000000000E+00 0.  1.
<mgrwt>
<rscale>  2 0.20188912E+03</rscale>
<asrwt>0</asrwt>
<pdfrwt beam="1">  1       21 0.57778347E-02 0.20209647E+03</pdfrwt>
<pdfrwt beam="2">  1       21 0.27454143E+00 0.20209647E+03</pdfrwt>
<totfact> 0.99691746E+03</totfact>
</mgrwt>
</event>
<event>
12    1  0.1074575E-001  0.1969450E+03  0.7546771E-02  0.1152730E+00
         21   -1    0    0  503  502  0.00000000000E+00  0.00000000000E+00  0.67963292674E+02  0.67963292674E+02  0.00000000000E+00 0. -1.
         21   -1    0    0  501  503 -0.00000000000E+00 -0.00000000000E+00 -0.58080434141E+03  0.58080434141E+03  0.00000000000E+00 0. -1.
          6    2    1    2  501    0  0.54869931086E+02 -0.73247501367E+02 -0.30788538226E+03  0.36452448187E+03  0.17236236097E+03 0.  0.
         24    2    3    3    0    0 -0.91092581058E+00  0.11245148120E+01 -0.62170636066E+02  0.10176884009E+03  0.80558143636E+02 0.  0.
         -6    2    1    2    0  502 -0.54869931086E+02  0.73247501367E+02 -0.20495566647E+03  0.28424315221E+03  0.17438875700E+03 0.  0.
        -24    2    5    5    0    0 -0.13973420213E+02 -0.81935163816E+01 -0.30066079517E+02  0.86977793877E+02  0.79992357805E+02 0.  0.
          5    1    3    3  501    0  0.55780856896E+02 -0.74372016179E+02 -0.24571474619E+03  0.26275564177E+03  0.47000000000E+01 0. -1.
        -11    1    4    4    0    0 -0.34726510522E+02 -0.22570457187E+01 -0.57850949868E+02  0.67511163440E+02  0.00000000000E+00 0.  1.
         12    1    4    4    0    0  0.33815584711E+02  0.33815605307E+01 -0.43196861981E+01  0.34257676655E+02  0.00000000000E+00 0. -1.
         -5    1    5    5    0  502 -0.40896510873E+02  0.81441017749E+02 -0.17488958696E+03  0.19726535834E+03  0.47000000000E+01 0.  1.
         11    1    6    6    0    0 -0.63714748781E+01  0.36004279870E+02 -0.10443045841E+02  0.38025794766E+02  0.00000000000E+00 0. -1.
        -12    1    6    6    0    0 -0.76019453345E+01 -0.44197796252E+02 -0.19623033676E+02  0.48951999112E+02  0.00000000000E+00 0.  1.
<mgrwt>
<rscale>  2 0.19649548E+03</rscale>
<asrwt>0</asrwt>
<pdfrwt beam="1">  1       21 0.10455892E-01 0.19694503E+03</pdfrwt>
<pdfrwt beam="2">  1       21 0.89354511E-01 0.19694503E+03</pdfrwt>
<totfact> 0.79953182E+04</totfact>
</mgrwt>
</event>
<event>
12    1  0.1074575E-001  0.1763285E+03  0.7546771E-02  0.1172385E+00
         21   -1    0    0  501  502  0.00000000000E+00  0.00000000000E+00  0.36386621150E+03  0.36386621150E+03  0.00000000000E+00 0. -1.
         21   -1    0    0  502  503 -0.00000000000E+00 -0.00000000000E+00 -0.10299537262E+03  0.10299537262E+03  0.00000000000E+00 0. -1.
         -6    2    1    2    0  503  0.17837192784E+02 -0.26122333378E+02  0.27882769823E+02  0.17467126402E+03  0.16950533878E+03 0.  0.
        -24    2    3    3    0    0 -0.26654184634E+02 -0.63373592979E+02  0.45978307740E+02  0.11370670465E+03  0.78029174383E+02 0.  0.
          6    2    1    2  501    0 -0.17837192784E+02  0.26122333378E+02  0.23298806906E+03  0.29219032010E+03  0.17346815584E+03 0.  0.
         24    2    5    5    0    0 -0.15820747899E+02 -0.17199472509E+02  0.30801493566E+02  0.85351382220E+02  0.76092105519E+02 0.  0.
          5    1    5    5  501    0 -0.20164448852E+01  0.43321805887E+02  0.20218657549E+03  0.20683893788E+03  0.47000000000E+01 0. -1.
        -13    1    6    6    0    0  0.18523694401E+02  0.72167236412E+01 -0.13639089179E+02  0.24108776576E+02  0.00000000000E+00 0.  1.
         14    1    6    6    0    0 -0.34344442299E+02 -0.24416196150E+02  0.44440582746E+02  0.61242605644E+02  0.00000000000E+00 0. -1.
         -5    1    3    3    0  503  0.44491377418E+02  0.37251259601E+02 -0.18095537917E+02  0.60964559367E+02  0.47000000000E+01 0.  1.
         11    1    4    4    0    0  0.25199017970E+02 -0.14536975321E+02  0.30896458548E+00  0.29093119758E+02  0.00000000000E+00 0. -1.
        -12    1    4    4    0    0 -0.51853202604E+02 -0.48836617657E+02  0.45669343154E+02  0.84613584894E+02  0.00000000000E+00 0.  1.
<mgrwt>
<rscale>  2 0.17534606E+03</rscale>
<asrwt>0</asrwt>
<pdfrwt beam="1">  1       21 0.55979417E-01 0.17632851E+03</pdfrwt>
<pdfrwt beam="2">  1       21 0.15845442E-01 0.17632851E+03</pdfrwt>
<totfact> 0.10729938E+05</totfact>
</mgrwt>
</event>
<event>
12    1  0.1074575E-001  0.1786935E+03  0.7546771E-02  0.1169860E+00
         21   -1    0    0  503  502  0.00000000000E+00  0.00000000000E+00  0.85403438431E+02  0.85403438431E+02  0.00000000000E+00 0. -1.
         21   -1    0    0  501  503 -0.00000000000E+00 -0.00000000000E+00 -0.39669434246E+03  0.39669434246E+03  0.00000000000E+00 0.  1.
          6    2    1    2  501    0  0.16747067809E+02 -0.27578703495E+02 -0.22261188957E+03  0.28545999149E+03  0.17575637740E+03 0.  0.
         24    2    3    3    0    0  0.43293507563E+02  0.34220354605E+02 -0.18246277663E+03  0.20698784156E+03  0.80659415006E+02 0.  0.
         -6    2    1    2    0  502 -0.16747067809E+02  0.27578703495E+02 -0.88679014456E+02  0.19663778940E+03  0.17251493688E+03 0.  0.
        -24    2    5    5    0    0  0.32296649011E+02 -0.23231283088E+02 -0.11624706286E+02  0.92012757483E+02  0.82148936038E+02 0.  0.
          5    1    3    3  501    0 -0.26546439754E+02 -0.61799058099E+02 -0.40149112941E+02  0.78472149936E+02  0.47000000000E+01 0. -1.
        -13    1    4    4    0    0 -0.82899164588E+01  0.29183173175E+02 -0.12902794893E+03  0.13254656509E+03  0.00000000000E+00 0.  1.
         14    1    4    4    0    0  0.51583424022E+02  0.50371814298E+01 -0.53434827701E+02  0.74441276467E+02  0.00000000000E+00 0. -1.
         -5    1    5    5    0  502 -0.49043716820E+02  0.50809986582E+02 -0.77054308169E+02  0.10462503192E+03  0.47000000000E+01 0.  1.
         13    1    6    6    0    0  0.29200282049E+02 -0.34777504731E+02 -0.40445629839E+02  0.60811021041E+02  0.00000000000E+00 0. -1.
        -14    1    6    6    0    0  0.30963669623E+01  0.11546221643E+02  0.28820923553E+02  0.31201736442E+02  0.00000000000E+00 0.  1.
<mgrwt>
<rscale>  2 0.17789128E+03</rscale>
<asrwt>0</asrwt>
<pdfrwt beam="1">  1       21 0.13138991E-01 0.17869346E+03</pdfrwt>
<pdfrwt beam="2">  1       21 0.61029899E-01 0.17869346E+03</pdfrwt>
<totfact> 0.12518915E+05</totfact>
</mgrwt>
</event>
<event>
12    1  0.1074575E-001  0.1951377E+03  0.7546771E-02  0.1154387E+00
         21   -1    0    0  501  502  0.00000000000E+00  0.00000000000E+00  0.27567434995E+02  0.27567434995E+02  0.00000000000E+00 0.  1.
         21   -1    0    0  502  503 -0.00000000000E+00 -0.00000000000E+00 -0.13661019575E+04  0.13661019575E+04  0.00000000000E+00 0.  1.
         -6    2    1    2    0  503  0.14786949374E+02 -0.87431775567E+02 -0.66355009101E+03  0.69164836619E+03  0.17382683892E+03 0.  0.
        -24    2    3    3    0    0  0.41734460306E+02  0.91421466305E+01 -0.25159867916E+03  0.26764512739E+03  0.80663962444E+02 0.  0.
          6    2    1    2  501    0 -0.14786949374E+02  0.87431775567E+02 -0.67498443146E+03  0.70202102627E+03  0.17136676852E+03 0.  0.
         24    2    5    5    0    0 -0.44971611663E+02  0.98579566448E+02 -0.34616390049E+03  0.37159642266E+03  0.80709841752E+02 0.  0.
          5    1    5    5  501    0  0.30184662289E+02 -0.11147790881E+02 -0.32882053097E+03  0.33042460361E+03  0.47000000000E+01 0. -1.
        -13    1    6    6    0    0 -0.98700559873E+01  0.94642837068E+02 -0.20386355339E+03  0.22497785005E+03  0.00000000000E+00 0.  1.
         14    1    6    6    0    0 -0.35101555676E+02  0.39367293802E+01 -0.14230034710E+03  0.14661857261E+03  0.00000000000E+00 0. -1.
         -5    1    3    3    0  503 -0.26947510932E+02 -0.96573922197E+02 -0.41195141184E+03  0.42400323880E+03  0.47000000000E+01 0.  1.
         13    1    4    4    0    0 -0.19914053154E+02 -0.15124716424E+02 -0.71508096838E+02  0.75754435338E+02  0.00000000000E+00 0. -1.
        -14    1    4    4    0    0  0.61648513461E+02  0.24266863054E+02 -0.18009058233E+03  0.19189069205E+03  0.00000000000E+00 0.  1.
<mgrwt>
<rscale>  2 0.19458839E+03</rscale>
<asrwt>0</asrwt>
<pdfrwt beam="1">  1       21 0.42411431E-02 0.19513774E+03</pdfrwt>
<pdfrwt beam="2">  1       21 0.21016957E+00 0.19513774E+03</pdfrwt>
<totfact> 0.41043190E+04</totfact>
</mgrwt>
</event>
<event>
12    1  0.1074575E-001  0.2468548E+03  0.7546771E-02  0.1115382E+00
         21   -1    0    0  503  502  0.00000000000E+00  0.00000000000E+00  0.74423756172E+02  0.74423756172E+02  0.00000000000E+00 0. -1.
         21   -1    0    0  501  503 -0.00000000000E+00 -0.00000000000E+00 -0.11175103687E+04  0.11175103687E+04  0.00000000000E+00 0. -1.
          6    2    1    2  501    0 -0.15593479208E+03  0.77630350163E+02 -0.83009657526E+03  0.86589415119E+03  0.17427055451E+03 0.  0.
         24    2    3    3    0    0 -0.84328722228E+02  0.88158287441E+02 -0.33713795709E+03  0.36762860359E+03  0.81274664130E+02 0.  0.
         -6    2    1    2    0  502  0.15593479208E+03 -0.77630350163E+02 -0.21299003730E+03  0.32603997371E+03  0.17491477302E+03 0.  0.
        -24    2    5    5    0    0  0.14499551561E+03 -0.23019600813E+02 -0.90510104790E+02  0.19140927297E+03  0.83017041260E+02 0.  0.
          5    1    3    3  501    0 -0.71606069848E+02 -0.10527937278E+02 -0.49295861817E+03  0.49826554761E+03  0.47000000000E+01 0. -1.
        -11    1    4    4    0    0 -0.90150078425E+01  0.32339347423E+02 -0.19155411616E+03  0.19447386245E+03  0.00000000000E+00 0.  1.
         12    1    4    4    0    0 -0.75313714386E+02  0.55818940018E+02 -0.14558384092E+03  0.17315474113E+03  0.00000000000E+00 0. -1.
         -5    1    5    5    0  502  0.10939276463E+02 -0.54610749349E+02 -0.12247993251E+03  0.13463070074E+03  0.47000000000E+01 0.  1.
         13    1    6    6    0    0  0.12296464879E+03  0.12606342637E+02 -0.82904710347E+02  0.14883687623E+03  0.00000000000E+00 0. -1.
        -14    1    6    6    0    0  0.22030866820E+02 -0.35625943450E+02 -0.76053944427E+01  0.42572396740E+02  0.00000000000E+00 0.  1.
<mgrwt>
<rscale>  2 0.24674074E+03</rscale>
<asrwt>0</asrwt>
<pdfrwt beam="1">  1       21 0.11449810E-01 0.24685483E+03</pdfrwt>
<pdfrwt beam="2">  1       21 0.17192466E+00 0.24685483E+03</pdfrwt>
<totfact> 0.12714010E+04</totfact>
</mgrwt>
</event>
<event>
12    1  0.1074575E-001  0.1752485E+03  0.7546771E-02  0.1172696E+00
         21   -1    0    0  503  502  0.00000000000E+00  0.00000000000E+00  0.61529814577E+02  0.61529814577E+02  0.00000000000E+00 0.  1.
         21   -1    0    0  501  503 -0.00000000000E+00 -0.00000000000E+00 -0.50006115537E+03  0.50006115537E+03  0.00000000000E+00 0.  1.
          6    2    1    2  501    0 -0.82619814128E+01  0.24306917245E+02 -0.24273597736E+03  0.29938738823E+03  0.17335791577E+03 0.  0.
         24    2    3    3    0    0 -0.63752258454E+02 -0.51685466837E+01 -0.19451496779E+03  0.22004427520E+03  0.80575095555E+02 0.  0.
         -6    2    1    2    0  502  0.82619814128E+01 -0.24306917245E+02 -0.19579536343E+03  0.26220358172E+03  0.17249871699E+03 0.  0.
        -24    2    5    5    0    0 -0.12353236784E+02 -0.41659775453E+01 -0.20476660038E+02  0.84469560124E+02  0.80906459280E+02 0.  0.
          5    1    3    3  501    0  0.55490277041E+02  0.29475463928E+02 -0.48221009577E+02  0.79343113025E+02  0.47000000000E+01 0. -1.
        -13    1    4    4    0    0  0.17664158812E+02 -0.19522770758E+01 -0.61877346160E+02  0.64378877438E+02  0.00000000000E+00 0.  1.
         14    1    4    4    0    0 -0.81416417266E+02 -0.32162696079E+01 -0.13263762163E+03  0.15566539776E+03  0.00000000000E+00 0. -1.
         -5    1    5    5    0  502  0.20615218197E+02 -0.20140939699E+02 -0.17531870339E+03  0.17773402159E+03  0.47000000000E+01 0.  1.
         11    1    6    6    0    0 -0.29434155958E+02  0.48577653264E+01 -0.44542294255E+02  0.53609545777E+02  0.00000000000E+00 0. -1.
        -12    1    6    6    0    0  0.17080919174E+02 -0.90237428717E+01  0.24065634217E+02  0.30860014347E+02  0.00000000000E+00 0.  1.
<mgrwt>
<rscale>  2 0.17503569E+03</rscale>
<asrwt>0</asrwt>
<pdfrwt beam="1">  1       21 0.94661248E-02 0.17524855E+03</pdfrwt>
<pdfrwt beam="2">  1       21 0.76932490E-01 0.17524855E+03</pdfrwt>
<totfact> 0.13509077E+05</totfact>
</mgrwt>
</event>
<event>
12    1  0.1074575E-001  0.2132425E+03  0.7546771E-02  0.1139103E+00
         21   -1    0    0  503  502  0.00000000000E+00  0.00000000000E+00  0.32493011889E+03  0.32493011889E+03  0.00000000000E+00 0. -1.
         21   -1    0    0  501  503 -0.00000000000E+00 -0.00000000000E+00 -0.16128097316E+03  0.16128097316E+03  0.00000000000E+00 0.  1.
          6    2    1    2  501    0 -0.26911443802E+02  0.12081652996E+03 -0.72148102791E+01  0.21295872730E+03  0.17314302275E+03 0.  0.
         24    2    3    3    0    0 -0.33042935742E+02  0.12968140394E+02 -0.41295033200E+02  0.99590204692E+02  0.83384176172E+02 0.  0.
         -6    2    1    2    0  502  0.26911443802E+02 -0.12081652996E+03  0.17086395601E+03  0.27325236474E+03  0.17364188335E+03 0.  0.
        -24    2    5    5    0    0 -0.31885293177E+02 -0.19732847391E+02  0.42426995293E+02  0.99490717536E+02  0.81806453041E+02 0.  0.
          5    1    3    3  501    0  0.61314919401E+01  0.10784838956E+03  0.34080222920E+02  0.11336852261E+03  0.47000000000E+01 0. -1.
        -11    1    4    4    0    0 -0.36963393344E+01 -0.17875511600E+02  0.18629486194E+02  0.26081690806E+02  0.00000000000E+00 0.  1.
         12    1    4    4    0    0 -0.29346596408E+02  0.30843651995E+02 -0.59924519394E+02  0.73508513886E+02  0.00000000000E+00 0. -1.
         -5    1    5    5    0  502  0.58796736979E+02 -0.10108368257E+03  0.12843696072E+03  0.17376164721E+03  0.47000000000E+01 0.  1.
         11    1    6    6    0    0  0.25799513148E+02  0.46886782825E+01  0.55581847636E+01  0.26804701091E+02  0.00000000000E+00 0. -1.
        -12    1    6    6    0    0 -0.57684806324E+02 -0.24421525674E+02  0.36868810529E+02  0.72686016446E+02  0.00000000000E+00 0.  1.
<mgrwt>
<rscale>  2 0.21314092E+03</rscale>
<asrwt>0</asrwt>
<pdfrwt beam="1">  1       21 0.49989249E-01 0.21324250E+03</pdfrwt>
<pdfrwt beam="2">  1       21 0.24812457E-01 0.21324250E+03</pdfrwt>
<totfact> 0.58020848E+04</totfact>
</mgrwt>
</event>
<event>
12    1  0.1074575E-001  0.2461566E+03  0.7546771E-02  0.1115845E+00
         21   -1    0    0  503  502  0.00000000000E+00  0.00000000000E+00  0.21614115945E+03  0.21614115945E+03  0.00000000000E+00 0.  1.
         21   -1    0    0  501  503 -0.00000000000E+00 -0.00000000000E+00 -0.36609234697E+03  0.36609234697E+03  0.00000000000E+00 0. -1.
          6    2    1    2  501    0  0.85526923685E+02 -0.15214675445E+03 -0.21630760698E+03  0.32728984795E+03  0.17281832707E+03 0.  0.
         24    2    3    3    0    0 -0.10037096575E+02 -0.51735797037E+02 -0.44442121397E+02  0.10643994990E+03  0.81098858053E+02 0.  0.
         -6    2    1    2    0  502 -0.85526923685E+02  0.15214675445E+03  0.66356419458E+02  0.25494365847E+03  0.17357881503E+03 0.  0.
        -24    2    5    5    0    0 -0.89256053661E+02  0.11821422914E+03  0.10829400622E+03  0.20066498985E+03  0.81225607290E+02 0.  0.
          5    1    3    3  501    0  0.95564020260E+02 -0.10041095741E+03 -0.17186548558E+03  0.22084989806E+03  0.47000000000E+01 0. -1.
        -13    1    4    4    0    0  0.23476776999E+02  0.10737574926E+02 -0.12437613911E+02  0.28655694257E+02  0.00000000000E+00 0.  1.
         14    1    4    4    0    0 -0.33513873574E+02 -0.62473371962E+02 -0.32004507486E+02  0.77784255642E+02  0.00000000000E+00 0. -1.
         -5    1    5    5    0  502  0.37291299756E+01  0.33932525311E+02 -0.41937586766E+02  0.54278668628E+02  0.47000000000E+01 0.  1.
         11    1    6    6    0    0 -0.62519855300E+01  0.74857058186E+01 -0.13270013847E+02  0.16468648463E+02  0.00000000000E+00 0. -1.
        -12    1    6    6    0    0 -0.83004068131E+02  0.11072852332E+03  0.12156402007E+03  0.18419634138E+03  0.00000000000E+00 0.  1.
<mgrwt>
<rscale>  2 0.24602262E+03</rscale>
<asrwt>0</asrwt>
<pdfrwt beam="1">  1       21 0.33252487E-01 0.24615665E+03</pdfrwt>
<pdfrwt beam="2">  1       21 0.56321899E-01 0.24615665E+03</pdfrwt>
<totfact> 0.25114938E+04</totfact>
</mgrwt>
</event>
<event>
12    1  0.1074575E-001  0.2039909E+03  0.7546771E-02  0.1146769E+00
         21   -1    0    0  503  502  0.00000000000E+00  0.00000000000E+00  0.35601096770E+02  0.35601096770E+02  0.00000000000E+00 0. -1.
         21   -1    0    0  501  503 -0.00000000000E+00 -0.00000000000E+00 -0.13025943509E+04  0.13025943509E+04  0.00000000000E+00 0. -1.
          6    2    1    2  501    0 -0.10564574063E+03 -0.10854955916E+02 -0.40899142743E+03  0.45627740817E+03  0.17215177291E+03 0.  0.
         24    2    3    3    0    0 -0.12381724947E+03 -0.41639138516E+02 -0.24792373758E+03  0.29122359772E+03  0.79249448520E+02 0.  0.
         -6    2    1    2    0  502  0.10564574063E+03  0.10854955916E+02 -0.85800182670E+03  0.88191803950E+03  0.17416498266E+03 0.  0.
        -24    2    5    5    0    0  0.11686059156E+03 -0.41290669801E+02 -0.67475810231E+03  0.69101153963E+03  0.82686963886E+02 0.  0.
          5    1    3    3  501    0  0.18171508840E+02  0.30784182600E+02 -0.16106768985E+03  0.16505381045E+03  0.47000000000E+01 0. -1.
        -13    1    4    4    0    0 -0.14579777190E+02  0.10374403671E+02 -0.31341181274E+01  0.18166476017E+02  0.00000000000E+00 0.  1.
         14    1    4    4    0    0 -0.10923747228E+03 -0.52013542187E+02 -0.24478961945E+03  0.27305712170E+03  0.00000000000E+00 0. -1.
         -5    1    5    5    0  502 -0.11214850928E+02  0.52145625717E+02 -0.18324372439E+03  0.19090649987E+03  0.47000000000E+01 0.  1.
         11    1    6    6    0    0  0.66549023900E+02 -0.54539652816E+02 -0.53517608439E+03  0.54204869488E+03  0.00000000000E+00 0. -1.
        -12    1    6    6    0    0  0.50311567657E+02  0.13248983015E+02 -0.13958201791E+03  0.14896284475E+03  0.00000000000E+00 0.  1.
<mgrwt>
<rscale>  2 0.20356052E+03</rscale>
<asrwt>0</asrwt>
<pdfrwt beam="1">  1       21 0.54770921E-02 0.20399092E+03</pdfrwt>
<pdfrwt beam="2">  1       21 0.20039912E+00 0.20399092E+03</pdfrwt>
<totfact> 0.30507138E+04</totfact>
</mgrwt>
</event>
<event>
12    1  0.1074575E-001  0.1891173E+03  0.7546771E-02  0.1162933E+00
         21   -1    0    0  503  502  0.00000000000E+00  0.00000000000E+00  0.16654313098E+03  0.16654313098E+03  0.00000000000E+00 0. -1.
         21   -1    0    0  501  503 -0.00000000000E+00 -0.00000000000E+00 -0.22641371932E+03  0.22641371932E+03  0.00000000000E+00 0. -1.
          6    2    1    2  501    0  0.12199195687E+02 -0.20046629050E+02 -0.10115290584E+03  0.21446971238E+03  0.18765569391E+03 0.  0.
         24    2    3    3    0    0 -0.57173870298E+02  0.28635543676E+00 -0.88673507575E+01  0.97146371909E+02  0.78037518036E+02 0.  0.
         -6    2    1    2    0  502 -0.12199195687E+02  0.20046629050E+02  0.41282317493E+02  0.17848713792E+03  0.17205447089E+03 0.  0.
        -24    2    5    5    0    0 -0.61837098373E+02 -0.25699413002E+02  0.20300542462E+02  0.10764261358E+03  0.81795682461E+02 0.  0.
          5    1    3    3  501    0  0.69373065985E+02 -0.20332984487E+02 -0.92285555082E+02  0.11732334047E+03  0.47000000000E+01 0. -1.
        -11    1    4    4    0    0 -0.59376472631E+02 -0.23921149016E+01 -0.36207993785E+02  0.69586683566E+02  0.00000000000E+00 0.  1.
         12    1    4    4    0    0  0.22026023328E+01  0.26784703384E+01  0.27340643027E+02  0.27559688343E+02  0.00000000000E+00 0. -1.
         -5    1    5    5    0  502  0.49637902687E+02  0.45746042052E+02  0.20981775031E+02  0.70844524348E+02  0.47000000000E+01 0.  1.
         13    1    6    6    0    0 -0.20001007613E+02  0.28844572217E+02 -0.25763734962E+01  0.35194990444E+02  0.00000000000E+00 0. -1.
        -14    1    6    6    0    0 -0.41836090760E+02 -0.54543985220E+02  0.22876915958E+02  0.72447623132E+02  0.00000000000E+00 0.  1.
<mgrwt>
<rscale>  2 0.18512518E+03</rscale>
<asrwt>0</asrwt>
<pdfrwt beam="1">  1       21 0.25622020E-01 0.18911728E+03</pdfrwt>
<pdfrwt beam="2">  1       21 0.34832880E-01 0.18911728E+03</pdfrwt>
<totfact> 0.11495747E+05</totfact>
</mgrwt>
</event>
<event>
12    1  0.1074575E-001  0.1826264E+03  0.7546771E-02  0.1165637E+00
         21   -1    0    0  501  502  0.00000000000E+00  0.00000000000E+00  0.12085327393E+03  0.12085327393E+03  0.00000000000E+00 0. -1.
         21   -1    0    0  502  503 -0.00000000000E+00 -0.00000000000E+00 -0.27522008714E+03  0.27522008714E+03  0.00000000000E+00 0. -1.
         -6    2    1    2    0  503  0.35367109960E+02 -0.40153021969E+02 -0.91977231910E+02  0.20448031920E+03  0.17461183268E+03 0.  0.
        -24    2    3    3    0    0  0.57253963454E+02 -0.14286949875E+02  0.59363639871E+01  0.10076315427E+03  0.81460662729E+02 0.  0.
          6    2    1    2  501    0 -0.35367109960E+02  0.40153021969E+02 -0.62389581299E+02  0.19159304187E+03  0.17306743252E+03 0.  0.
         24    2    5    5    0    0 -0.24066699450E+02 -0.41032206190E+02 -0.57981898948E+02  0.10937225245E+03  0.79608674358E+02 0.  0.
          5    1    5    5  501    0 -0.11300410510E+02  0.81185228159E+02 -0.44076823517E+01  0.82220789419E+02  0.47000000000E+01 0. -1.
        -11    1    6    6    0    0  0.29505313647E+02 -0.13828463212E+02 -0.22427911369E+02  0.39557567375E+02  0.00000000000E+00 0.  1.
         12    1    6    6    0    0 -0.53572013097E+02 -0.27203742978E+02 -0.35553987579E+02  0.69814685075E+02  0.00000000000E+00 0. -1.
         -5    1    3    3    0  503 -0.21886853494E+02 -0.25866072093E+02 -0.97913595897E+02  0.10371716494E+03  0.47000000000E+01 0.  1.
         11    1    4    4    0    0  0.40385748384E+02 -0.12787008599E+02 -0.35964526916E+02  0.55569447161E+02  0.00000000000E+00 0. -1.
        -12    1    4    4    0    0  0.16868215069E+02 -0.14999412764E+01  0.41900890903E+02  0.45193707105E+02  0.00000000000E+00 0.  1.
<mgrwt>
<rscale>  2 0.18225623E+03</rscale>
<asrwt>0</asrwt>
<pdfrwt beam="1">  1       21 0.18592812E-01 0.18262637E+03</pdfrwt>
<pdfrwt beam="2">  1       21 0.42341551E-01 0.18262637E+03</pdfrwt>
<totfact> 0.14237712E+05</totfact>
</mgrwt>
</event>
<event>
12    1  0.1074575E-001  0.2681843E+03  0.7546771E-02  0.1102887E+00
         21   -1    0    0  501  502  0.00000000000E+00  0.00000000000E+00  0.28512171963E+03  0.28512171963E+03  0.00000000000E+00 0. -1.
         21   -1    0    0  502  503 -0.00000000000E+00 -0.00000000000E+00 -0.25805135885E+03  0.25805135885E+03  0.00000000000E+00 0.  1.
         -6    2    1    2    0  503  0.13827119369E+03  0.14973789726E+03 -0.38280986270E+02  0.27090264223E+03  0.17430561316E+03 0.  0.
        -24    2    3    3    0    0  0.13176385759E+03  0.64660036857E+02 -0.67622480576E+02  0.18054999401E+03  0.80516246327E+02 0.  0.
          6    2    1    2  501    0 -0.13827119369E+03 -0.14973789726E+03  0.65351347045E+02  0.27227043624E+03  0.16828556388E+03 0.  0.
         24    2    5    5    0    0 -0.78972058972E+01 -0.59360070283E+02  0.53102878386E+02  0.11309241236E+03  0.79899901353E+02 0.  0.
          5    1    5    5  501    0 -0.13037398779E+03 -0.90377826974E+02  0.12248468659E+02  0.15917802388E+03  0.47000000000E+01 0. -1.
        -13    1    6    6    0    0 -0.18379757983E+01 -0.46703370622E+02 -0.10546460234E+02  0.47914619961E+02  0.00000000000E+00 0.  1.
         14    1    6    6    0    0 -0.60592300989E+01 -0.12656699660E+02  0.63649338620E+02  0.65177792402E+02  0.00000000000E+00 0. -1.
         -5    1    3    3    0  503  0.65073360997E+01  0.85077860399E+02  0.29341494306E+02  0.90352648226E+02  0.47000000000E+01 0.  1.
         13    1    4    4    0    0  0.11257133281E+03  0.50777146565E+02 -0.16997804333E+02  0.12465772715E+03  0.00000000000E+00 0. -1.
        -14    1    4    4    0    0  0.19192524778E+02  0.13882890292E+02 -0.50624676243E+02  0.55892266861E+02  0.00000000000E+00 0.  1.
<mgrwt>
<rscale>  2 0.26721071E+03</rscale>
<asrwt>0</asrwt>
<pdfrwt beam="1">  1       21 0.43864880E-01 0.26818428E+03</pdfrwt>
<pdfrwt beam="2">  1       21 0.39700209E-01 0.26818428E+03</pdfrwt>
<totfact> 0.29444119E+04</totfact>
</mgrwt>
</event>
<event>
12    1  0.1074575E-001  0.2341560E+03  0.7546771E-02  0.1123782E+00
         21   -1    0    0  503  502  0.00000000000E+00  0.00000000000E+00  0.11853336214E+04  0.11853336214E+04  0.00000000000E+00 0. -1.
         21   -1    0    0  501  503 -0.00000000000E+00 -0.00000000000E+00 -0.72613886918E+02  0.72613886918E+02  0.00000000000E+00 0. -1.
          6    2    1    2  501    0  0.79290105392E+02 -0.13664159928E+03  0.17699398663E+03  0.29336899140E+03  0.17257069956E+03 0.  0.
         24    2    3    3    0    0  0.88602859966E+02 -0.24451601935E+02  0.78510483759E+02  0.14372136115E+03  0.77740503990E+02 0.  0.
         -6    2    1    2    0  502 -0.79290105392E+02  0.13664159928E+03  0.93572574789E+03  0.96457851696E+03  0.17283284596E+03 0.  0.
        -24    2    5    5    0    0 -0.12460833571E+02  0.19449109305E+02  0.56186011459E+03  0.56708910447E+03  0.73278399360E+02 0.  0.
          5    1    3    3  501    0 -0.93127545738E+01 -0.11218999734E+03  0.98483502875E+02  0.14964763025E+03  0.47000000000E+01 0. -1.
        -13    1    4    4    0    0  0.33349226526E+02 -0.64954178669E+01  0.78593716439E+02  0.85623207292E+02  0.00000000000E+00 0.  1.
         14    1    4    4    0    0  0.55253633440E+02 -0.17956184068E+02 -0.83232680312E-01  0.58098153863E+02  0.00000000000E+00 0. -1.
         -5    1    5    5    0  502 -0.66829271822E+02  0.11719248997E+03  0.37386563330E+03  0.39748941249E+03  0.47000000000E+01 0.  1.
         13    1    6    6    0    0  0.10890783649E+02  0.36700631299E+02  0.17486468357E+03  0.17900615371E+03  0.00000000000E+00 0. -1.
        -14    1    6    6    0    0 -0.23351617220E+02 -0.17251521994E+02  0.38699543102E+03  0.38808295076E+03  0.00000000000E+00 0.  1.
<mgrwt>
<rscale>  2 0.23410765E+03</rscale>
<asrwt>0</asrwt>
<pdfrwt beam="1">  1       21 0.18235900E+00 0.23415602E+03</pdfrwt>
<pdfrwt beam="2">  1       21 0.11171368E-01 0.23415602E+03</pdfrwt>
<totfact> 0.11338227E+04</totfact>
</mgrwt>
</event>
<event>
12    1  0.1074575E-001  0.2043937E+03  0.7546771E-02  0.1146101E+00
         21   -1    0    0  501  502  0.00000000000E+00  0.00000000000E+00  0.11187729252E+03  0.11187729252E+03  0.00000000000E+00 0.  1.
         21   -1    0    0  502  503 -0.00000000000E+00 -0.00000000000E+00 -0.63945029499E+03  0.63945029499E+03  0.00000000000E+00 0.  1.
         -6    2    1    2    0  503 -0.10841664539E+03 -0.40900612267E+01 -0.50619331344E+03  0.54590151510E+03  0.17322210027E+03 0.  0.
        -24    2    3    3    0    0 -0.17750968952E+01 -0.41134370434E+02 -0.25350336663E+03  0.26910014240E+03  0.80347634373E+02 0.  0.
          6    2    1    2  501    0  0.10841664539E+03  0.40900612267E+01 -0.21379689024E+02  0.20542607241E+03  0.17312389357E+03 0.  0.
         24    2    5    5    0    0 -0.55959745193E+01  0.27333168113E+02 -0.25484881963E+02  0.88901130341E+02  0.80470583180E+02 0.  0.
          5    1    5    5  501    0  0.11401261990E+03 -0.23243106886E+02  0.41051929384E+01  0.11652494207E+03  0.47000000000E+01 0. -1.
        -13    1    6    6    0    0  0.37374302126E+02  0.15676066567E+02 -0.98101592279E+01  0.41699121652E+02  0.00000000000E+00 0.  1.
         14    1    6    6    0    0 -0.42970276646E+02  0.11657101546E+02 -0.15674722735E+02  0.47202008689E+02  0.00000000000E+00 0. -1.
         -5    1    3    3    0  503 -0.10664154849E+03  0.37044309207E+02 -0.25268994682E+03  0.27680137270E+03  0.47000000000E+01 0.  1.
         11    1    4    4    0    0 -0.18599787513E+02  0.14541006741E+02 -0.13550363457E+03  0.13754500338E+03  0.00000000000E+00 0. -1.
        -12    1    4    4    0    0  0.16824690618E+02 -0.55675377175E+02 -0.11799973206E+03  0.13155513902E+03  0.00000000000E+00 0.  1.
<mgrwt>
<rscale>  2 0.20437291E+03</rscale>
<asrwt>0</asrwt>
<pdfrwt beam="1">  1       21 0.17211891E-01 0.20439372E+03</pdfrwt>
<pdfrwt beam="2">  1       21 0.98376970E-01 0.20439372E+03</pdfrwt>
<totfact> 0.25842333E+04</totfact>
</mgrwt>
</event>
<event>
12    1  0.1074575E-001  0.2851826E+03  0.7546771E-02  0.1092898E+00
         21   -1    0    0  501  502  0.00000000000E+00  0.00000000000E+00  0.29621519049E+03  0.29621519049E+03  0.00000000000E+00 0.  1.
         21   -1    0    0  502  503 -0.00000000000E+00 -0.00000000000E+00 -0.88362244347E+03  0.88362244347E+03  0.00000000000E+00 0. -1.
         -6    2    1    2    0  503  0.20352618974E+03  0.99469790995E+02  0.19608849467E+03  0.34605428284E+03  0.17316385216E+03 0.  0.
        -24    2    3    3    0    0  0.11553245353E+03  0.82231728061E+02  0.42739174848E+02  0.16835185652E+03  0.80036901550E+02 0.  0.
          6    2    1    2  501    0 -0.20352618974E+03 -0.99469790995E+02 -0.78349574766E+03  0.83378335113E+03  0.17323954742E+03 0.  0.
         24    2    5    5    0    0 -0.12338093053E+03 -0.99338278470E+02 -0.67916141534E+03  0.70213600869E+03  0.81509502693E+02 0.  0.
          5    1    5    5  501    0 -0.80145259214E+02 -0.13151252430E+00 -0.10433433231E+03  0.13164734243E+03  0.47000000000E+01 0. -1.
        -11    1    6    6    0    0 -0.95001619884E+01  0.64995297109E+01 -0.15441239291E+03  0.15484083456E+03  0.00000000000E+00 0.  1.
         12    1    6    6    0    0 -0.11388076854E+03 -0.10583780818E+03 -0.52474902243E+03  0.54729517413E+03  0.00000000000E+00 0. -1.
         -5    1    3    3    0  503  0.87993736209E+02  0.17238062934E+02  0.15334931983E+03  0.17770242631E+03  0.47000000000E+01 0.  1.
         11    1    4    4    0    0  0.83087875266E+02  0.17492054171E+02  0.13007439450E+01  0.84919131591E+02  0.00000000000E+00 0. -1.
        -12    1    4    4    0    0  0.32444578265E+02  0.64739673890E+02  0.41438430903E+02  0.83432724933E+02  0.00000000000E+00 0.  1.
<mgrwt>
<rscale>  2 0.28517106E+03</rscale>
<asrwt>0</asrwt>
<pdfrwt beam="1">  1       21 0.45571567E-01 0.28518256E+03</pdfrwt>
<pdfrwt beam="2">  1       21 0.13594192E+00 0.28518256E+03</pdfrwt>
<totfact> 0.16547503E+03</totfact>
</mgrwt>
</event>
<event>
12    1  0.1074575E-001  0.1800888E+03  0.7546771E-02  0.1167865E+00
         21   -1    0    0  503  502  0.00000000000E+00  0.00000000000E+00  0.39991950273E+02  0.39991950273E+02  0.00000000000E+00 0.  1.
         21   -1    0    0  501  503 -0.00000000000E+00 -0.00000000000E+00 -0.22663717458E+04  0.22663717458E+04  0.00000000000E+00 0.  1.
          6    2    1    2  501    0 -0.33755899135E+02 -0.37010548366E+02 -0.20388482703E+04  0.20467863193E+04  0.17298186715E+03 0.  0.
         24    2    3    3    0    0 -0.80420848636E+02 -0.59082680729E+02 -0.14241626872E+04  0.14299190301E+04  0.80441263223E+02 0.  0.
         -6    2    1    2    0  502  0.33755899135E+02  0.37010548366E+02 -0.18753152522E+03  0.25957737671E+03  0.17234587356E+03 0.  0.
        -24    2    5    5    0    0 -0.21917584594E+02 -0.33031611334E+02 -0.83153373086E+02  0.12201891798E+03  0.80016654692E+02 0.  0.
          5    1    3    3  501    0  0.46664949501E+02  0.22072132364E+02 -0.61468558306E+03  0.61686728926E+03  0.47000000000E+01 0. -1.
        -13    1    4    4    0    0  0.74199177074E+01  0.41805602340E+01 -0.39253934686E+03  0.39263172451E+03  0.00000000000E+00 0.  1.
         14    1    4    4    0    0 -0.87840766343E+02 -0.63263240963E+02 -0.10316233403E+04  0.10372873055E+04  0.00000000000E+00 0. -1.
         -5    1    5    5    0  502  0.55673483729E+02  0.70042159700E+02 -0.10437815213E+03  0.13755845873E+03  0.47000000000E+01 0.  1.
         11    1    6    6    0    0 -0.35780697727E+02  0.72050220986E+01 -0.10775583314E+02  0.38056324954E+02  0.00000000000E+00 0. -1.
        -12    1    6    6    0    0  0.13863113132E+02 -0.40236633433E+02 -0.72377789772E+02  0.83962593028E+02  0.00000000000E+00 0.  1.
<mgrwt>
<rscale>  2 0.17993588E+03</rscale>
<asrwt>0</asrwt>
<pdfrwt beam="1">  1       21 0.61526099E-02 0.18008878E+03</pdfrwt>
<pdfrwt beam="2">  1       21 0.34867245E+00 0.18008878E+03</pdfrwt>
<totfact> 0.34211512E+03</totfact>
</mgrwt>
</event>
<event>
12    1  0.1074575E-001  0.2387354E+03  0.7546771E-02  0.1120873E+00
         21   -1    0    0  501  502  0.00000000000E+00  0.00000000000E+00  0.51167473898E+03  0.51167473898E+03  0.00000000000E+00 0. -1.
         21   -1    0    0  502  503 -0.00000000000E+00 -0.00000000000E+00 -0.13538444252E+03  0.13538444252E+03  0.00000000000E+00 0.  1.
         -6    2    1    2    0  503  0.27407126952E+02 -0.16208018665E+03  0.49654256303E+02  0.24247827786E+03  0.17119881002E+03 0.  0.
        -24    2    3    3    0    0  0.39233845641E+02 -0.10543317352E+03  0.96167231537E+02  0.16808538682E+03  0.79681316004E+02 0.  0.
          6    2    1    2  501    0 -0.27407126952E+02  0.16208018665E+03  0.32663604016E+03  0.40458090365E+03  0.17312847065E+03 0.  0.
         24    2    5    5    0    0 -0.14457318906E+02  0.19014326421E+03  0.28175359669E+03  0.34988394228E+03  0.81671346378E+02 0.  0.
          5    1    5    5  501    0 -0.12949808046E+02 -0.28063077568E+02  0.44882443472E+02  0.54696961369E+02  0.47000000000E+01 0. -1.
        -11    1    6    6    0    0  0.26135960001E+02  0.11234169343E+03  0.19453587493E+03  0.22615912788E+03  0.00000000000E+00 0.  1.
         12    1    6    6    0    0 -0.40593278907E+02  0.77801570783E+02  0.87217721760E+02  0.12372481440E+03  0.00000000000E+00 0. -1.
         -5    1    3    3    0  503 -0.11826718689E+02 -0.56647013132E+02 -0.46512975234E+02  0.74392891037E+02  0.47000000000E+01 0.  1.
         11    1    4    4    0    0  0.48661549297E+02 -0.82894467374E+02  0.35130185439E+02  0.10234045647E+03  0.00000000000E+00 0. -1.
        -12    1    4    4    0    0 -0.94277036560E+01 -0.22538706142E+02  0.61037046098E+02  0.65744930353E+02  0.00000000000E+00 0.  1.
<mgrwt>
<rscale>  2 0.23838575E+03</rscale>
<asrwt>0</asrwt>
<pdfrwt beam="1">  1       21 0.78719189E-01 0.23873543E+03</pdfrwt>
<pdfrwt beam="2">  1       21 0.20828376E-01 0.23873543E+03</pdfrwt>
<totfact> 0.29791185E+04</totfact>
</mgrwt>
</event>
<event>
12    1  0.1074575E-001  0.2027990E+03  0.7546771E-02  0.1148743E+00
         21   -1    0    0  501  502  0.00000000000E+00  0.00000000000E+00  0.29242128969E+03  0.29242128969E+03  0.00000000000E+00 0. -1.
         21   -1    0    0  502  503 -0.00000000000E+00 -0.00000000000E+00 -0.35250127717E+03  0.35250127717E+03  0.00000000000E+00 0.  1.
         -6    2    1    2    0  503 -0.94688880358E+02  0.76580472502E+01 -0.28240602859E+03  0.34399684046E+03  0.17191867703E+03 0.  0.
        -24    2    3    3    0    0 -0.44677725511E+02 -0.26283617780E+02 -0.58046622507E+02  0.11159119222E+03  0.79976597058E+02 0.  0.
          6    2    1    2  501    0  0.94688880358E+02 -0.76580472502E+01  0.22232604110E+03  0.30092572640E+03  0.17917252721E+03 0.  0.
         24    2    5    5    0    0 -0.13502265373E+02  0.12141677106E+02  0.56177131293E+02  0.10161465463E+03  0.82703908386E+02 0.  0.
          5    1    5    5  501    0  0.10819114573E+03 -0.19799724357E+02  0.16614890981E+03  0.19931107177E+03  0.47000000000E+01 0. -1.
        -13    1    6    6    0    0 -0.34266535678E+02 -0.16409963745E+02  0.54285808958E+02  0.66260330755E+02  0.00000000000E+00 0.  1.
         14    1    6    6    0    0  0.20764270305E+02  0.28551640851E+02  0.18913223349E+01  0.35354323877E+02  0.00000000000E+00 0. -1.
         -5    1    3    3    0  503 -0.50011154847E+02  0.33941665030E+02 -0.22435940608E+03  0.23240564823E+03  0.47000000000E+01 0.  1.
         11    1    4    4    0    0 -0.70149833087E+01  0.15576258701E+02  0.12616057390E+02  0.21236636504E+02  0.00000000000E+00 0. -1.
        -12    1    4    4    0    0 -0.37662742202E+02 -0.41859876481E+02 -0.70662679897E+02  0.90354555720E+02  0.00000000000E+00 0.  1.
<mgrwt>
<rscale>  2 0.20118497E+03</rscale>
<asrwt>0</asrwt>
<pdfrwt beam="1">  1       21 0.44987891E-01 0.20279897E+03</pdfrwt>
<pdfrwt beam="2">  1       21 0.54230966E-01 0.20279897E+03</pdfrwt>
<totfact> 0.15137521E+04</totfact>
</mgrwt>
</event>
<event>
12    1  0.1074575E-001  0.2924006E+03  0.7546771E-02  0.1089496E+00
         21   -1    0    0  503  502  0.00000000000E+00  0.00000000000E+00  0.33549383688E+03  0.33549383688E+03  0.00000000000E+00 0. -1.
         21   -1    0    0  501  503 -0.00000000000E+00 -0.00000000000E+00 -0.46636511078E+03  0.46636511078E+03  0.00000000000E+00 0. -1.
          6    2    1    2  501    0  0.23048063282E+03  0.27050248181E+02 -0.33693632504E+03  0.44414267309E+03  0.17286870423E+03 0.  0.
         24    2    3    3    0    0  0.90160870850E+02  0.80252043914E+00 -0.69226162184E+02  0.14071327421E+03  0.82935742216E+02 0.  0.
         -6    2    1    2    0  502 -0.23048063282E+03 -0.27050248181E+02  0.20606505113E+03  0.35771627456E+03  0.17789066799E+03 0.  0.
        -24    2    5    5    0    0 -0.92970172556E+02 -0.73404041734E+02  0.13189528823E+03  0.19467933216E+03  0.80449170198E+02 0.  0.
          5    1    3    3  501    0  0.14031976197E+03  0.26247727742E+02 -0.26771016286E+03  0.30342939888E+03  0.47000000000E+01 0. -1.
        -11    1    4    4    0    0  0.46646418387E+02  0.40513702883E+02 -0.47466544106E+02  0.77912266550E+02  0.00000000000E+00 0.  1.
         12    1    4    4    0    0  0.43514452463E+02 -0.39711182444E+02 -0.21759618077E+02  0.62801007660E+02  0.00000000000E+00 0. -1.
         -5    1    5    5    0  502 -0.13751046026E+03  0.46353793554E+02  0.74169762907E+02  0.16303694240E+03  0.47000000000E+01 0.  1.
         13    1    6    6    0    0 -0.29369832483E+02  0.15640894703E+02  0.37811534591E+02  0.50368013612E+02  0.00000000000E+00 0. -1.
        -14    1    6    6    0    0 -0.63600340074E+02 -0.89044936437E+02  0.94083753637E+02  0.14431131855E+03  0.00000000000E+00 0.  1.
<mgrwt>
<rscale>  2 0.29164072E+03</rscale>
<asrwt>0</asrwt>
<pdfrwt beam="1">  1       21 0.51614437E-01 0.29240063E+03</pdfrwt>
<pdfrwt beam="2">  1       21 0.71748478E-01 0.29240063E+03</pdfrwt>
<totfact> 0.58771590E+03</totfact>
</mgrwt>
</event>
<event>
12    1  0.1074575E-001  0.2265355E+03  0.7546771E-02  0.1129223E+00
         21   -1    0    0  503  502  0.00000000000E+00  0.00000000000E+00  0.47456256947E+02  0.47456256947E+02  0.00000000000E+00 0.  1.
         21   -1    0    0  501  503 -0.00000000000E+00 -0.00000000000E+00 -0.15814060665E+04  0.15814060665E+04  0.00000000000E+00 0. -1.
          6    2    1    2  501    0 -0.11421810017E+03 -0.89794998270E+02 -0.12256222829E+04  0.12462604457E+04  0.17293409728E+03 0.  0.
         24    2    3    3    0    0 -0.14583097904E+03 -0.86387515526E+02 -0.11273706785E+04  0.11428851449E+04  0.80574998303E+02 0.  0.
         -6    2    1    2    0  502  0.11421810017E+03  0.89794998270E+02 -0.30832752661E+03  0.38260187772E+03  0.17380856438E+03 0.  0.
        -24    2    5    5    0    0  0.81943410006E+02 -0.14470941194E+02 -0.19030438517E+03  0.22177714805E+03  0.77750972998E+02 0.  0.
          5    1    3    3  501    0  0.31612878866E+02 -0.34074827443E+01 -0.98251604390E+02  0.10337530079E+03  0.47000000000E+01 0. -1.
        -13    1    4    4    0    0  0.75287873533E+01 -0.11783630163E+02 -0.15881939165E+03  0.15943379737E+03  0.00000000000E+00 0.  1.
         14    1    4    4    0    0 -0.15335976639E+03 -0.74603885362E+02 -0.96855128688E+03  0.98345134754E+03  0.00000000000E+00 0. -1.
         -5    1    5    5    0  502  0.32274690167E+02  0.10426593946E+03 -0.11802314144E+03  0.16082472967E+03  0.47000000000E+01 0.  1.
         11    1    6    6    0    0  0.59411093385E+02  0.26191907951E+02 -0.13287499914E+03  0.14789002487E+03  0.00000000000E+00 0. -1.
        -12    1    6    6    0    0  0.22532316621E+02 -0.40662849145E+02 -0.57429386030E+02  0.73887123186E+02  0.00000000000E+00 0.  1.
<mgrwt>
<rscale>  2 0.22636776E+03</rscale>
<asrwt>0</asrwt>
<pdfrwt beam="1">  1       21 0.73009629E-02 0.22653550E+03</pdfrwt>
<pdfrwt beam="2">  1       21 0.24329323E+00 0.22653550E+03</pdfrwt>
<totfact> 0.99410509E+03</totfact>
</mgrwt>
</event>
<event>
12    1  0.1074575E-001  0.1894319E+03  0.7546771E-02  0.1159150E+00
         21   -1    0    0  501  502  0.00000000000E+00  0.00000000000E+00  0.78338956800E+03  0.78338956800E+03  0.00000000000E+00 0.  1.
         21   -1    0    0  502  503 -0.00000000000E+00 -0.00000000000E+00 -0.17219810649E+03  0.17219810649E+03  0.00000000000E+00 0.  1.
         -6    2    1    2    0  503  0.26172645939E+02  0.72971928433E+02 -0.10388152108E+03  0.21604587498E+03  0.17284252932E+03 0.  0.
        -24    2    3    3    0    0  0.53309595113E+02 -0.11623244022E+02 -0.75744064760E+02  0.12273690617E+03  0.79687966826E+02 0.  0.
          6    2    1    2  501    0 -0.26172645939E+02 -0.72971928433E+02  0.71507298259E+03  0.73954179951E+03  0.17199649143E+03 0.  0.
         24    2    5    5    0    0 -0.51823364854E+02 -0.89075642141E+02  0.34434585169E+03  0.36754988487E+03  0.76803132256E+02 0.  0.
          5    1    5    5  501    0  0.25650718915E+02  0.16103713709E+02  0.37072713090E+03  0.37199191464E+03  0.47000000000E+01 0. -1.
        -13    1    6    6    0    0 -0.27447619809E+01 -0.52395275312E+02  0.24711769336E+03  0.25262611299E+03  0.00000000000E+00 0.  1.
         14    1    6    6    0    0 -0.49078602873E+02 -0.36680366829E+02  0.97228158329E+02  0.11492377188E+03  0.00000000000E+00 0. -1.
         -5    1    3    3    0  503 -0.27136949174E+02  0.84595172454E+02 -0.28137456317E+02  0.93308968814E+02  0.47000000000E+01 0.  1.
         13    1    4    4    0    0  0.32883272795E+02 -0.97065569142E+00  0.96550108281E+01  0.34285143084E+02  0.00000000000E+00 0. -1.
        -14    1    4    4    0    0  0.20426322318E+02 -0.10652588330E+02 -0.85399075588E+02  0.88451763085E+02  0.00000000000E+00 0.  1.
<mgrwt>
<rscale>  2 0.18923871E+03</rscale>
<asrwt>0</asrwt>
<pdfrwt beam="1">  1       21 0.12052147E+00 0.18943191E+03</pdfrwt>
<pdfrwt beam="2">  1       21 0.26492017E-01 0.18943191E+03</pdfrwt>
<totfact> 0.70995736E+03</totfact>
</mgrwt>
</event>
<event>
12    1  0.1074575E-001  0.2719706E+03  0.7546771E-02  0.1100203E+00
         21   -1    0    0  503  502  0.00000000000E+00  0.00000000000E+00  0.25820471722E+03  0.25820471722E+03  0.00000000000E+00 0. -1.
         21   -1    0    0  501  503 -0.00000000000E+00 -0.00000000000E+00 -0.39589483585E+03  0.39589483585E+03  0.00000000000E+00 0. -1.
          6    2    1    2  501    0  0.20697558910E+03  0.33463085544E+02 -0.24108453218E+03  0.36344155619E+03  0.17323204245E+03 0.  0.
         24    2    3    3    0    0  0.22022214090E+03  0.51775795855E+02 -0.18616498430E+03  0.30386745751E+03  0.80619513621E+02 0.  0.
         -6    2    1    2    0  502 -0.20697558910E+03 -0.33463085544E+02  0.10339441355E+03  0.29065799688E+03  0.17272230262E+03 0.  0.
        -24    2    5    5    0    0 -0.77516513574E+02  0.41477925895E+01 -0.11738216408E+02  0.11331132263E+03  0.81704688061E+02 0.  0.
          5    1    3    3  501    0 -0.13246551801E+02 -0.18312710311E+02 -0.54919547884E+02  0.59574098678E+02  0.47000000000E+01 0. -1.
        -11    1    4    4    0    0  0.17039180327E+02  0.31668027626E+02 -0.26298886430E+02  0.44551420486E+02  0.00000000000E+00 0.  1.
         12    1    4    4    0    0  0.20318296057E+03  0.20107768229E+02 -0.15986609787E+03  0.25931603702E+03  0.00000000000E+00 0. -1.
         -5    1    5    5    0  502 -0.12945907552E+03 -0.37610878133E+02  0.11513262996E+03  0.17734667426E+03  0.47000000000E+01 0.  1.
         13    1    6    6    0    0 -0.75211957812E+02 -0.89828006923E+01  0.20461100706E+02  0.78461365960E+02  0.00000000000E+00 0. -1.
        -14    1    6    6    0    0 -0.23045557626E+01  0.13130593282E+02 -0.32199317114E+02  0.34849956669E+02  0.00000000000E+00 0.  1.
<mgrwt>
<rscale>  2 0.27188948E+03</rscale>
<asrwt>0</asrwt>
<pdfrwt beam="1">  1       21 0.39723803E-01 0.27197061E+03</pdfrwt>
<pdfrwt beam="2">  1       21 0.60906898E-01 0.27197061E+03</pdfrwt>
<totfact> 0.14666586E+04</totfact>
</mgrwt>
</event>
<event>
12    1  0.1074575E-001  0.1764343E+03  0.7546771E-02  0.1171431E+00
         21   -1    0    0  501  502  0.00000000000E+00  0.00000000000E+00  0.62042539207E+03  0.62042539207E+03  0.00000000000E+00 0. -1.
         21   -1    0    0  502  503 -0.00000000000E+00 -0.00000000000E+00 -0.90951668674E+02  0.90951668674E+02  0.00000000000E+00 0. -1.
         -6    2    1    2    0  503 -0.27198370020E+01 -0.29303699331E+02  0.26352601022E+02  0.17839153185E+03  0.17396256709E+03 0.  0.
        -24    2    3    3    0    0 -0.13627898043E+02 -0.38561861281E+02 -0.48764698476E+02  0.10177953513E+03  0.79425066591E+02 0.  0.
          6    2    1    2  501    0  0.27198370020E+01  0.29303699331E+02  0.50312112237E+03  0.53298552889E+03  0.17342608201E+03 0.  0.
         24    2    5    5    0    0  0.68981095894E+02  0.14014076629E+02  0.31634783430E+03  0.33416229552E+03  0.81447538587E+02 0.  0.
          5    1    5    5  501    0 -0.66261258892E+02  0.15289622702E+02  0.18677328807E+03  0.19882323337E+03  0.47000000000E+01 0. -1.
        -11    1    6    6    0    0  0.21845843439E+02 -0.11108979860E+02  0.16384227665E+02  0.29480387128E+02  0.00000000000E+00 0.  1.
         12    1    6    6    0    0  0.47135252456E+02  0.25123056489E+02  0.29996360664E+03  0.30468190839E+03  0.00000000000E+00 0. -1.
         -5    1    3    3    0  503  0.10908061041E+02  0.92581619501E+01  0.75117299498E+02  0.76611996726E+02  0.47000000000E+01 0.  1.
         11    1    4    4    0    0  0.32184292872E+02 -0.53578086285E+01 -0.15211324144E+02  0.35998877804E+02  0.00000000000E+00 0. -1.
        -12    1    4    4    0    0 -0.45812190915E+02 -0.33204052653E+02 -0.33553374332E+02  0.65780657325E+02  0.00000000000E+00 0.  1.
<mgrwt>
<rscale>  2 0.17630196E+03</rscale>
<asrwt>0</asrwt>
<pdfrwt beam="1">  1       21 0.95450058E-01 0.17643435E+03</pdfrwt>
<pdfrwt beam="2">  1       21 0.13992565E-01 0.17643435E+03</pdfrwt>
<totfact> 0.41123449E+04</totfact>
</mgrwt>
</event>
<event>
12    1  0.1074575E-001  0.1853872E+03  0.7546771E-02  0.1162745E+00
         21   -1    0    0  503  502  0.00000000000E+00  0.00000000000E+00  0.11094165125E+03  0.11094165125E+03  0.00000000000E+00 0. -1.
         21   -1    0    0  501  503 -0.00000000000E+00 -0.00000000000E+00 -0.34445080354E+03  0.34445080354E+03  0.00000000000E+00 0. -1.
          6    2    1    2  501    0  0.25736528005E+02  0.62261357097E+02 -0.44033190344E+02  0.19030842137E+03  0.17245152343E+03 0.  0.
         24    2    3    3    0    0 -0.38171719959E+02  0.69851801485E+02 -0.56227963577E+02  0.12463741180E+03  0.77695213219E+02 0.  0.
         -6    2    1    2    0  502 -0.25736528005E+02 -0.62261357097E+02 -0.18947596195E+03  0.26508403342E+03  0.17271235960E+03 0.  0.
        -24    2    5    5    0    0 -0.22884989988E+01 -0.10566283338E+03 -0.13782798742E+03  0.19350818916E+03  0.85317018069E+02 0.  0.
          5    1    3    3  501    0  0.63908247964E+02 -0.75904443882E+01  0.12194773234E+02  0.65671009571E+02  0.47000000000E+01 0. -1.
        -11    1    4    4    0    0 -0.60904596343E+02  0.58498956211E+02 -0.34571457016E+02  0.91250662320E+02  0.00000000000E+00 0.  1.
         12    1    4    4    0    0  0.22732876385E+02  0.11352845274E+02 -0.21656506561E+02  0.33386749482E+02  0.00000000000E+00 0. -1.
         -5    1    5    5    0  502 -0.23448029007E+02  0.43401476287E+02 -0.51647974531E+02  0.71575844258E+02  0.47000000000E+01 0.  1.
         11    1    6    6    0    0 -0.38504232419E+02 -0.53911448660E+02 -0.41035874431E+02  0.77929219174E+02  0.00000000000E+00 0. -1.
        -12    1    6    6    0    0  0.36215733420E+02 -0.51751384724E+02 -0.96792112984E+02  0.11557896999E+03  0.00000000000E+00 0.  1.
<mgrwt>
<rscale>  2 0.18532640E+03</rscale>
<asrwt>0</asrwt>
<pdfrwt beam="1">  1       21 0.17067947E-01 0.18538717E+03</pdfrwt>
<pdfrwt beam="2">  1       21 0.52992431E-01 0.18538717E+03</pdfrwt>
<totfact> 0.10476258E+05</totfact>
</mgrwt>
</event>
<event>
12    1  0.1074575E-001  0.1938353E+03  0.7546771E-02  0.1155205E+00
         21   -1    0    0  501  502  0.00000000000E+00  0.00000000000E+00  0.84397298920E+03  0.84397298920E+03  0.00000000000E+00 0.  1.
         21   -1    0    0  502  503 -0.00000000000E+00 -0.00000000000E+00 -0.44368960641E+02  0.44368960641E+02  0.00000000000E+00 0.  1.
         -6    2    1    2    0  503 -0.81110629037E+02 -0.35345824162E+02  0.40892338169E+03  0.45253780974E+03  0.17246412879E+03 0.  0.
        -24    2    3    3    0    0 -0.10010362752E+03  0.23901318066E+02  0.24135530462E+03  0.27373034818E+03  0.77999430771E+02 0.  0.
          6    2    1    2  501    0  0.81110629037E+02  0.35345824162E+02  0.39068064687E+03  0.43580414010E+03  0.17165552501E+03 0.  0.
         24    2    5    5    0    0  0.89978762242E+02  0.63198938582E+02  0.19216258962E+03  0.23509054110E+03  0.79062115927E+02 0.  0.
          5    1    5    5  501    0 -0.88681332055E+01 -0.27853114420E+02  0.19851805725E+03  0.20071359900E+03  0.47000000000E+01 0. -1.
        -11    1    6    6    0    0  0.17720444989E+02  0.59895085242E+02  0.10044080508E+03  0.11827844576E+03  0.00000000000E+00 0.  1.
         12    1    6    6    0    0  0.72258317253E+02  0.33038533398E+01  0.91721784538E+02  0.11681209534E+03  0.00000000000E+00 0. -1.
         -5    1    3    3    0  503  0.18992998487E+02 -0.59247142228E+02  0.16756807707E+03  0.17880746155E+03  0.47000000000E+01 0.  1.
         11    1    4    4    0    0 -0.62729440879E+02 -0.24941516623E+01  0.60534210630E+02  0.87210057918E+02  0.00000000000E+00 0. -1.
        -12    1    4    4    0    0 -0.37374186645E+02  0.26395469729E+02  0.18082109399E+03  0.18652029027E+03  0.00000000000E+00 0.  1.
<mgrwt>
<rscale>  2 0.19365531E+03</rscale>
<asrwt>0</asrwt>
<pdfrwt beam="1">  1       21 0.12984199E+00 0.19383534E+03</pdfrwt>
<pdfrwt beam="2">  1       21 0.68259946E-02 0.19383534E+03</pdfrwt>
<totfact> 0.68460546E+04</totfact>
</mgrwt>
</event>
<event>
12    1  0.1074575E-001  0.2380095E+03  0.7546771E-02  0.1121402E+00
         21   -1    0    0  501  502  0.00000000000E+00  0.00000000000E+00  0.64648439625E+03  0.64648439625E+03  0.00000000000E+00 0.  1.
         21   -1    0    0  502  503 -0.00000000000E+00 -0.00000000000E+00 -0.28335072854E+03  0.28335072854E+03  0.00000000000E+00 0. -1.
         -6    2    1    2    0  503  0.62237257106E+02 -0.14982791028E+03 -0.20523235654E+03  0.31427513392E+03  0.17414551605E+03 0.  0.
        -24    2    3    3    0    0  0.24050936626E+02 -0.15875586839E+03 -0.20882058368E+03  0.27461572291E+03  0.77626579188E+02 0.  0.
          6    2    1    2  501    0 -0.62237257106E+02  0.14982791028E+03  0.56836602425E+03  0.61555999087E+03  0.17190778333E+03 0.  0.
         24    2    5    5    0    0 -0.42516909545E+02  0.12163063996E+03  0.55992188764E+03  0.57981965505E+03  0.77952626352E+02 0.  0.
          5    1    5    5  501    0 -0.19720347562E+02  0.28197270321E+02  0.84441366136E+01  0.35740335821E+02  0.47000000000E+01 0.  1.
        -11    1    6    6    0    0 -0.23902005257E+02  0.44239992243E+01  0.42480991527E+02  0.48943970676E+02  0.00000000000E+00 0.  1.
         12    1    6    6    0    0 -0.18614904288E+02  0.11720664074E+03  0.51744089611E+03  0.53087568437E+03  0.00000000000E+00 0. -1.
         -5    1    3    3    0  503  0.38186320480E+02  0.89279581132E+01  0.35882271434E+01  0.39659411013E+02  0.47000000000E+01 0.  1.
         13    1    4    4    0    0  0.13706811552E+02  0.24549728670E+01 -0.55942613157E+01  0.15006643008E+02  0.00000000000E+00 0. -1.
        -14    1    4    4    0    0  0.10344125074E+02 -0.16121084126E+03 -0.20322632237E+03  0.25960907990E+03  0.00000000000E+00 0.  1.
<mgrwt>
<rscale>  2 0.23760039E+03</rscale>
<asrwt>0</asrwt>
<pdfrwt beam="1">  1       21 0.99459137E-01 0.23800954E+03</pdfrwt>
<pdfrwt beam="2">  1       21 0.43592420E-01 0.23800954E+03</pdfrwt>
<totfact> 0.40636871E+03</totfact>
</mgrwt>
</event>
<event>
12    1  0.1074575E-001  0.2068620E+03  0.7546771E-02  0.1144332E+00
         21   -1    0    0  503  502  0.00000000000E+00  0.00000000000E+00  0.84551536092E+03  0.84551536092E+03  0.00000000000E+00 0.  1.
         21   -1    0    0  501  503 -0.00000000000E+00 -0.00000000000E+00 -0.99657571317E+02  0.99657571317E+02  0.00000000000E+00 0. -1.
          6    2    1    2  501    0 -0.51141316550E+02  0.10052373868E+03  0.40924996170E+02  0.21087136299E+03  0.17341113033E+03 0.  0.
         24    2    3    3    0    0  0.30124546160E+02  0.62449405208E+02  0.17550222204E+02  0.11801520881E+03  0.93873120326E+02 0.  0.
         -6    2    1    2    0  502  0.51141316550E+02 -0.10052373868E+03  0.70493279343E+03  0.73430156924E+03  0.17189559343E+03 0.  0.
        -24    2    5    5    0    0  0.39190789854E+01  0.12183546152E+02  0.24010867084E+03  0.25365988699E+03  0.80792118914E+02 0.  0.
          5    1    3    3  501    0 -0.81265862709E+02  0.38074333472E+02  0.23374773966E+02  0.92856154181E+02  0.47000000000E+01 0. -1.
        -11    1    4    4    0    0  0.35219468447E+02  0.12485911127E+02  0.46806272689E+02  0.59892704877E+02  0.00000000000E+00 0.  1.
         12    1    4    4    0    0 -0.50949222875E+01  0.49963494081E+02 -0.29256050485E+02  0.58122503936E+02  0.00000000000E+00 0. -1.
         -5    1    5    5    0  502  0.47222237565E+02 -0.11270728483E+03  0.46482412259E+03  0.48064168225E+03  0.47000000000E+01 0.  1.
         13    1    6    6    0    0 -0.26387812303E+02  0.72804098562E+01  0.20583202527E+03  0.20764427185E+03  0.00000000000E+00 0. -1.
        -14    1    6    6    0    0  0.30306891288E+02  0.49031362960E+01  0.34276645569E+02  0.46015615139E+02  0.00000000000E+00 0.  1.
<mgrwt>
<rscale>  2 0.20654404E+03</rscale>
<asrwt>0</asrwt>
<pdfrwt beam="1">  1       21 0.13007928E+00 0.20686197E+03</pdfrwt>
<pdfrwt beam="2">  1       21 0.15331935E-01 0.20686197E+03</pdfrwt>
<totfact> 0.16114189E+04</totfact>
</mgrwt>
</event>
<event>
12    1  0.1074575E-001  0.1921943E+03  0.7546771E-02  0.1157030E+00
         21   -1    0    0  503  502  0.00000000000E+00  0.00000000000E+00  0.19529481323E+03  0.19529481323E+03  0.00000000000E+00 0. -1.
         21   -1    0    0  501  503 -0.00000000000E+00 -0.00000000000E+00 -0.23446716580E+03  0.23446716580E+03  0.00000000000E+00 0. -1.
          6    2    1    2  501    0 -0.77702065425E+02  0.20528919753E+02 -0.11656525644E+03  0.22478010187E+03  0.17458404185E+03 0.  0.
         24    2    3    3    0    0 -0.46762340224E+02  0.70617058658E+02 -0.25572744783E+02  0.11630053959E+03  0.75487514177E+02 0.  0.
         -6    2    1    2    0  502  0.77702065425E+02 -0.20528919753E+02  0.77392903877E+02  0.20498187716E+03  0.17195598529E+03 0.  0.
        -24    2    5    5    0    0  0.10299372603E+03 -0.36798641339E+02  0.92923338694E+02  0.17081089031E+03  0.92627025051E+02 0.  0.
          5    1    3    3  501    0 -0.30939725201E+02 -0.50088138905E+02 -0.90992511660E+02  0.10847956228E+03  0.47000000000E+01 0. -1.
        -11    1    4    4    0    0 -0.52270680266E+02  0.25236128776E+02  0.93256406011E+01  0.58788211265E+02  0.00000000000E+00 0.  1.
         12    1    4    4    0    0  0.55083400422E+01  0.45380929882E+02 -0.34898385385E+02  0.57512328326E+02  0.00000000000E+00 0. -1.
         -5    1    5    5    0  502 -0.25291660605E+02  0.16269721586E+02 -0.15530434817E+02  0.34170986850E+02  0.47000000000E+01 0.  1.
         11    1    6    6    0    0  0.51337639028E+02 -0.37033946969E+02 -0.13465208965E+01  0.63315713118E+02  0.00000000000E+00 0. -1.
        -12    1    6    6    0    0  0.51656087002E+02  0.23530563044E+00  0.94269859591E+02  0.10749517720E+03  0.00000000000E+00 0.  1.
<mgrwt>
<rscale>  2 0.19159545E+03</rscale>
<asrwt>0</asrwt>
<pdfrwt beam="1">  1       21 0.30045356E-01 0.19219426E+03</pdfrwt>
<pdfrwt beam="2">  1       21 0.36071872E-01 0.19219426E+03</pdfrwt>
<totfact> 0.78762387E+04</totfact>
</mgrwt>
</event>
<event>
12    1  0.1074575E-001  0.1968150E+03  0.7546771E-02  0.1153167E+00
         21   -1    0    0  503  502  0.00000000000E+00  0.00000000000E+00  0.40620127149E+03  0.40620127149E+03  0.00000000000E+00 0.  1.
         21   -1    0    0  501  503 -0.00000000000E+00 -0.00000000000E+00 -0.11270339966E+03  0.11270339966E+03  0.00000000000E+00 0.  1.
          6    2    1    2  501    0 -0.19827991122E+02  0.84774246251E+02  0.39413542456E+02  0.19750926464E+03  0.17284866280E+03 0.  0.
         24    2    3    3    0    0 -0.69148339309E+02  0.94501635744E+02  0.34050040408E+02  0.14673549183E+03  0.81607887623E+02 0.  0.
         -6    2    1    2    0  502  0.19827991122E+02 -0.84774246251E+02  0.25408432937E+03  0.32139540651E+03  0.17651158272E+03 0.  0.
        -24    2    5    5    0    0 -0.16320965441E+02  0.70349160931E+01  0.17746935958E+03  0.19638495516E+03  0.82193753199E+02 0.  0.
          5    1    3    3  501    0  0.49320348188E+02 -0.97273894931E+01  0.53635020478E+01  0.50773772815E+02  0.47000000000E+01 0. -1.
        -11    1    4    4    0    0 -0.20609951727E+02  0.25934585282E+02 -0.27123555440E+02  0.42814250941E+02  0.00000000000E+00 0.  1.
         12    1    4    4    0    0 -0.48538387582E+02  0.68567050463E+02  0.61173595848E+02  0.10392124089E+03  0.00000000000E+00 0. -1.
         -5    1    5    5    0  502  0.36148956563E+02 -0.91809162344E+02  0.76614969793E+02  0.12501045135E+03  0.47000000000E+01 0.  1.
         13    1    6    6    0    0  0.10980704201E+02  0.39816544168E+02  0.81874019899E+02  0.91702171123E+02  0.00000000000E+00 0. -1.
        -14    1    6    6    0    0 -0.27301669642E+02 -0.32781628074E+02  0.95595339681E+02  0.10468278403E+03  0.00000000000E+00 0.  1.
<mgrwt>
<rscale>  2 0.19599031E+03</rscale>
<asrwt>0</asrwt>
<pdfrwt beam="1">  1       21 0.62492502E-01 0.19681504E+03</pdfrwt>
<pdfrwt beam="2">  1       21 0.17338985E-01 0.19681504E+03</pdfrwt>
<totfact> 0.71274913E+04</totfact>
</mgrwt>
</event>
<event>
12    1  0.1074575E-001  0.2398875E+03  0.7546771E-02  0.1119906E+00
         21   -1    0    0  501  502  0.00000000000E+00  0.00000000000E+00  0.50708511208E+03  0.50708511208E+03  0.00000000000E+00 0. -1.
         21   -1    0    0  502  503 -0.00000000000E+00 -0.00000000000E+00 -0.18610866789E+03  0.18610866789E+03  0.00000000000E+00 0. -1.
         -6    2    1    2    0  503  0.14346929484E+03  0.82614921915E+02 -0.56138853185E+02  0.24636876075E+03  0.17360107012E+03 0.  0.
        -24    2    3    3    0    0  0.15560468971E+03  0.23234636338E+02 -0.38786679946E+02  0.18315108885E+03  0.85365373661E+02 0.  0.
          6    2    1    2  501    0 -0.14346929484E+03 -0.82614921915E+02  0.37711529737E+03  0.44682501922E+03  0.17328585171E+03 0.  0.
         24    2    5    5    0    0 -0.91051318667E+01 -0.22057668488E+02  0.20110496200E+03  0.21721091383E+03  0.78536177532E+02 0.  0.
          5    1    5    5  501    0 -0.13436416298E+03 -0.60557253426E+02  0.17601033537E+03  0.22961410539E+03  0.47000000000E+01 0. -1.
        -13    1    6    6    0    0 -0.10202538765E+02 -0.42311499794E+02  0.57162757077E+02  0.71846611672E+02  0.00000000000E+00 0.  1.
         14    1    6    6    0    0  0.10974068983E+01  0.20253831306E+02  0.14394220492E+03  0.14536430216E+03  0.00000000000E+00 0. -1.
         -5    1    3    3    0  503 -0.12135394867E+02  0.59380285576E+02 -0.17352173239E+02  0.63217671895E+02  0.47000000000E+01 0.  1.
         13    1    4    4    0    0  0.74715396370E+02  0.15118919860E+02  0.24560818061E+02  0.80088738136E+02  0.00000000000E+00 0. -1.
        -14    1    4    4    0    0  0.80889293340E+02  0.81157164779E+01 -0.63347498007E+02  0.10306235071E+03  0.00000000000E+00 0.  1.
<mgrwt>
<rscale>  2 0.23983044E+03</rscale>
<asrwt>0</asrwt>
<pdfrwt beam="1">  1       21 0.78013094E-01 0.23988746E+03</pdfrwt>
<pdfrwt beam="2">  1       21 0.28632103E-01 0.23988746E+03</pdfrwt>
<totfact> 0.16520722E+04</totfact>
</mgrwt>
</event>
<event>
12    1  0.1074575E-001  0.2199451E+03  0.7546771E-02  0.1134124E+00
         21   -1    0    0  503  502  0.00000000000E+00  0.00000000000E+00  0.15630029081E+03  0.15630029081E+03  0.00000000000E+00 0.  1.
         21   -1    0    0  501  503 -0.00000000000E+00 -0.00000000000E+00 -0.40383060424E+03  0.40383060424E+03  0.00000000000E+00 0.  1.
          6    2    1    2  501    0 -0.48932605464E+02  0.12526419439E+03 -0.25996249779E+03  0.33983476080E+03  0.17268944993E+03 0.  0.
         24    2    3    3    0    0 -0.28209257094E+02 -0.43476996032E+01 -0.71582961891E+02  0.11018798905E+03  0.78756636670E+02 0.  0.
         -6    2    1    2    0  502  0.48932605464E+02 -0.12526419439E+03  0.12432184360E+02  0.22029613425E+03  0.17404111377E+03 0.  0.
        -24    2    5    5    0    0  0.88009860776E+02 -0.89147764736E+02 -0.30671735319E+02  0.15165601285E+03  0.79785533375E+02 0.  0.
          5    1    3    3  501    0 -0.20723348370E+02  0.12961189399E+03 -0.18837953590E+03  0.22964677175E+03  0.47000000000E+01 0. -1.
        -13    1    4    4    0    0 -0.17987505343E+02  0.34593648237E+02 -0.17431297541E+02  0.42709729345E+02  0.00000000000E+00 0.  1.
         14    1    4    4    0    0 -0.10221751751E+02 -0.38941347840E+02 -0.54151664351E+02  0.67478259702E+02  0.00000000000E+00 0. -1.
         -5    1    5    5    0  502 -0.39077255312E+02 -0.36116429653E+02  0.43103919680E+02  0.68640121396E+02  0.47000000000E+01 0.  1.
         13    1    6    6    0    0  0.32556555215E+02 -0.85361085852E+02 -0.82820364152E+01  0.91733507469E+02  0.00000000000E+00 0. -1.
        -14    1    6    6    0    0  0.55453305560E+02 -0.37866788840E+01 -0.22389698904E+02  0.59922505385E+02  0.00000000000E+00 0.  1.
<mgrwt>
<rscale>  2 0.21967757E+03</rscale>
<asrwt>0</asrwt>
<pdfrwt beam="1">  1       21 0.24046199E-01 0.21994506E+03</pdfrwt>
<pdfrwt beam="2">  1       21 0.62127785E-01 0.21994506E+03</pdfrwt>
<totfact> 0.38672497E+04</totfact>
</mgrwt>
</event>
<event>
12    1  0.1074575E-001  0.2134114E+03  0.7546771E-02  0.1140037E+00
         21   -1    0    0  501  502  0.00000000000E+00  0.00000000000E+00  0.25996085172E+03  0.25996085172E+03  0.00000000000E+00 0.  1.
         21   -1    0    0  502  503 -0.00000000000E+00 -0.00000000000E+00 -0.43410131489E+03  0.43410131489E+03  0.00000000000E+00 0.  1.
         -6    2    1    2    0  503  0.73076936210E+02 -0.88888479968E+02 -0.35703507239E+03  0.41300188664E+03  0.17278632751E+03 0.  0.
        -24    2    3    3    0    0  0.29157983395E+02 -0.57805729998E+02 -0.77886309044E+02  0.12867613360E+03  0.79369892315E+02 0.  0.
          6    2    1    2  501    0 -0.73076936210E+02  0.88888479968E+02  0.18289460923E+03  0.28106027997E+03  0.17973047159E+03 0.  0.
         24    2    5    5    0    0  0.14488829656E+01  0.34689678543E+02  0.16623494451E+03  0.18729865548E+03  0.79001623448E+02 0.  0.
          5    1    5    5  501    0 -0.74525819175E+02  0.54198801425E+02  0.16659664718E+02  0.93761624497E+02  0.47000000000E+01 0. -1.
        -13    1    6    6    0    0 -0.26113227096E+02  0.48652137814E+02  0.10068671907E+03  0.11483356016E+03  0.00000000000E+00 0.  1.
         14    1    6    6    0    0  0.27562110061E+02 -0.13962459271E+02  0.65548225442E+02  0.72465095312E+02  0.00000000000E+00 0. -1.
         -5    1    3    3    0  503  0.43918952815E+02 -0.31082749971E+02 -0.27914876335E+03  0.28432575304E+03  0.47000000000E+01 0.  1.
         11    1    4    4    0    0  0.35591452977E+02  0.39932298386E+01 -0.11188154857E+02  0.37521623348E+02  0.00000000000E+00 0. -1.
        -12    1    4    4    0    0 -0.64334695821E+01 -0.61798959836E+02 -0.66698154187E+02  0.91154510254E+02  0.00000000000E+00 0.  1.
<mgrwt>
<rscale>  2 0.21194274E+03</rscale>
<asrwt>0</asrwt>
<pdfrwt beam="1">  1       21 0.39993977E-01 0.21341144E+03</pdfrwt>
<pdfrwt beam="2">  1       21 0.66784818E-01 0.21341144E+03</pdfrwt>
<totfact> 0.12212119E+04</totfact>
</mgrwt>
</event>
<event>
12    1  0.1074575E-001  0.2168261E+03  0.7546771E-02  0.1136759E+00
         21   -1    0    0  501  502  0.00000000000E+00  0.00000000000E+00  0.38835397348E+03  0.38835397348E+03  0.00000000000E+00 0. -1.
         21   -1    0    0  502  503 -0.00000000000E+00 -0.00000000000E+00 -0.50725685744E+03  0.50725685744E+03  0.00000000000E+00 0.  1.
         -6    2    1    2    0  503  0.97923462814E+01  0.12531325789E+03 -0.45098276371E+03  0.50039885570E+03  0.17667557550E+03 0.  0.
        -24    2    3    3    0    0 -0.38748182013E+02  0.11256025910E+03 -0.41286618523E+03  0.43720245216E+03  0.80723377866E+02 0.  0.
          6    2    1    2  501    0 -0.97923462814E+01 -0.12531325789E+03  0.33207987974E+03  0.39521197522E+03  0.17354007082E+03 0.  0.
         24    2    5    5    0    0 -0.35983495200E+02 -0.46964508841E+02  0.28021804013E+03  0.29755828524E+03  0.80736027152E+02 0.  0.
          5    1    5    5  501    0  0.26191148919E+02 -0.78348749053E+02  0.51861839604E+02  0.97653689981E+02  0.47000000000E+01 0. -1.
        -13    1    6    6    0    0 -0.34706907408E+02 -0.89550547012E+01  0.37485441828E+02  0.51864446161E+02  0.00000000000E+00 0.  1.
         14    1    6    6    0    0 -0.12765877919E+01 -0.38009454140E+02  0.24273259831E+03  0.24569383908E+03  0.00000000000E+00 0. -1.
         -5    1    3    3    0  503  0.48540528294E+02  0.12752998796E+02 -0.38116578479E+02  0.63196403539E+02  0.47000000000E+01 0.  1.
         11    1    4    4    0    0  0.19638186373E+02  0.27392351316E+02 -0.52953698957E+02  0.62770164153E+02  0.00000000000E+00 0. -1.
        -12    1    4    4    0    0 -0.58386368386E+02  0.85167907783E+02 -0.35991248627E+03  0.37443228801E+03  0.00000000000E+00 0.  1.
<mgrwt>
<rscale>  2 0.21618649E+03</rscale>
<asrwt>0</asrwt>
<pdfrwt beam="1">  1       21 0.59746765E-01 0.21682611E+03</pdfrwt>
<pdfrwt beam="2">  1       21 0.78039517E-01 0.21682611E+03</pdfrwt>
<totfact> 0.37308529E+03</totfact>
</mgrwt>
</event>
<event>
12    1  0.1074575E-001  0.1797173E+03  0.7546771E-02  0.1169452E+00
         21   -1    0    0  501  502  0.00000000000E+00  0.00000000000E+00  0.12879475401E+03  0.12879475401E+03  0.00000000000E+00 0. -1.
         21   -1    0    0  502  503 -0.00000000000E+00 -0.00000000000E+00 -0.12186503377E+04  0.12186503377E+04  0.00000000000E+00 0. -1.
         -6    2    1    2    0  503 -0.49921798956E+02  0.86799150006E+01 -0.11460052264E+04  0.11591605100E+04  0.16660606849E+03 0.  0.
        -24    2    3    3    0    0 -0.94819583648E+02 -0.24728254564E+02 -0.89429914232E+03  0.90126526066E+03  0.53906160204E+02 0.  0.
          6    2    1    2  501    0  0.49921798956E+02 -0.86799150006E+01  0.56149642693E+02  0.18828458173E+03  0.17242614189E+03 0.  0.
         24    2    5    5    0    0 -0.10340873520E+01  0.55734475466E+02  0.18204128676E+02  0.97688400340E+02  0.78129585741E+02 0.  0.
          5    1    5    5  501    0  0.50955886308E+02 -0.64414390467E+02  0.37945514017E+02  0.90596181391E+02  0.47000000000E+01 0. -1.
        -13    1    6    6    0    0 -0.15033824687E+02 -0.14917630187E+02 -0.54658260205E+01  0.21872970288E+02  0.00000000000E+00 0.  1.
         14    1    6    6    0    0  0.13999737335E+02  0.70652105653E+02  0.23669954696E+02  0.75815430052E+02  0.00000000000E+00 0. -1.
         -5    1    3    3    0  503  0.44897784692E+02  0.33408169565E+02 -0.25170608409E+03  0.25789524933E+03  0.47000000000E+01 0.  1.
         13    1    4    4    0    0 -0.77423278616E+02 -0.40168338330E+02 -0.75718230503E+03  0.76218954501E+03  0.00000000000E+00 0. -1.
        -14    1    4    4    0    0 -0.17396305032E+02  0.15440083766E+02 -0.13711683729E+03  0.13907571565E+03  0.00000000000E+00 0.  1.
<mgrwt>
<rscale>  2 0.17830671E+03</rscale>
<asrwt>0</asrwt>
<pdfrwt beam="1">  1       21 0.19814578E-01 0.17971728E+03</pdfrwt>
<pdfrwt beam="2">  1       21 0.18748466E+00 0.17971728E+03</pdfrwt>
<totfact> 0.38539851E+03</totfact>
</mgrwt>
</event>
<event>
12    1  0.1074575E-001  0.1754550E+03  0.7546771E-02  0.1172479E+00
         21   -1    0    0  501  502  0.00000000000E+00  0.00000000000E+00  0.41104247739E+03  0.41104247739E+03  0.00000000000E+00 0.  1.
         21   -1    0    0  502  503 -0.00000000000E+00 -0.00000000000E+00 -0.77126715526E+02  0.77126715526E+02  0.00000000000E+00 0.  1.
         -6    2    1    2    0  503 -0.29066248671E+01 -0.14876208985E+02  0.12195828425E+03  0.21301393531E+03  0.17398667615E+03 0.  0.
        -24    2    3    3    0    0  0.57243007690E+02 -0.21690891837E+02  0.10579424899E+03  0.15018254001E+03  0.87264629075E+02 0.  0.
          6    2    1    2  501    0  0.29066248671E+01  0.14876208985E+02  0.21195747762E+03  0.27515525761E+03  0.17479900860E+03 0.  0.
         24    2    5    5    0    0 -0.20595069989E+01 -0.26626594342E+02  0.38388925273E+02  0.96562767525E+02  0.84483379390E+02 0.  0.
          5    1    5    5  501    0  0.49661318660E+01  0.41502803327E+02  0.17356855235E+03  0.17859249009E+03  0.47000000000E+01 0. -1.
        -11    1    6    6    0    0 -0.17169292468E+02  0.26036629165E+02  0.25483693068E+02  0.40275417745E+02  0.00000000000E+00 0.  1.
         12    1    6    6    0    0  0.15109785469E+02 -0.52663223507E+02  0.12905232205E+02  0.56287349780E+02  0.00000000000E+00 0. -1.
         -5    1    3    3    0  503 -0.60149632557E+02  0.68146828519E+01  0.16164035254E+02  0.62831395295E+02  0.47000000000E+01 0.  1.
         13    1    4    4    0    0 -0.16542852421E+02  0.16383017555E+02  0.27847125582E+02  0.36297818579E+02  0.00000000000E+00 0. -1.
        -14    1    4    4    0    0  0.73785860111E+02 -0.38073909392E+02  0.77947123410E+02  0.11388472144E+03  0.00000000000E+00 0.  1.
<mgrwt>
<rscale>  2 0.17525229E+03</rscale>
<asrwt>0</asrwt>
<pdfrwt beam="1">  1       21 0.63237303E-01 0.17545496E+03</pdfrwt>
<pdfrwt beam="2">  1       21 0.11865649E-01 0.17545496E+03</pdfrwt>
<totfact> 0.13934810E+05</totfact>
</mgrwt>
</event>
<event>
12    1  0.1074575E-001  0.2374801E+03  0.7546771E-02  0.1122041E+00
         21   -1    0    0  501  502  0.00000000000E+00  0.00000000000E+00  0.59001981832E+03  0.59001981832E+03  0.00000000000E+00 0. -1.
         21   -1    0    0  502  503 -0.00000000000E+00 -0.00000000000E+00 -0.21744370235E+03  0.21744370235E+03  0.00000000000E+00 0. -1.
         -6    2    1    2    0  503  0.15736253138E+03  0.39912088908E+02 -0.11813734674E+03  0.26230620299E+03  0.16879623903E+03 0.  0.
        -24    2    3    3    0    0  0.14353950613E+03 -0.23522481288E+02 -0.10001848336E+03  0.19473843010E+03  0.82234191181E+02 0.  0.
          6    2    1    2  501    0 -0.15736253138E+03 -0.39912088908E+02  0.49071346271E+03  0.54515731768E+03  0.17332298582E+03 0.  0.
         24    2    5    5    0    0 -0.43347288940E+02  0.39186597887E+02  0.14665114084E+03  0.17413568881E+03  0.73499007439E+02 0.  0.
          5    1    5    5  501    0 -0.11401524244E+03 -0.79098686794E+02  0.34406232187E+03  0.37102162887E+03  0.47000000000E+01 0. -1.
        -11    1    6    6    0    0 -0.85274702464E+01  0.33181383254E+02  0.13115042981E+03  0.13555130830E+03  0.00000000000E+00 0.  1.
         12    1    6    6    0    0 -0.34819818694E+02  0.60052146326E+01  0.15500711035E+02  0.38584380509E+02  0.00000000000E+00 0. -1.
         -5    1    3    3    0  503  0.13823025250E+02  0.63434570196E+02 -0.18118863373E+02  0.67567772887E+02  0.47000000000E+01 0.  1.
         13    1    4    4    0    0  0.54674650804E+02  0.30641924382E+02 -0.43698109777E+02  0.76405299348E+02  0.00000000000E+00 0. -1.
        -14    1    4    4    0    0  0.88864855323E+02 -0.54164405670E+02 -0.56320373585E+02  0.11833313075E+03  0.00000000000E+00 0.  1.
<mgrwt>
<rscale>  2 0.23665497E+03</rscale>
<asrwt>0</asrwt>
<pdfrwt beam="1">  1       21 0.90772279E-01 0.23748010E+03</pdfrwt>
<pdfrwt beam="2">  1       21 0.33452878E-01 0.23748010E+03</pdfrwt>
<totfact> 0.86026196E+03</totfact>
</mgrwt>
</event>
<event>
12    1  0.1074575E-001  0.2413830E+03  0.7546771E-02  0.1118984E+00
         21   -1    0    0  503  502  0.00000000000E+00  0.00000000000E+00  0.17186366203E+03  0.17186366203E+03  0.00000000000E+00 0. -1.
         21   -1    0    0  501  503 -0.00000000000E+00 -0.00000000000E+00 -0.34150883657E+03  0.34150883657E+03  0.00000000000E+00 0. -1.
          6    2    1    2  501    0 -0.31847009449E+02 -0.16440823699E+03 -0.59060649587E+02  0.24786415890E+03  0.17292825258E+03 0.  0.
         24    2    3    3    0    0  0.37733187371E+00 -0.18010207412E+03 -0.25650070169E+02  0.19863955616E+03  0.79767460099E+02 0.  0.
         -6    2    1    2    0  502  0.31847009449E+02  0.16440823699E+03 -0.11058452495E+03  0.26550833970E+03  0.17384315026E+03 0.  0.
        -24    2    5    5    0    0 -0.19712501398E+02  0.72760040592E+02 -0.11417733441E+03  0.16018610396E+03  0.83309771271E+02 0.  0.
          5    1    3    3  501    0 -0.32224341323E+02  0.15693837136E+02 -0.33410579418E+02  0.49224602739E+02  0.47000000000E+01 0. -1.
        -11    1    4    4    0    0 -0.16215061473E+02 -0.80405068295E+00  0.23743188012E+01  0.16407684354E+02  0.00000000000E+00 0.  1.
         12    1    4    4    0    0  0.16592393347E+02 -0.17929802344E+03 -0.28024388970E+02  0.18223187181E+03  0.00000000000E+00 0. -1.
         -5    1    5    5    0  502  0.51559510848E+02  0.91648196394E+02  0.35928094656E+01  0.10532223574E+03  0.47000000000E+01 0.  1.
         13    1    6    6    0    0 -0.21516660181E+02  0.68597637576E+02 -0.33384807029E+02  0.79266309910E+02  0.00000000000E+00 0. -1.
        -14    1    6    6    0    0  0.18041587824E+01  0.41624030160E+01 -0.80792527383E+02  0.80919794048E+02  0.00000000000E+00 0.  1.
<mgrwt>
<rscale>  2 0.24121829E+03</rscale>
<asrwt>0</asrwt>
<pdfrwt beam="1">  1       21 0.26440564E-01 0.24138298E+03</pdfrwt>
<pdfrwt beam="2">  1       21 0.52539820E-01 0.24138298E+03</pdfrwt>
<totfact> 0.45693904E+04</totfact>
</mgrwt>
</event>
<event>
12    1  0.1074575E-001  0.1779696E+03  0.7546771E-02  0.1174939E+00
         21   -1    0    0  501  502  0.00000000000E+00  0.00000000000E+00  0.13456690103E+03  0.13456690103E+03  0.00000000000E+00 0.  1.
         21   -1    0    0  502  503 -0.00000000000E+00 -0.00000000000E+00 -0.24908044759E+03  0.24908044759E+03  0.00000000000E+00 0.  1.
         -6    2    1    2    0  503  0.68068110726E+01  0.35831546028E+02 -0.13028936945E+03  0.20497987086E+03  0.15398439953E+03 0.  0.
        -24    2    3    3    0    0  0.27897141730E+00  0.42616807350E+02 -0.19069456692E+02  0.93263213839E+02  0.80734830050E+02 0.  0.
          6    2    1    2  501    0 -0.68068110726E+01 -0.35831546028E+02  0.15775822886E+02  0.17866747776E+03  0.17419230365E+03 0.  0.
         24    2    5    5    0    0  0.29908519767E+02 -0.75928957295E+01  0.66368473517E+02  0.10991325471E+03  0.81999863797E+02 0.  0.
          5    1    5    5  501    0 -0.36715330840E+02 -0.28238650299E+02 -0.50592650631E+02  0.68754223050E+02  0.47000000000E+01 0. -1.
        -13    1    6    6    0    0  0.26198355324E+02 -0.42619815495E+02  0.26146044747E+02  0.56448367119E+02  0.00000000000E+00 0.  1.
         14    1    6    6    0    0  0.37101644438E+01  0.35026919765E+02  0.40222428770E+02  0.53464887586E+02  0.00000000000E+00 0. -1.
         -5    1    3    3    0  503  0.65278396553E+01 -0.67852613220E+01 -0.11121991276E+03  0.11171665702E+03  0.47000000000E+01 0.  1.
         11    1    4    4    0    0  0.22050220445E+02 -0.16451319221E+02 -0.11645620603E+02  0.29874380412E+02  0.00000000000E+00 0. -1.
        -12    1    4    4    0    0 -0.21771249027E+02  0.59068126572E+02 -0.74238360892E+01  0.63388833427E+02  0.00000000000E+00 0.  1.
<mgrwt>
<rscale>  2 0.17281913E+03</rscale>
<asrwt>0</asrwt>
<pdfrwt beam="1">  1       21 0.20702600E-01 0.17796964E+03</pdfrwt>
<pdfrwt beam="2">  1       21 0.38320068E-01 0.17796964E+03</pdfrwt>
<totfact> 0.14279606E+05</totfact>
</mgrwt>
</event>
<event>
12    1  0.1074575E-001  0.1871511E+03  0.7546771E-02  0.1161743E+00
         21   -1    0    0  501  502  0.00000000000E+00  0.00000000000E+00  0.30003715695E+03  0.30003715695E+03  0.00000000000E+00 0. -1.
         21   -1    0    0  502  503 -0.00000000000E+00 -0.00000000000E+00 -0.11642494423E+03  0.11642494423E+03  0.00000000000E+00 0. -1.
         -6    2    1    2    0  503  0.46309701182E+02  0.42696639490E+02  0.67230448328E+02  0.19607551831E+03  0.17308403811E+03 0.  0.
        -24    2    3    3    0    0  0.29226730725E+02 -0.11134884790E+02 -0.29658422812E+02  0.83829341369E+02  0.71899575677E+02 0.  0.
          6    2    1    2  501    0 -0.46309701182E+02 -0.42696639490E+02  0.11638176440E+03  0.22038658287E+03  0.17623262859E+03 0.  0.
         24    2    5    5    0    0  0.38482854968E+02  0.53262214089E+01  0.47924575801E+02  0.10120416212E+03  0.80226047533E+02 0.  0.
          5    1    5    5  501    0 -0.84792556150E+02 -0.48022860899E+02  0.68457188595E+02  0.11918242076E+03  0.47000000000E+01 0. -1.
        -13    1    6    6    0    0  0.30292505174E+02 -0.12109097523E+02  0.66733775024E+02  0.74280972271E+02  0.00000000000E+00 0.  1.
         14    1    6    6    0    0  0.81903497942E+01  0.17435318932E+02 -0.18809199223E+02  0.26923189845E+02  0.00000000000E+00 0. -1.
         -5    1    3    3    0  503  0.17082970457E+02  0.53831524279E+02  0.96888871141E+02  0.11224617694E+03  0.47000000000E+01 0.  1.
         13    1    4    4    0    0  0.31088370832E+02 -0.16494217846E+02  0.15400158956E+02  0.38414983005E+02  0.00000000000E+00 0. -1.
        -14    1    4    4    0    0 -0.18616401076E+01  0.53593330562E+01 -0.45058581769E+02  0.45414358365E+02  0.00000000000E+00 0.  1.
<mgrwt>
<rscale>  2 0.18640619E+03</rscale>
<asrwt>0</asrwt>
<pdfrwt beam="1">  1       21 0.46159562E-01 0.18715109E+03</pdfrwt>
<pdfrwt beam="2">  1       21 0.17911530E-01 0.18715109E+03</pdfrwt>
<totfact> 0.12765395E+05</totfact>
</mgrwt>
</event>
<event>
12    1  0.1074575E-001  0.3090207E+03  0.7546771E-02  0.1080821E+00
         21   -1    0    0  503  502  0.00000000000E+00  0.00000000000E+00  0.58660283752E+03  0.58660283752E+03  0.00000000000E+00 0.  1.
         21   -1    0    0  501  503 -0.00000000000E+00 -0.00000000000E+00 -0.21259865516E+03  0.21259865516E+03  0.00000000000E+00 0.  1.
          6    2    1    2  501    0 -0.58401835911E+02 -0.24875609807E+03 -0.64477989224E+01  0.30908799856E+03  0.17379138637E+03 0.  0.
         24    2    3    3    0    0 -0.10381592882E+03 -0.15336281867E+03 -0.19611610005E+02  0.20251551847E+03  0.79561414942E+02 0.  0.
         -6    2    1    2    0  502  0.58401835911E+02  0.24875609807E+03  0.38045198129E+03  0.49011349412E+03  0.17371573413E+03 0.  0.
        -24    2    5    5    0    0  0.10757769411E+02  0.13962830977E+03  0.10929235613E+03  0.19392358279E+03  0.77780089770E+02 0.  0.
          5    1    3    3  501    0  0.45414092908E+02 -0.95393279403E+02  0.13163811083E+02  0.10657248009E+03  0.47000000000E+01 0. -1.
        -11    1    4    4    0    0 -0.24729828529E+02 -0.10638559716E+03 -0.16630963297E+02  0.11048098770E+03  0.00000000000E+00 0.  1.
         12    1    4    4    0    0 -0.79086100290E+02 -0.46977221508E+02 -0.29806467081E+01  0.92034530772E+02  0.00000000000E+00 0. -1.
         -5    1    5    5    0  502  0.47644066500E+02  0.10912778831E+03  0.27115962516E+03  0.29618991133E+03  0.47000000000E+01 0.  1.
         11    1    6    6    0    0  0.21110340724E+02  0.58612006765E+02  0.65036246799E+01  0.62636338946E+02  0.00000000000E+00 0. -1.
        -12    1    6    6    0    0 -0.10352571313E+02  0.81016303002E+02  0.10278873145E+03  0.13128724385E+03  0.00000000000E+00 0.  1.
<mgrwt>
<rscale>  2 0.30901010E+03</rscale>
<asrwt>0</asrwt>
<pdfrwt beam="1">  1       21 0.90246590E-01 0.30902074E+03</pdfrwt>
<pdfrwt beam="2">  1       21 0.32707486E-01 0.30902074E+03</pdfrwt>
<totfact> 0.87860093E+03</totfact>
</mgrwt>
</event>
<event>
12    1  0.1074575E-001  0.2034697E+03  0.7546771E-02  0.1146938E+00
         21   -1    0    0  501  502  0.00000000000E+00  0.00000000000E+00  0.82037621511E+02  0.82037621511E+02  0.00000000000E+00 0. -1.
         21   -1    0    0  502  503 -0.00000000000E+00 -0.00000000000E+00 -0.22787185359E+04  0.22787185359E+04  0.00000000000E+00 0. -1.
         -6    2    1    2    0  503  0.97104820268E+02  0.35174871209E+02 -0.21404460757E+04  0.21500951922E+04  0.17530919884E+03 0.  0.
        -24    2    3    3    0    0  0.74569340459E+02  0.93019901627E+02 -0.16297904311E+04  0.16356584393E+04  0.70344810051E+02 0.  0.
          6    2    1    2  501    0 -0.97104820268E+02 -0.35174871209E+02 -0.56234838760E+02  0.21066096520E+03  0.17478291532E+03 0.  0.
         24    2    5    5    0    0  0.21710044041E+02 -0.88866416514E+01 -0.23759915972E+02  0.84626233467E+02  0.77760963032E+02 0.  0.
          5    1    5    5  501    0 -0.11881486431E+03 -0.26288229558E+02 -0.32474922788E+02  0.12603473174E+03  0.47000000000E+01 0. -1.
        -11    1    6    6    0    0  0.40693921898E+02  0.64469822391E+01 -0.38271844079E+02  0.56234268099E+02  0.00000000000E+00 0.  1.
         12    1    6    6    0    0 -0.18983877857E+02 -0.15333623890E+02  0.14511928106E+02  0.28391965368E+02  0.00000000000E+00 0. -1.
         -5    1    3    3    0  503  0.22535479808E+02 -0.57845030418E+02 -0.51065564457E+03  0.51443675289E+03  0.47000000000E+01 0.  1.
         11    1    4    4    0    0  0.67103559531E+02  0.27607403435E+02 -0.87085178488E+03  0.87386949120E+03  0.00000000000E+00 0. -1.
        -12    1    4    4    0    0  0.74657809279E+01  0.65412498191E+02 -0.75893864621E+03  0.76178894814E+03  0.00000000000E+00 0.  1.
<mgrwt>
<rscale>  2 0.20335632E+03</rscale>
<asrwt>0</asrwt>
<pdfrwt beam="1">  1       21 0.12621173E-01 0.20346973E+03</pdfrwt>
<pdfrwt beam="2">  1       21 0.35057207E+00 0.20346973E+03</pdfrwt>
<totfact> 0.91585239E+02</totfact>
</mgrwt>
</event>
<event>
12    1  0.1074575E-001  0.2250492E+03  0.7546771E-02  0.1130417E+00
         21   -1    0    0  501  502  0.00000000000E+00  0.00000000000E+00  0.36077492769E+03  0.36077492769E+03  0.00000000000E+00 0. -1.
         21   -1    0    0  502  503 -0.00000000000E+00 -0.00000000000E+00 -0.14751605492E+03  0.14751605492E+03  0.00000000000E+00 0.  1.
         -6    2    1    2    0  503  0.13287574217E+03  0.53673825032E+02  0.47866725662E+02  0.23008337465E+03  0.17352317861E+03 0.  0.
        -24    2    3    3    0    0  0.11596657009E+02  0.64907633371E+02  0.26637801417E+02  0.10635960098E+03  0.79090511019E+02 0.  0.
          6    2    1    2  501    0 -0.13287574217E+03 -0.53673825032E+02  0.16539214711E+03  0.27820760795E+03  0.17177912692E+03 0.  0.
         24    2    5    5    0    0 -0.97241011107E+02 -0.58033556449E+02  0.24929073282E+02  0.13315311328E+03  0.65456741175E+02 0.  0.
          5    1    5    5  501    0 -0.35634731060E+02  0.43597314168E+01  0.14046307383E+03  0.14505449468E+03  0.47000000000E+01 0. -1.
        -13    1    6    6    0    0 -0.39162750650E+02 -0.23852293581E+02  0.43547813454E+02  0.63238160980E+02  0.00000000000E+00 0.  1.
         14    1    6    6    0    0 -0.58078260457E+02 -0.34181262868E+02 -0.18618740172E+02  0.69914952296E+02  0.00000000000E+00 0. -1.
         -5    1    3    3    0  503  0.12127908516E+03 -0.11233808339E+02  0.21228924245E+02  0.12372377367E+03  0.47000000000E+01 0.  1.
         13    1    4    4    0    0  0.36055011367E+02  0.17829066589E+02  0.34166940910E+02  0.52775177037E+02  0.00000000000E+00 0. -1.
        -14    1    4    4    0    0 -0.24458354358E+02  0.47078566782E+02 -0.75291394931E+01  0.53584423946E+02  0.00000000000E+00 0.  1.
<mgrwt>
<rscale>  2 0.22471294E+03</rscale>
<asrwt>0</asrwt>
<pdfrwt beam="1">  1       21 0.55503835E-01 0.22504919E+03</pdfrwt>
<pdfrwt beam="2">  1       21 0.22694778E-01 0.22504919E+03</pdfrwt>
<totfact> 0.54868010E+04</totfact>
</mgrwt>
</event>
<event>
12    1  0.1074575E-001  0.2766765E+03  0.7546771E-02  0.1097752E+00
         21   -1    0    0  501  502  0.00000000000E+00  0.00000000000E+00  0.37807772020E+03  0.37807772020E+03  0.00000000000E+00 0. -1.
         21   -1    0    0  502  503 -0.00000000000E+00 -0.00000000000E+00 -0.21518088414E+03  0.21518088414E+03  0.00000000000E+00 0.  1.
         -6    2    1    2    0  503 -0.14245010071E+01 -0.21383493329E+03  0.61801810431E+01  0.27674556495E+03  0.17556339363E+03 0.  0.
        -24    2    3    3    0    0 -0.47238014398E+02 -0.70471992055E+02  0.34959418371E+02  0.12344147032E+03  0.82570600058E+02 0.  0.
          6    2    1    2  501    0  0.14245010071E+01  0.21383493329E+03  0.15671665502E+03  0.31651303938E+03  0.17289588265E+03 0.  0.
         24    2    5    5    0    0 -0.21879341028E+02  0.22949892061E+03  0.15250460307E+03  0.28773351656E+03  0.79902831428E+02 0.  0.
          5    1    5    5  501    0  0.23303842035E+02 -0.15663987312E+02  0.42120519460E+01  0.28779522820E+02  0.47000000000E+01 0. -1.
        -13    1    6    6    0    0 -0.27767009585E+02  0.14161615392E+03  0.50336189537E+02  0.15283937271E+03  0.00000000000E+00 0.  1.
         14    1    6    6    0    0  0.58876685566E+01  0.87882766687E+02  0.10216841354E+03  0.13489414385E+03  0.00000000000E+00 0. -1.
         -5    1    3    3    0  503  0.45813513391E+02 -0.14336294124E+03 -0.28779237328E+02  0.15330409463E+03  0.47000000000E+01 0.  1.
         13    1    4    4    0    0  0.20426062731E+02  0.36152578339E+00  0.59561915344E+01  0.21279825121E+02  0.00000000000E+00 0. -1.
        -14    1    4    4    0    0 -0.67664077129E+02 -0.70833517838E+02  0.29003226836E+02  0.10216164520E+03  0.00000000000E+00 0.  1.
<mgrwt>
<rscale>  2 0.27625435E+03</rscale>
<asrwt>0</asrwt>
<pdfrwt beam="1">  1       21 0.58165803E-01 0.27667655E+03</pdfrwt>
<pdfrwt beam="2">  1       21 0.33104751E-01 0.27667655E+03</pdfrwt>
<totfact> 0.23327522E+04</totfact>
</mgrwt>
</event>
<event>
12    1  0.1074575E-001  0.1782169E+03  0.7546771E-02  0.1170992E+00
         21   -1    0    0  501  502  0.00000000000E+00  0.00000000000E+00  0.94636342034E+02  0.94636342034E+02  0.00000000000E+00 0. -1.
         21   -1    0    0  502  503 -0.00000000000E+00 -0.00000000000E+00 -0.39939544927E+03  0.39939544927E+03  0.00000000000E+00 0. -1.
         -6    2    1    2    0  503  0.12221056072E+02  0.19176264786E+01 -0.25710274381E+03  0.30955305863E+03  0.17195419079E+03 0.  0.
        -24    2    3    3    0    0 -0.58641173454E+02 -0.13326324184E+01 -0.17582930976E+03  0.20157398270E+03  0.79218439753E+02 0.  0.
          6    2    1    2  501    0 -0.12221056072E+02 -0.19176264786E+01 -0.47656363432E+02  0.18447873268E+03  0.17778707021E+03 0.  0.
         24    2    5    5    0    0 -0.15769742620E+02  0.54890080793E+02  0.15143388120E+02  0.99592882407E+02  0.80173650725E+02 0.  0.
          5    1    5    5  501    0  0.35486865480E+01 -0.56807707272E+02 -0.62799751552E+02  0.84885850273E+02  0.47000000000E+01 0. -1.
        -13    1    6    6    0    0 -0.26913966756E+02  0.17456826696E+02 -0.27148225513E+02  0.42025332281E+02  0.00000000000E+00 0.  1.
         14    1    6    6    0    0  0.11144224136E+02  0.37433254097E+02  0.42291613633E+02  0.57567550126E+02  0.00000000000E+00 0. -1.
         -5    1    3    3    0  503  0.70862229526E+02  0.32502588969E+01 -0.81273434043E+02  0.10797907592E+03  0.47000000000E+01 0.  1.
         11    1    4    4    0    0  0.54378265277E+01  0.18330259161E+02 -0.93376321343E+02  0.95313722757E+02  0.00000000000E+00 0. -1.
        -12    1    4    4    0    0 -0.64078999982E+02 -0.19662891580E+02 -0.82452988420E+02  0.10626025994E+03  0.00000000000E+00 0.  1.
<mgrwt>
<rscale>  2 0.17674419E+03</rscale>
<asrwt>0</asrwt>
<pdfrwt beam="1">  1       21 0.14559437E-01 0.17821693E+03</pdfrwt>
<pdfrwt beam="2">  1       21 0.61445454E-01 0.17821693E+03</pdfrwt>
<totfact> 0.10251682E+05</totfact>
</mgrwt>
</event>
<event>
12    1  0.1074575E-001  0.1956944E+03  0.7546771E-02  0.1157463E+00
         21   -1    0    0  503  502  0.00000000000E+00  0.00000000000E+00  0.46198321763E+03  0.46198321763E+03  0.00000000000E+00 0. -1.
         21   -1    0    0  501  503 -0.00000000000E+00 -0.00000000000E+00 -0.16498304269E+03  0.16498304269E+03  0.00000000000E+00 0. -1.
          6    2    1    2  501    0  0.31127650841E+02  0.19762550987E+02 -0.78941037149E+02  0.21101652371E+03  0.19218948167E+03 0.  0.
         24    2    3    3    0    0  0.92515268388E+02  0.18081020727E+02 -0.82562622298E+02  0.14931990297E+03  0.81202516136E+02 0.  0.
         -6    2    1    2    0  502 -0.31127650841E+02 -0.19762550987E+02  0.37594121210E+03  0.41594973660E+03  0.17413471613E+03 0.  0.
        -24    2    5    5    0    0  0.51425774402E+02  0.66339004290E+01  0.18059943745E+03  0.20219207104E+03  0.74678362833E+02 0.  0.
          5    1    3    3  501    0 -0.61387617547E+02  0.16815302602E+01  0.36215851487E+01  0.61696620743E+02  0.47000000000E+01 0. -1.
        -13    1    4    4    0    0 -0.40643975043E+01 -0.20123881177E+02 -0.12501679085E+02  0.24037094264E+02  0.00000000000E+00 0.  1.
         14    1    4    4    0    0  0.96579665892E+02  0.38204901904E+02 -0.70060943213E+02  0.12528280871E+03  0.00000000000E+00 0. -1.
         -5    1    5    5    0  502 -0.82553425243E+02 -0.26396451416E+02  0.19534177465E+03  0.21375766557E+03  0.47000000000E+01 0.  1.
         11    1    6    6    0    0  0.56483619166E+01 -0.15315752584E+02  0.12819141049E+03  0.12922659940E+03  0.00000000000E+00 0. -1.
        -12    1    6    6    0    0  0.45777412486E+02  0.21949653013E+02  0.52408026963E+02  0.72965471638E+02  0.00000000000E+00 0.  1.
<mgrwt>
<rscale>  2 0.19111113E+03</rscale>
<asrwt>0</asrwt>
<pdfrwt beam="1">  1       21 0.71074340E-01 0.19569437E+03</pdfrwt>
<pdfrwt beam="2">  1       21 0.25382007E-01 0.19569437E+03</pdfrwt>
<totfact> 0.26317370E+04</totfact>
</mgrwt>
</event>
<event>
12    1  0.1074575E-001  0.2796719E+03  0.7546771E-02  0.1095882E+00
         21   -1    0    0  501  502  0.00000000000E+00  0.00000000000E+00  0.95361956149E+02  0.95361956149E+02  0.00000000000E+00 0.  1.
         21   -1    0    0  502  503 -0.00000000000E+00 -0.00000000000E+00 -0.94838536237E+03  0.94838536237E+03  0.00000000000E+00 0.  1.
         -6    2    1    2    0  503 -0.28039841440E+02 -0.21756147105E+03 -0.23449693247E+03  0.36497284627E+03  0.17348527541E+03 0.  0.
        -24    2    3    3    0    0 -0.97762315945E+01 -0.11302862715E+03 -0.40191002657E+02  0.14352858859E+03  0.78192670943E+02 0.  0.
          6    2    1    2  501    0  0.28039841440E+02  0.21756147105E+03 -0.61852647375E+03  0.67877447224E+03  0.17332212509E+03 0.  0.
         24    2    5    5    0    0  0.79390758591E+02  0.15679503735E+03 -0.50042502604E+03  0.53629809487E+03  0.79390576212E+02 0.  0.
          5    1    5    5  501    0 -0.51350917151E+02  0.60766433704E+02 -0.11810144771E+03  0.14247637737E+03  0.47000000000E+01 0. -1.
        -11    1    6    6    0    0  0.96203866219E+01  0.10085975321E+03 -0.22602379028E+03  0.24769334959E+03  0.00000000000E+00 0.  1.
         12    1    6    6    0    0  0.69770371969E+02  0.55935284140E+02 -0.27440123576E+03  0.28860474529E+03  0.00000000000E+00 0. -1.
         -5    1    3    3    0  503 -0.18263609846E+02 -0.10453284390E+03 -0.19430592981E+03  0.22144425768E+03  0.47000000000E+01 0.  1.
         13    1    4    4    0    0  0.26941353052E+02 -0.19331508673E+02 -0.25492994600E+02  0.41826265738E+02  0.00000000000E+00 0. -1.
        -14    1    4    4    0    0 -0.36717584647E+02 -0.93697118476E+02 -0.14698008056E+02  0.10170232285E+03  0.00000000000E+00 0.  1.
<mgrwt>
<rscale>  2 0.27964659E+03</rscale>
<asrwt>0</asrwt>
<pdfrwt beam="1">  1       21 0.14671071E-01 0.27967189E+03</pdfrwt>
<pdfrwt beam="2">  1       21 0.14590543E+00 0.27967189E+03</pdfrwt>
<totfact> 0.12440572E+04</totfact>
</mgrwt>
</event>
<event>
12    1  0.1074575E-001  0.1984548E+03  0.7546771E-02  0.1154117E+00
         21   -1    0    0  501  502  0.00000000000E+00  0.00000000000E+00  0.13905558653E+03  0.13905558653E+03  0.00000000000E+00 0. -1.
         21   -1    0    0  502  503 -0.00000000000E+00 -0.00000000000E+00 -0.42111059732E+03  0.42111059732E+03  0.00000000000E+00 0. -1.
         -6    2    1    2    0  503  0.10823996972E+02 -0.64529178189E+02 -0.31533627950E+03  0.37258724976E+03  0.18735825513E+03 0.  0.
        -24    2    3    3    0    0 -0.33547780259E+02  0.28384971397E+02 -0.10838303796E+03  0.14138684320E+03  0.79449331979E+02 0.  0.
          6    2    1    2  501    0 -0.10823996972E+02  0.64529178189E+02  0.33281268720E+02  0.18757893409E+03  0.17261819116E+03 0.  0.
         24    2    5    5    0    0  0.15415091358E+02  0.49552051450E+02 -0.43263734738E+02  0.10515301804E+03  0.80575279183E+02 0.  0.
          5    1    5    5  501    0 -0.26239088331E+02  0.14977126739E+02  0.76545003458E+02  0.82425916047E+02  0.47000000000E+01 0. -1.
        -13    1    6    6    0    0 -0.24298729953E+02  0.85321807644E+01  0.94623321531E+01  0.27436510632E+02  0.00000000000E+00 0.  1.
         14    1    6    6    0    0  0.39713821311E+02  0.41019870686E+02 -0.52726066891E+02  0.77716507410E+02  0.00000000000E+00 0. -1.
         -5    1    3    3    0  503  0.44371777232E+02 -0.92914149586E+02 -0.20695324154E+03  0.23120040656E+03  0.47000000000E+01 0.  1.
         11    1    4    4    0    0 -0.45964611345E+02 -0.87007722710E+01 -0.81357825069E+02  0.93848519616E+02  0.00000000000E+00 0. -1.
        -12    1    4    4    0    0  0.12416831085E+02  0.37085743668E+02 -0.27025212889E+02  0.47538323585E+02  0.00000000000E+00 0.  1.
<mgrwt>
<rscale>  2 0.19489726E+03</rscale>
<asrwt>0</asrwt>
<pdfrwt beam="1">  1       21 0.21393167E-01 0.19845475E+03</pdfrwt>
<pdfrwt beam="2">  1       21 0.64786245E-01 0.19845475E+03</pdfrwt>
<totfact> 0.44533463E+04</totfact>
</mgrwt>
</event>
<event>
12    1  0.1074575E-001  0.1808644E+03  0.7546771E-02  0.1167186E+00
         21   -1    0    0  503  502  0.00000000000E+00  0.00000000000E+00  0.12118733442E+03  0.12118733442E+03  0.00000000000E+00 0.  1.
         21   -1    0    0  501  503 -0.00000000000E+00 -0.00000000000E+00 -0.27317061480E+03  0.27317061480E+03  0.00000000000E+00 0. -1.
          6    2    1    2  501    0 -0.49796669279E+02 -0.11979991922E+02 -0.10135052796E+03  0.20653997321E+03  0.17252131039E+03 0.  0.
         24    2    3    3    0    0  0.21262988440E+02 -0.47612475116E+01 -0.13333297102E+01  0.83547635356E+02  0.80645182437E+02 0.  0.
         -6    2    1    2    0  502  0.49796669279E+02  0.11979991922E+02 -0.50632752420E+02  0.18781797600E+03  0.17346091207E+03 0.  0.
        -24    2    5    5    0    0  0.81893516691E+02 -0.37623371193E+02 -0.35195001475E+02  0.12657162591E+03  0.81606508440E+02 0.  0.
          5    1    3    3  501    0 -0.71059657719E+02 -0.72187444100E+01 -0.10001719825E+03  0.12299233785E+03  0.47000000000E+01 0. -1.
        -11    1    4    4    0    0  0.24459985859E+02 -0.38681332338E+02  0.11418498783E+02  0.47169041692E+02  0.00000000000E+00 0.  1.
         12    1    4    4    0    0 -0.31969974189E+01  0.33920084826E+02 -0.12751828493E+02  0.36378593665E+02  0.00000000000E+00 0. -1.
         -5    1    5    5    0  502 -0.32096847412E+02  0.49603363115E+02 -0.15437750946E+02  0.61246350098E+02  0.47000000000E+01 0.  1.
         13    1    6    6    0    0  0.81877276081E+02 -0.76869297061E+01 -0.46615986361E+02  0.94530563370E+02  0.00000000000E+00 0. -1.
        -14    1    6    6    0    0  0.16240610028E-01 -0.29936441487E+02  0.11420984886E+02  0.32041062536E+02  0.00000000000E+00 0.  1.
<mgrwt>
<rscale>  2 0.18063870E+03</rscale>
<asrwt>0</asrwt>
<pdfrwt beam="1">  1       21 0.18644206E-01 0.18086436E+03</pdfrwt>
<pdfrwt beam="2">  1       21 0.42026248E-01 0.18086436E+03</pdfrwt>
<totfact> 0.14390333E+05</totfact>
</mgrwt>
</event>
<event>
12    1  0.1074575E-001  0.1833352E+03  0.7546771E-02  0.1165647E+00
         21   -1    0    0  503  502  0.00000000000E+00  0.00000000000E+00  0.34885749498E+03  0.34885749498E+03  0.00000000000E+00 0.  1.
         21   -1    0    0  501  503 -0.00000000000E+00 -0.00000000000E+00 -0.10689274703E+03  0.10689274703E+03  0.00000000000E+00 0.  1.
          6    2    1    2  501    0 -0.41468214445E+02  0.15752578925E+02  0.43401202305E+02  0.18840240550E+03  0.17788773281E+03 0.  0.
         24    2    3    3    0    0 -0.69707426899E+02  0.21221478056E+02  0.84975890902E+02  0.13762931509E+03  0.80071529532E+02 0.  0.
         -6    2    1    2    0  502  0.41468214445E+02 -0.15752578925E+02  0.19856354565E+03  0.26734783652E+03  0.17343479316E+03 0.  0.
        -24    2    5    5    0    0 -0.21985978836E+02  0.26481535773E+02  0.15706531194E+03  0.18043208139E+03  0.81863109993E+02 0.  0.
          5    1    3    3  501    0  0.28239212454E+02 -0.54688991319E+01 -0.41574688597E+02  0.50773090409E+02  0.47000000000E+01 0. -1.
        -11    1    4    4    0    0 -0.78903230844E+02  0.19970447549E+02  0.38142781747E+02  0.89885540619E+02  0.00000000000E+00 0.  1.
         12    1    4    4    0    0  0.91958039451E+01  0.12510305070E+01  0.46833109155E+02  0.47743774470E+02  0.00000000000E+00 0. -1.
         -5    1    5    5    0  502  0.63454193281E+02 -0.42234114698E+02  0.41498233711E+02  0.86915755133E+02  0.47000000000E+01 0.  1.
         11    1    6    6    0    0  0.18283409452E+02  0.35651734421E+02  0.11367105478E+03  0.12052567329E+03  0.00000000000E+00 0. -1.
        -12    1    6    6    0    0 -0.40269388288E+02 -0.91701986478E+01  0.43394257156E+02  0.59906408092E+02  0.00000000000E+00 0.  1.
<mgrwt>
<rscale>  2 0.18224621E+03</rscale>
<asrwt>0</asrwt>
<pdfrwt beam="1">  1       21 0.53670383E-01 0.18333522E+03</pdfrwt>
<pdfrwt beam="2">  1       21 0.16445038E-01 0.18333522E+03</pdfrwt>
<totfact> 0.10928534E+05</totfact>
</mgrwt>
</event>
<event>
12    1  0.1074575E-001  0.2037015E+03  0.7546771E-02  0.1147008E+00
         21   -1    0    0  501  502  0.00000000000E+00  0.00000000000E+00  0.13458851666E+04  0.13458851666E+04  0.00000000000E+00 0. -1.
         21   -1    0    0  502  503 -0.00000000000E+00 -0.00000000000E+00 -0.34147088937E+02  0.34147088937E+02  0.00000000000E+00 0. -1.
         -6    2    1    2    0  503  0.78055297569E+02  0.69244289857E+02  0.87667490614E+03  0.89964257291E+03  0.17294642747E+03 0.  0.
        -24    2    3    3    0    0  0.10379334024E+03  0.42462813734E+02  0.82129877788E+03  0.83279722988E+03  0.80270763742E+02 0.  0.
          6    2    1    2  501    0 -0.78055297569E+02 -0.69244289857E+02  0.43506317155E+03  0.48038968266E+03  0.17494822894E+03 0.  0.
         24    2    5    5    0    0 -0.88895990306E+02  0.90663590301E+01  0.30897331625E+03  0.33149099241E+03  0.80231365032E+02 0.  0.
          5    1    5    5  501    0  0.10840692737E+02 -0.78310648887E+02  0.12608985530E+03  0.14889869024E+03  0.47000000000E+01 0. -1.
        -13    1    6    6    0    0  0.58191800366E+00  0.72342061055E+01 -0.22951446444E+01  0.76118365378E+01  0.00000000000E+00 0.  1.
         14    1    6    6    0    0 -0.89477908310E+02  0.18321529246E+01  0.31126846090E+03  0.32387915587E+03  0.00000000000E+00 0. -1.
         -5    1    3    3    0  503 -0.25738042673E+02  0.26781476124E+02  0.55376128257E+02  0.66845343030E+02  0.47000000000E+01 0.  1.
         13    1    4    4    0    0  0.35895503564E+02  0.46949978565E+02  0.22514366467E+03  0.23277125554E+03  0.00000000000E+00 0. -1.
        -14    1    4    4    0    0  0.67897836678E+02 -0.44871648310E+01  0.59615511321E+03  0.60002597434E+03  0.00000000000E+00 0.  1.
<mgrwt>
<rscale>  2 0.20327094E+03</rscale>
<asrwt>0</asrwt>
<pdfrwt beam="1">  1       21 0.20705922E+00 0.20370146E+03</pdfrwt>
<pdfrwt beam="2">  1       21 0.52533993E-02 0.20370146E+03</pdfrwt>
<totfact> 0.29709198E+04</totfact>
</mgrwt>
</event>
<event>
12    1  0.1074575E-001  0.3029638E+03  0.7546771E-02  0.1083881E+00
         21   -1    0    0  503  502  0.00000000000E+00  0.00000000000E+00  0.18327296264E+03  0.18327296264E+03  0.00000000000E+00 0. -1.
         21   -1    0    0  501  503 -0.00000000000E+00 -0.00000000000E+00 -0.60271045339E+03  0.60271045339E+03  0.00000000000E+00 0. -1.
          6    2    1    2  501    0  0.20609423382E+03 -0.13747876522E+03 -0.37275320328E+03  0.48034570994E+03  0.17438981164E+03 0.  0.
         24    2    3    3    0    0  0.84576785571E+02 -0.12709407514E+03 -0.13909813995E+03  0.21673404359E+03  0.65720746500E+02 0.  0.
         -6    2    1    2    0  502 -0.20609423382E+03  0.13747876522E+03 -0.46684287477E+02  0.30563770610E+03  0.17279971236E+03 0.  0.
        -24    2    5    5    0    0 -0.20748936435E+03  0.90581373194E+02 -0.74391806996E+02  0.25094667936E+03  0.78633793286E+02 0.  0.
          5    1    3    3  501    0  0.12151744825E+03 -0.10384690083E+02 -0.23365506333E+03  0.26361166635E+03  0.47000000000E+01 0. -1.
        -13    1    4    4    0    0  0.12395069192E+02 -0.68215177300E+02 -0.82389394909E+02  0.10767989853E+03  0.00000000000E+00 0.  1.
         14    1    4    4    0    0  0.72181716379E+02 -0.58878897836E+02 -0.56708745037E+02  0.10905414505E+03  0.00000000000E+00 0. -1.
         -5    1    5    5    0  502  0.13951305257E+01  0.46897392025E+02  0.27707519519E+02  0.54691026740E+02  0.47000000000E+01 0.  1.
         13    1    6    6    0    0 -0.18663038304E+03  0.74999404394E+02 -0.35653666562E+02  0.20427186413E+03  0.00000000000E+00 0. -1.
        -14    1    6    6    0    0 -0.20858981302E+02  0.15581968799E+02 -0.38738140434E+02  0.46674815231E+02  0.00000000000E+00 0.  1.
<mgrwt>
<rscale>  2 0.30273540E+03</rscale>
<asrwt>0</asrwt>
<pdfrwt beam="1">  1       21 0.28195840E-01 0.30296378E+03</pdfrwt>
<pdfrwt beam="2">  1       21 0.92724686E-01 0.30296378E+03</pdfrwt>
<totfact> 0.11078796E+04</totfact>
</mgrwt>
</event>
<event>
12    1  0.1074575E-001  0.1740189E+03  0.7546771E-02  0.1173863E+00
         21   -1    0    0  503  502  0.00000000000E+00  0.00000000000E+00  0.12777633364E+03  0.12777633364E+03  0.00000000000E+00 0. -1.
         21   -1    0    0  501  503 -0.00000000000E+00 -0.00000000000E+00 -0.29204520547E+03  0.29204520547E+03  0.00000000000E+00 0. -1.
          6    2    1    2  501    0  0.37554917307E+01  0.17634470886E+02 -0.17379210302E+03  0.24554222584E+03  0.17251727831E+03 0.  0.
         24    2    3    3    0    0  0.69282626253E+02  0.17000765423E+00 -0.95476983860E+02  0.14183995622E+03  0.78756634842E+02 0.  0.
         -6    2    1    2    0  502 -0.37554917307E+01 -0.17634470886E+02  0.95232311924E+01  0.17427931328E+03  0.17308237583E+03 0.  0.
        -24    2    5    5    0    0 -0.57944580180E+01 -0.74509709088E+02 -0.16189776124E+02  0.11165185245E+03  0.81355730054E+02 0.  0.
          5    1    3    3  501    0 -0.65527134522E+02  0.17464463232E+02 -0.78315119157E+02  0.10370226961E+03  0.47000000000E+01 0. -1.
        -11    1    4    4    0    0 -0.14027027675E+02 -0.89298077161E+01 -0.27509689945E+01  0.16854281404E+02  0.00000000000E+00 0.  1.
         12    1    4    4    0    0  0.83309653928E+02  0.90998153703E+01 -0.92726014866E+02  0.12498567482E+03  0.00000000000E+00 0. -1.
         -5    1    5    5    0  502  0.20389662873E+01  0.56875238202E+02  0.25713007316E+02  0.62627460824E+02  0.47000000000E+01 0.  1.
         13    1    6    6    0    0  0.24767163537E+02 -0.34846311489E+02 -0.37846941227E+02  0.57097011956E+02  0.00000000000E+00 0. -1.
        -14    1    6    6    0    0 -0.30561621555E+02 -0.39663397600E+02  0.21657165103E+02  0.54554840495E+02  0.00000000000E+00 0.  1.
<mgrwt>
<rscale>  2 0.17387825E+03</rscale>
<asrwt>0</asrwt>
<pdfrwt beam="1">  1       21 0.19657898E-01 0.17401893E+03</pdfrwt>
<pdfrwt beam="2">  1       21 0.44930031E-01 0.17401893E+03</pdfrwt>
<totfact> 0.11409540E+05</totfact>
</mgrwt>
</event>
<event>
12    1  0.1074575E-001  0.2025837E+03  0.7546771E-02  0.1148292E+00
         21   -1    0    0  501  502  0.00000000000E+00  0.00000000000E+00  0.34336212465E+03  0.34336212465E+03  0.00000000000E+00 0. -1.
         21   -1    0    0  502  503 -0.00000000000E+00 -0.00000000000E+00 -0.19911920830E+03  0.19911920830E+03  0.00000000000E+00 0. -1.
         -6    2    1    2    0  503  0.24075258449E+02  0.99699098761E+02 -0.10187627226E+03  0.22371052767E+03  0.17072813763E+03 0.  0.
        -24    2    3    3    0    0 -0.32159123376E+02  0.10684456492E+03 -0.93547837655E+02  0.16622299677E+03  0.80180524172E+02 0.  0.
          6    2    1    2  501    0 -0.24075258449E+02 -0.99699098761E+02  0.24611918860E+03  0.31877080528E+03  0.17470158252E+03 0.  0.
         24    2    5    5    0    0 -0.62516161120E+02 -0.92095363673E+02  0.10663123462E+03  0.17380701983E+03  0.80304629586E+02 0.  0.
          5    1    5    5  501    0  0.38440902670E+02 -0.76037350883E+01  0.13948795398E+03  0.14496378545E+03  0.47000000000E+01 0. -1.
        -13    1    6    6    0    0 -0.30453231626E+02 -0.89447621545E+01 -0.37278578776E+01  0.31957863052E+02  0.00000000000E+00 0.  1.
         14    1    6    6    0    0 -0.32062929493E+02 -0.83150601518E+02  0.11035909250E+03  0.14184915677E+03  0.00000000000E+00 0. -1.
         -5    1    3    3    0  503  0.56234381825E+02 -0.71454661615E+01 -0.83284346046E+01  0.57487530899E+02  0.47000000000E+01 0.  1.
         13    1    4    4    0    0 -0.58310272938E+02  0.73565192223E+02 -0.53992559740E+02  0.10829183692E+03  0.00000000000E+00 0. -1.
        -14    1    4    4    0    0  0.26151149562E+02  0.33279372700E+02 -0.39555277915E+02  0.57931159851E+02  0.00000000000E+00 0.  1.
<mgrwt>
<rscale>  2 0.20172418E+03</rscale>
<asrwt>0</asrwt>
<pdfrwt beam="1">  1       21 0.52824942E-01 0.20258374E+03</pdfrwt>
<pdfrwt beam="2">  1       21 0.30633724E-01 0.20258374E+03</pdfrwt>
<totfact> 0.34560484E+04</totfact>
</mgrwt>
</event>
<event>
12    1  0.1074575E-001  0.1946536E+03  0.7546771E-02  0.1154410E+00
         21   -1    0    0  501  502  0.00000000000E+00  0.00000000000E+00  0.48220133165E+02  0.48220133165E+02  0.00000000000E+00 0. -1.
         21   -1    0    0  502  503 -0.00000000000E+00 -0.00000000000E+00 -0.87413561135E+03  0.87413561135E+03  0.00000000000E+00 0.  1.
         -6    2    1    2    0  503  0.86444134996E+02 -0.21399932395E+02 -0.56115969700E+03  0.59396147768E+03  0.17308808699E+03 0.  0.
        -24    2    3    3    0    0  0.47534207539E+01 -0.39268367237E+02 -0.22875287341E+03  0.25116556154E+03  0.95873158582E+02 0.  0.
          6    2    1    2  501    0 -0.86444134996E+02  0.21399932395E+02 -0.26475578120E+03  0.32839426684E+03  0.17267491200E+03 0.  0.
         24    2    5    5    0    0  0.99723499398E+01  0.37629473931E+02 -0.17116536414E+03  0.19296608384E+03  0.80143013164E+02 0.  0.
          5    1    5    5  501    0 -0.96416484936E+02 -0.16229541536E+02 -0.93590417054E+02  0.13542818300E+03  0.47000000000E+01 0. -1.
        -13    1    6    6    0    0  0.19311703827E+02 -0.20041236136E+02 -0.34425031808E+02  0.44268226365E+02  0.00000000000E+00 0.  1.
         14    1    6    6    0    0 -0.93393538870E+01  0.57670710067E+02 -0.13674033233E+03  0.14869785747E+03  0.00000000000E+00 0. -1.
         -5    1    3    3    0  503  0.81690714243E+02  0.17868434842E+02 -0.33240682358E+03  0.34279591614E+03  0.47000000000E+01 0.  1.
         13    1    4    4    0    0 -0.26702267968E+02  0.21927484784E+02 -0.66946746121E+02  0.75337192141E+02  0.00000000000E+00 0. -1.
        -14    1    4    4    0    0  0.31455688721E+02 -0.61195852020E+02 -0.16180612729E+03  0.17582836940E+03  0.00000000000E+00 0.  1.
<mgrwt>
<rscale>  2 0.19456173E+03</rscale>
<asrwt>0</asrwt>
<pdfrwt beam="1">  1       21 0.74184826E-02 0.19465362E+03</pdfrwt>
<pdfrwt beam="2">  1       21 0.13448239E+00 0.19465362E+03</pdfrwt>
<totfact> 0.54214549E+04</totfact>
</mgrwt>
</event>
<event>
12    1  0.1074575E-001  0.2279257E+03  0.7546771E-02  0.1128190E+00
         21   -1    0    0  503  502  0.00000000000E+00  0.00000000000E+00  0.10074627233E+03  0.10074627233E+03  0.00000000000E+00 0.  1.
         21   -1    0    0  501  503 -0.00000000000E+00 -0.00000000000E+00 -0.53870130072E+03  0.53870130072E+03  0.00000000000E+00 0.  1.
          6    2    1    2  501    0  0.14292243489E+03 -0.38367548443E+02 -0.15115792108E+03  0.27311070578E+03  0.17274793584E+03 0.  0.
         24    2    3    3    0    0  0.37243222923E+02  0.68567274271E+01 -0.12844669455E+03  0.15584510647E+03  0.79718702350E+02 0.  0.
         -6    2    1    2    0  502 -0.14292243489E+03  0.38367548443E+02 -0.28679710732E+03  0.36633686727E+03  0.17335290130E+03 0.  0.
        -24    2    5    5    0    0 -0.14409772414E+03  0.68869451770E+02 -0.17265856088E+03  0.24809370597E+03  0.78945251970E+02 0.  0.
          5    1    3    3  501    0  0.10567921197E+03 -0.45224275870E+02 -0.22711226524E+02  0.11726559931E+03  0.47000000000E+01 0. -1.
        -11    1    4    4    0    0  0.48192699421E+01 -0.28917836436E+02 -0.88342376009E+02  0.93079761634E+02  0.00000000000E+00 0.  1.
         12    1    4    4    0    0  0.32423952981E+02  0.35774563863E+02 -0.40104318543E+02  0.62765344835E+02  0.00000000000E+00 0. -1.
         -5    1    5    5    0  502  0.11752892463E+01 -0.30501903328E+02 -0.11413854644E+03  0.11824316130E+03  0.47000000000E+01 0.  1.
         13    1    6    6    0    0 -0.36421849917E+01 -0.96091638791E+01  0.21649172266E+01  0.10501828820E+02  0.00000000000E+00 0. -1.
        -14    1    6    6    0    0 -0.14045553915E+03  0.78478615649E+02 -0.17482347810E+03  0.23759187715E+03  0.00000000000E+00 0.  1.
<mgrwt>
<rscale>  2 0.22781066E+03</rscale>
<asrwt>0</asrwt>
<pdfrwt beam="1">  1       21 0.15499427E-01 0.22792569E+03</pdfrwt>
<pdfrwt beam="2">  1       21 0.82877120E-01 0.22792569E+03</pdfrwt>
<totfact> 0.46110660E+04</totfact>
</mgrwt>
</event>
<event>
12    1  0.1074575E-001  0.2213134E+03  0.7546771E-02  0.1133710E+00
         21   -1    0    0  503  502  0.00000000000E+00  0.00000000000E+00  0.15426806817E+03  0.15426806817E+03  0.00000000000E+00 0. -1.
         21   -1    0    0  501  503 -0.00000000000E+00 -0.00000000000E+00 -0.84450015533E+03  0.84450015533E+03  0.00000000000E+00 0. -1.
          6    2    1    2  501    0  0.85681043148E+02 -0.98690257784E+02 -0.74313677772E+03  0.77539143319E+03  0.17860178087E+03 0.  0.
         24    2    3    3    0    0  0.38666350164E+02  0.17318596316E+02 -0.24442800901E+03  0.26119209288E+03  0.81738836440E+02 0.  0.
         -6    2    1    2    0  502 -0.85681043148E+02  0.98690257784E+02  0.52904690558E+02  0.22337679030E+03  0.17325494517E+03 0.  0.
        -24    2    5    5    0    0 -0.86196392908E+02  0.10005405906E+03  0.94932664879E+02  0.18106170830E+03  0.79564429661E+02 0.  0.
          5    1    3    3  501    0  0.47014692984E+02 -0.11600885410E+03 -0.49870876871E+03  0.51419934031E+03  0.47000000000E+01 0. -1.
        -11    1    4    4    0    0  0.30599276065E+02  0.33705247493E+01 -0.21187695003E+02  0.37371038952E+02  0.00000000000E+00 0.  1.
         12    1    4    4    0    0  0.80670740985E+01  0.13948071567E+02 -0.22324031400E+03  0.22382105393E+03  0.00000000000E+00 0. -1.
         -5    1    5    5    0  502  0.51534976058E+00 -0.13638012784E+01 -0.42027974321E+02  0.42315082002E+02  0.47000000000E+01 0.  1.
         11    1    6    6    0    0 -0.80971278354E+02  0.10556204938E+03  0.61121744716E+02  0.14640888588E+03  0.00000000000E+00 0. -1.
        -12    1    6    6    0    0 -0.52251145543E+01 -0.55079903202E+01  0.33810920163E+02  0.34652822421E+02  0.00000000000E+00 0.  1.
<mgrwt>
<rscale>  2 0.22023248E+03</rscale>
<asrwt>0</asrwt>
<pdfrwt beam="1">  1       21 0.23733549E-01 0.22131336E+03</pdfrwt>
<pdfrwt beam="2">  1       21 0.12992310E+00 0.22131336E+03</pdfrwt>
<totfact> 0.70862698E+03</totfact>
</mgrwt>
</event>
<event>
12    1  0.1074575E-001  0.2060971E+03  0.7546771E-02  0.1144891E+00
         21   -1    0    0  503  502  0.00000000000E+00  0.00000000000E+00  0.20716351197E+03  0.20716351197E+03  0.00000000000E+00 0.  1.
         21   -1    0    0  501  503 -0.00000000000E+00 -0.00000000000E+00 -0.21040884061E+03  0.21040884061E+03  0.00000000000E+00 0.  1.
          6    2    1    2  501    0  0.10085379351E+03 -0.46329634984E+02 -0.37838324885E+02  0.20859224311E+03  0.17251394817E+03 0.  0.
         24    2    3    3    0    0  0.32890563196E+02 -0.22296892680E+02 -0.83211697770E+02  0.12328452749E+03  0.81828769410E+02 0.  0.
         -6    2    1    2    0  502 -0.10085379351E+03  0.46329634984E+02  0.34592996249E+02  0.20898010947E+03  0.17366084194E+03 0.  0.
        -24    2    5    5    0    0 -0.20166010094E+01  0.65148387220E+02  0.78962758255E+01  0.10477962512E+03  0.81658065321E+02 0.  0.
          5    1    3    3  501    0  0.67963230314E+02 -0.24032742304E+02  0.45373372885E+02  0.85307715620E+02  0.47000000000E+01 0. -1.
        -13    1    4    4    0    0  0.28314991432E+02  0.24446496964E+02 -0.60460446274E+02  0.71097366458E+02  0.00000000000E+00 0.  1.
         14    1    4    4    0    0  0.45755717640E+01 -0.46743389644E+02 -0.22751251495E+02  0.52187161036E+02  0.00000000000E+00 0. -1.
         -5    1    5    5    0  502 -0.98837192500E+02 -0.18818752236E+02  0.26696720423E+02  0.10420048435E+03  0.47000000000E+01 0.  1.
         11    1    6    6    0    0  0.22829122475E+02  0.25065261104E+02 -0.29226920756E+02  0.44762138511E+02  0.00000000000E+00 0. -1.
        -12    1    6    6    0    0 -0.24845723485E+02  0.40083126116E+02  0.37123196582E+02  0.60017486611E+02  0.00000000000E+00 0.  1.
<mgrwt>
<rscale>  2 0.20585530E+03</rscale>
<asrwt>0</asrwt>
<pdfrwt beam="1">  1       21 0.31871309E-01 0.20609709E+03</pdfrwt>
<pdfrwt beam="2">  1       21 0.32370591E-01 0.20609709E+03</pdfrwt>
<totfact> 0.86438006E+04</totfact>
</mgrwt>
</event>
<event>
12    1  0.1074575E-001  0.2569077E+03  0.7546771E-02  0.1109055E+00
         21   -1    0    0  503  502  0.00000000000E+00  0.00000000000E+00  0.22435134536E+03  0.22435134536E+03  0.00000000000E+00 0. -1.
         21   -1    0    0  501  503 -0.00000000000E+00 -0.00000000000E+00 -0.30469421002E+03  0.30469421002E+03  0.00000000000E+00 0. -1.
          6    2    1    2  501    0  0.12167158684E+03 -0.14482429956E+03 -0.89988680581E+02  0.27221225030E+03  0.17384905462E+03 0.  0.
         24    2    3    3    0    0  0.56357220785E+00 -0.86779172694E+02 -0.17678380509E+02  0.11961062037E+03  0.80394234492E+02 0.  0.
         -6    2    1    2    0  502 -0.12167158684E+03  0.14482429956E+03  0.96458159208E+01  0.25683330509E+03  0.17347118508E+03 0.  0.
        -24    2    5    5    0    0 -0.97539952924E+02  0.33746927147E+02 -0.36684538001E+02  0.13399556614E+03  0.77176155047E+02 0.  0.
          5    1    3    3  501    0  0.12110801463E+03 -0.58045126861E+02 -0.72310300071E+02  0.15260162993E+03  0.47000000000E+01 0. -1.
        -11    1    4    4    0    0  0.27992571501E+02 -0.39548625498E+02  0.20873372037E+02  0.52757705582E+02  0.00000000000E+00 0.  1.
         12    1    4    4    0    0 -0.27428999293E+02 -0.47230547196E+02 -0.38551752547E+02  0.66852914783E+02  0.00000000000E+00 0. -1.
         -5    1    5    5    0  502 -0.24131633918E+02  0.11107737241E+03  0.46330353922E+02  0.12283773895E+03  0.47000000000E+01 0.  1.
         11    1    6    6    0    0 -0.10514748050E+03  0.45659671149E+02 -0.34351787564E+02  0.11966972689E+03  0.00000000000E+00 0. -1.
        -12    1    6    6    0    0  0.76075275774E+01 -0.11912744003E+02 -0.23327504369E+01  0.14325839246E+02  0.00000000000E+00 0.  1.
<mgrwt>
<rscale>  2 0.25684375E+03</rscale>
<asrwt>0</asrwt>
<pdfrwt beam="1">  1       21 0.34515592E-01 0.25690766E+03</pdfrwt>
<pdfrwt beam="2">  1       21 0.46876032E-01 0.25690766E+03</pdfrwt>
<totfact> 0.34174778E+04</totfact>
</mgrwt>
</event>
<event>
12    1  0.1074575E-001  0.2927566E+03  0.7546771E-02  0.1088960E+00
         21   -1    0    0  503  502  0.00000000000E+00  0.00000000000E+00  0.36732149235E+03  0.36732149235E+03  0.00000000000E+00 0.  1.
         21   -1    0    0  501  503 -0.00000000000E+00 -0.00000000000E+00 -0.39370819840E+03  0.39370819840E+03  0.00000000000E+00 0. -1.
          6    2    1    2  501    0 -0.23525866805E+03  0.11749442952E+02 -0.25624439499E+03  0.38881872682E+03  0.17330355466E+03 0.  0.
         24    2    3    3    0    0 -0.20509813605E+03 -0.46830138902E+02 -0.18395248162E+03  0.29089306195E+03  0.80758595061E+02 0.  0.
         -6    2    1    2    0  502  0.23525866805E+03 -0.11749442952E+02  0.22985768894E+03  0.37221096393E+03  0.17384405138E+03 0.  0.
        -24    2    5    5    0    0  0.21914842493E+03  0.30882855344E+02  0.14434973683E+03  0.27520192999E+03  0.76938110488E+02 0.  0.
          5    1    3    3  501    0 -0.30160532003E+02  0.58579581854E+02 -0.72291913369E+02  0.97925664867E+02  0.47000000000E+01 0. -1.
        -11    1    4    4    0    0 -0.11734895005E+02 -0.11182971247E+02  0.62084650647E+01  0.17358330713E+02  0.00000000000E+00 0.  1.
         12    1    4    4    0    0 -0.19336324105E+03 -0.35647167655E+02 -0.19016094669E+03  0.27353473124E+03  0.00000000000E+00 0. -1.
         -5    1    5    5    0  502  0.16110243125E+02 -0.42632298297E+02  0.85507952109E+02  0.97009033938E+02  0.47000000000E+01 0.  1.
         11    1    6    6    0    0  0.47974053539E+01  0.82865094373E+01  0.29414083687E+02  0.30933309812E+02  0.00000000000E+00 0. -1.
        -12    1    6    6    0    0  0.21435101957E+03  0.22596345907E+02  0.11493565314E+03  0.24426862018E+03  0.00000000000E+00 0.  1.
<mgrwt>
<rscale>  2 0.29267644E+03</rscale>
<asrwt>0</asrwt>
<pdfrwt beam="1">  1       21 0.56510999E-01 0.29275663E+03</pdfrwt>
<pdfrwt beam="2">  1       21 0.60570492E-01 0.29275663E+03</pdfrwt>
<totfact> 0.70372479E+03</totfact>
</mgrwt>
</event>
<event>
12    1  0.1074575E-001  0.2319884E+03  0.7546771E-02  0.1125967E+00
         21   -1    0    0  503  502  0.00000000000E+00  0.00000000000E+00  0.31655420126E+03  0.31655420126E+03  0.00000000000E+00 0.  1.
         21   -1    0    0  501  503 -0.00000000000E+00 -0.00000000000E+00 -0.80034634828E+03  0.80034634828E+03  0.00000000000E+00 0.  1.
          6    2    1    2  501    0  0.14905837434E+03 -0.17267078343E+02 -0.73911208495E+03  0.77466461833E+03  0.17692384183E+03 0.  0.
         24    2    3    3    0    0  0.11734457778E+03  0.16022330517E+02 -0.30848767119E+03  0.34156714042E+03  0.86469665973E+02 0.  0.
         -6    2    1    2    0  502 -0.14905837434E+03  0.17267078343E+02  0.25531993793E+03  0.34223593122E+03  0.17152437423E+03 0.  0.
        -24    2    5    5    0    0 -0.89094448181E+02 -0.14721564872E+02  0.56196823495E+02  0.13178154082E+03  0.77805824718E+02 0.  0.
          5    1    3    3  501    0  0.31713796567E+02 -0.33289408860E+02 -0.43062441377E+03  0.43309747791E+03  0.47000000000E+01 0. -1.
        -13    1    4    4    0    0  0.13046354888E+02  0.13346538936E+02 -0.15413504246E+03  0.15526090555E+03  0.00000000000E+00 0.  1.
         14    1    4    4    0    0  0.10429822289E+03  0.26757915810E+01 -0.15435262873E+03  0.18630623488E+03  0.00000000000E+00 0. -1.
         -5    1    5    5    0  502 -0.59963926162E+02  0.31988643215E+02  0.19912311444E+03  0.21045439040E+03  0.47000000000E+01 0.  1.
         11    1    6    6    0    0 -0.17810893079E+02  0.83399178208E+01 -0.17765582240E+02  0.26502793322E+02  0.00000000000E+00 0. -1.
        -12    1    6    6    0    0 -0.71283555102E+02 -0.23061482693E+02  0.73962405735E+02  0.10527874749E+03  0.00000000000E+00 0.  1.
<mgrwt>
<rscale>  2 0.23095875E+03</rscale>
<asrwt>0</asrwt>
<pdfrwt beam="1">  1       21 0.48700646E-01 0.23198835E+03</pdfrwt>
<pdfrwt beam="2">  1       21 0.12313021E+00 0.23198835E+03</pdfrwt>
<totfact> 0.19264710E+03</totfact>
</mgrwt>
</event>
<event>
12    1  0.1074575E-001  0.2356803E+03  0.7546771E-02  0.1122879E+00
         21   -1    0    0  501  502  0.00000000000E+00  0.00000000000E+00  0.19340588566E+04  0.19340588566E+04  0.00000000000E+00 0. -1.
         21   -1    0    0  502  503 -0.00000000000E+00 -0.00000000000E+00 -0.28806656632E+02  0.28806656632E+02  0.00000000000E+00 0. -1.
         -6    2    1    2    0  503 -0.16017949455E+03 -0.27553711364E+01  0.10346097583E+04  0.10608879857E+04  0.17146691726E+03 0.  0.
        -24    2    3    3    0    0 -0.13762302193E+03 -0.43537306213E+02  0.56353519464E+03  0.58749037776E+03  0.82081880872E+02 0.  0.
          6    2    1    2  501    0  0.16017949455E+03  0.27553711364E+01  0.87064244169E+03  0.90197752754E+03  0.17285871797E+03 0.  0.
         24    2    5    5    0    0  0.82792955462E+02 -0.30403266945E+02  0.71659003802E+03  0.72635746950E+03  0.79466085795E+02 0.  0.
          5    1    5    5  501    0  0.77386539084E+02  0.33158638082E+02  0.15405240366E+03  0.17562005804E+03  0.47000000000E+01 0. -1.
        -11    1    6    6    0    0  0.56873868099E+02 -0.11100318755E+02  0.64744410606E+03  0.65003209491E+03  0.00000000000E+00 0.  1.
         12    1    6    6    0    0  0.25919087364E+02 -0.19302948191E+02  0.69145931965E+02  0.76325374588E+02  0.00000000000E+00 0. -1.
         -5    1    3    3    0  503 -0.22556472618E+02  0.40781935076E+02  0.47107456368E+03  0.47339760797E+03  0.47000000000E+01 0.  1.
         13    1    4    4    0    0 -0.10055921775E+03 -0.17187561242E+02  0.49386647311E+03  0.50429322998E+03  0.00000000000E+00 0. -1.
        -14    1    4    4    0    0 -0.37063804179E+02 -0.26349744970E+02  0.69668721527E+02  0.83197147784E+02  0.00000000000E+00 0.  1.
<mgrwt>
<rscale>  2 0.23542515E+03</rscale>
<asrwt>0</asrwt>
<pdfrwt beam="1">  1       21 0.29754742E+00 0.23568029E+03</pdfrwt>
<pdfrwt beam="2">  1       21 0.44317948E-02 0.23568029E+03</pdfrwt>
<totfact> 0.11153663E+04</totfact>
</mgrwt>
</event>
<event>
12    1  0.1074575E-001  0.1901827E+03  0.7546771E-02  0.1158344E+00
         21   -1    0    0  503  502  0.00000000000E+00  0.00000000000E+00  0.22784625346E+03  0.22784625346E+03  0.00000000000E+00 0. -1.
         21   -1    0    0  501  503 -0.00000000000E+00 -0.00000000000E+00 -0.16643543514E+03  0.16643543514E+03  0.00000000000E+00 0.  1.
          6    2    1    2  501    0  0.75644267480E+02  0.13458018157E+02 -0.12162889634E+02  0.19036372809E+03  0.17374475426E+03 0.  0.
         24    2    3    3    0    0  0.10261669297E+03  0.52611864542E+02 -0.18600452178E+02  0.14215514343E+03  0.81017985752E+02 0.  0.
         -6    2    1    2    0  502 -0.75644267480E+02 -0.13458018157E+02  0.73573707955E+02  0.20391796052E+03  0.17397203989E+03 0.  0.
        -24    2    5    5    0    0 -0.37221997069E+02 -0.75470393626E+02  0.41494132965E+02  0.12408692203E+03  0.81206796318E+02 0.  0.
          5    1    3    3  501    0 -0.26972425487E+02 -0.39153846385E+02  0.64375625439E+01  0.48208584660E+02  0.47000000000E+01 0. -1.
        -13    1    4    4    0    0  0.15686630604E+02 -0.21429091886E+02 -0.65115264426E+00  0.26565021335E+02  0.00000000000E+00 0.  1.
         14    1    4    4    0    0  0.86930062363E+02  0.74040956428E+02 -0.17949299534E+02  0.11559012209E+03  0.00000000000E+00 0. -1.
         -5    1    5    5    0  502 -0.38422270411E+02  0.62012375469E+02  0.32079574989E+02  0.79831038490E+02  0.47000000000E+01 0.  1.
         11    1    6    6    0    0 -0.59586399418E+02 -0.34973395445E+02  0.34741600315E+02  0.77334702282E+02  0.00000000000E+00 0. -1.
        -12    1    6    6    0    0  0.22364402349E+02 -0.40496998181E+02  0.67525326506E+01  0.46752219747E+02  0.00000000000E+00 0.  1.
<mgrwt>
<rscale>  2 0.19013067E+03</rscale>
<asrwt>0</asrwt>
<pdfrwt beam="1">  1       21 0.35053270E-01 0.19018266E+03</pdfrwt>
<pdfrwt beam="2">  1       21 0.25605452E-01 0.19018266E+03</pdfrwt>
<totfact> 0.11362687E+05</totfact>
</mgrwt>
</event>
<event>
12    1  0.1074575E-001  0.2454024E+03  0.7546771E-02  0.1116316E+00
         21   -1    0    0  501  502  0.00000000000E+00  0.00000000000E+00  0.18954053584E+04  0.18954053584E+04  0.00000000000E+00 0.  1.
         21   -1    0    0  502  503 -0.00000000000E+00 -0.00000000000E+00 -0.58554931860E+02  0.58554931860E+02  0.00000000000E+00 0.  1.
         -6    2    1    2    0  503  0.18647283198E+02 -0.17251458297E+03  0.25743701990E+03  0.35566298274E+03  0.17353194394E+03 0.  0.
        -24    2    3    3    0    0 -0.35676710686E+02 -0.78412672527E+02  0.20361013041E+03  0.23431352912E+03  0.77616814076E+02 0.  0.
          6    2    1    2  501    0 -0.18647283198E+02  0.17251458297E+03  0.15794134066E+04  0.15982973075E+04  0.17291203440E+03 0.  0.
         24    2    5    5    0    0 -0.68590624739E+02  0.13343369961E+03  0.92303186275E+03  0.93884262828E+03  0.83237221441E+02 0.  0.
          5    1    5    5  501    0  0.49943341541E+02  0.39080883361E+02  0.65638154388E+03  0.65945467923E+03  0.47000000000E+01 0. -1.
        -13    1    6    6    0    0 -0.44690103532E+02  0.54904815446E+02  0.64707310881E+03  0.65093421500E+03  0.00000000000E+00 0.  1.
         14    1    6    6    0    0 -0.23900521206E+02  0.78528884166E+02  0.27595875394E+03  0.28790841328E+03  0.00000000000E+00 0. -1.
         -5    1    3    3    0  503  0.54323993884E+02 -0.94101910446E+02  0.53826889495E+02  0.12134945362E+03  0.47000000000E+01 0.  1.
         13    1    4    4    0    0  0.84369959221E+01  0.12243781612E+02  0.31849788035E+02  0.35149709618E+02  0.00000000000E+00 0. -1.
        -14    1    4    4    0    0 -0.44113706608E+02 -0.90656454140E+02  0.17176034237E+03  0.19916381950E+03  0.00000000000E+00 0.  1.
<mgrwt>
<rscale>  2 0.24529284E+03</rscale>
<asrwt>0</asrwt>
<pdfrwt beam="1">  1       21 0.29160078E+00 0.24540240E+03</pdfrwt>
<pdfrwt beam="2">  1       21 0.90084525E-02 0.24540240E+03</pdfrwt>
<totfact> 0.35198973E+03</totfact>
</mgrwt>
</event>
<event>
12    1  0.1074575E-001  0.1913545E+03  0.7546771E-02  0.1157778E+00
         21   -1    0    0  503  502  0.00000000000E+00  0.00000000000E+00  0.12233305686E+04  0.12233305686E+04  0.00000000000E+00 0. -1.
         21   -1    0    0  501  503 -0.00000000000E+00 -0.00000000000E+00 -0.24398595932E+03  0.24398595932E+03  0.00000000000E+00 0. -1.
          6    2    1    2  501    0 -0.44989878459E+02 -0.70387334840E+02 -0.19847283597E+03  0.27405608163E+03  0.16951932985E+03 0.  0.
         24    2    3    3    0    0  0.11124599309E+02  0.79749398280E+01 -0.42694216943E+02  0.90811575980E+02  0.78972082387E+02 0.  0.
         -6    2    1    2    0  502  0.44989878459E+02  0.70387334840E+02  0.11778174452E+04  0.11932604463E+04  0.17215717319E+03 0.  0.
        -24    2    5    5    0    0  0.50781839753E+02  0.11072457259E+03  0.10097239454E+04  0.10202339909E+04  0.80599156964E+02 0.  0.
          5    1    3    3  501    0 -0.56114477767E+02 -0.78362274668E+02 -0.15577861902E+03  0.18324450565E+03  0.47000000000E+01 0. -1.
        -13    1    4    4    0    0 -0.27279562909E+02  0.24228978890E+02 -0.29954338586E+02  0.47206783101E+02  0.00000000000E+00 0.  1.
         14    1    4    4    0    0  0.38404162218E+02 -0.16254039062E+02 -0.12739878357E+02  0.43604792879E+02  0.00000000000E+00 0. -1.
         -5    1    5    5    0  502 -0.57919612942E+01 -0.40337237745E+02  0.16809349981E+03  0.17302645532E+03  0.47000000000E+01 0.  1.
         11    1    6    6    0    0  0.72092069070E+02  0.75427110226E+02  0.76008666031E+03  0.76721460268E+03  0.00000000000E+00 0. -1.
        -12    1    6    6    0    0 -0.21310229318E+02  0.35297462359E+02  0.24963728510E+03  0.25301938826E+03  0.00000000000E+00 0.  1.
<mgrwt>
<rscale>  2 0.19075934E+03</rscale>
<asrwt>0</asrwt>
<pdfrwt beam="1">  1       21 0.18820470E+00 0.19135454E+03</pdfrwt>
<pdfrwt beam="2">  1       21 0.37536302E-01 0.19135454E+03</pdfrwt>
<totfact> 0.10987651E+03</totfact>
</mgrwt>
</event>
<event>
11    1  0.1074575E-001  0.2728466E+03  0.7546771E-02  0.1099812E+00
         21   -1    0    0  501  502  0.00000000000E+00  0.00000000000E+00  0.53348375000E+03  0.53348375000E+03  0.00000000000E+00 0. -1.
         21   -1    0    0  502  503 -0.00000000000E+00 -0.00000000000E+00 -0.15133959877E+03  0.15133959877E+03  0.00000000000E+00 0.  1.
         -6    2    1    2    0  503  0.20810438363E+03 -0.20154247348E+02  0.92963277262E+02  0.28724210904E+03  0.17364397517E+03 0.  0.
        -24    2    3    3    0    0  0.12442583597E+03 -0.33396110745E+02  0.12400920858E+03  0.19689065008E+03  0.82404826349E+02 0.  0.
          6    2    1    2  501    0 -0.20810438363E+03  0.20154247348E+02  0.28918087396E+03  0.39758123973E+03  0.17530440996E+03 0.  0.
          5    1    5    5  501    0 -0.85681618718E+02  0.12742522335E+02  0.17048019087E+03  0.19128329028E+03  0.47000000000E+01 0. -1.
        -13    1    5    5    0    0 -0.51543815081E+02 -0.49435273455E+02  0.24714870354E+02  0.75574042841E+02  0.00000000000E+00 0.  1.
         14    1    5    5    0    0 -0.70878949832E+02  0.56846998468E+02  0.93985812735E+02  0.13072390661E+03  0.00000000000E+00 0. -1.
         -5    1    3    3    0  503  0.83678547658E+02  0.13241863397E+02 -0.31045931319E+02  0.90351458958E+02  0.47000000000E+01 0.  1.
         13    1    4    4    0    0  0.14780913573E+02 -0.37083087693E+02  0.52428617486E+02  0.65896818818E+02  0.00000000000E+00 0. -1.
        -14    1    4    4    0    0  0.10964492240E+03  0.36869769480E+01  0.71580591096E+02  0.13099383126E+03  0.00000000000E+00 0.  1.
<mgrwt>
<rscale>  2 0.27258024E+03</rscale>
<asrwt>0</asrwt>
<pdfrwt beam="1">  1       21 0.82074422E-01 0.27284659E+03</pdfrwt>
<pdfrwt beam="2">  1       21 0.23283016E-01 0.27284659E+03</pdfrwt>
<totfact> 0.21587642E+04</totfact>
</mgrwt>
</event>
<event>
12    1  0.1074575E-001  0.1762004E+03  0.7546771E-02  0.1171839E+00
         21   -1    0    0  501  502  0.00000000000E+00  0.00000000000E+00  0.41171539791E+02  0.41171539791E+02  0.00000000000E+00 0.  1.
         21   -1    0    0  502  503 -0.00000000000E+00 -0.00000000000E+00 -0.82495581286E+03  0.82495581286E+03  0.00000000000E+00 0.  1.
         -6    2    1    2    0  503 -0.25420147757E+02  0.11562980333E+02 -0.25908866411E+03  0.31263654717E+03  0.17272749733E+03 0.  0.
        -24    2    3    3    0    0  0.10287776500E+02  0.61849160558E+02 -0.20963138992E+03  0.23344142266E+03  0.81353679499E+02 0.  0.
          6    2    1    2  501    0  0.25420147757E+02 -0.11562980333E+02 -0.52469560896E+03  0.55349080548E+03  0.17397328317E+03 0.  0.
         24    2    5    5    0    0 -0.15930330532E+02 -0.66744446357E+02 -0.35301323939E+03  0.36841843512E+03  0.80032490914E+02 0.  0.
          5    1    5    5  501    0  0.41350478289E+02  0.55181466024E+02 -0.17168236957E+03  0.18507237035E+03  0.47000000000E+01 0. -1.
        -13    1    6    6    0    0  0.26245997896E+02 -0.32613168228E+02 -0.23272212420E+03  0.23645730743E+03  0.00000000000E+00 0.  1.
         14    1    6    6    0    0 -0.42176328429E+02 -0.34131278129E+02 -0.12029111519E+03  0.13196112769E+03  0.00000000000E+00 0. -1.
         -5    1    3    3    0  503 -0.35707924257E+02 -0.50286180225E+02 -0.49457274187E+02  0.79195124511E+02  0.47000000000E+01 0.  1.
         11    1    4    4    0    0  0.24761835095E+02  0.31140788284E+01 -0.13541221286E+03  0.13769282246E+03  0.00000000000E+00 0. -1.
        -12    1    4    4    0    0 -0.14474058595E+02  0.58735081729E+02 -0.74219177055E+02  0.95748600202E+02  0.00000000000E+00 0.  1.
<mgrwt>
<rscale>  2 0.17589213E+03</rscale>
<asrwt>0</asrwt>
<pdfrwt beam="1">  1       21 0.63340832E-02 0.17620042E+03</pdfrwt>
<pdfrwt beam="2">  1       21 0.12691628E+00 0.17620042E+03</pdfrwt>
<totfact> 0.83145067E+04</totfact>
</mgrwt>
</event>
<event>
12    1  0.1074575E-001  0.2073716E+03  0.7546771E-02  0.1144034E+00
         21   -1    0    0  503  502  0.00000000000E+00  0.00000000000E+00  0.28766950704E+03  0.28766950704E+03  0.00000000000E+00 0. -1.
         21   -1    0    0  501  503 -0.00000000000E+00 -0.00000000000E+00 -0.20073025780E+03  0.20073025780E+03  0.00000000000E+00 0. -1.
          6    2    1    2  501    0  0.36841731152E+02  0.10572063996E+03 -0.81626747809E+02  0.22115925546E+03  0.17237843093E+03 0.  0.
         24    2    3    3    0    0  0.36997550455E+02  0.42797421804E+02 -0.11445708840E+03  0.15003066116E+03  0.78792995565E+02 0.  0.
         -6    2    1    2    0  502 -0.36841731152E+02 -0.10572063996E+03  0.16856599704E+03  0.26724050938E+03  0.17455322290E+03 0.  0.
        -24    2    5    5    0    0 -0.17854806297E+02 -0.51481299058E+02  0.18346149396E+03  0.20768905897E+03  0.80669121654E+02 0.  0.
          5    1    3    3  501    0 -0.15581930376E+00  0.62923218157E+02  0.32830340596E+02  0.71128594296E+02  0.47000000000E+01 0. -1.
        -13    1    4    4    0    0 -0.71747917669E+01  0.73275402547E+00  0.94711383505E+01  0.11904496084E+02  0.00000000000E+00 0.  1.
         14    1    4    4    0    0  0.44172342222E+02  0.42064667779E+02 -0.12392822676E+03  0.13812616508E+03  0.00000000000E+00 0. -1.
         -5    1    5    5    0  502 -0.18986924854E+02 -0.54239340903E+02 -0.14895496922E+02  0.59551450407E+02  0.47000000000E+01 0.  1.
         11    1    6    6    0    0 -0.47937289858E+02 -0.35758213824E+02  0.14217011967E+03  0.15423675484E+03  0.00000000000E+00 0. -1.
        -12    1    6    6    0    0  0.30082483561E+02 -0.15723085234E+02  0.41291374292E+02  0.53452304136E+02  0.00000000000E+00 0.  1.
<mgrwt>
<rscale>  2 0.20691330E+03</rscale>
<asrwt>0</asrwt>
<pdfrwt beam="1">  1       21 0.44256847E-01 0.20737163E+03</pdfrwt>
<pdfrwt beam="2">  1       21 0.30881578E-01 0.20737163E+03</pdfrwt>
<totfact> 0.49025202E+04</totfact>
</mgrwt>
</event>
<event>
12    1  0.1074575E-001  0.1852156E+03  0.7546771E-02  0.1163080E+00
         21   -1    0    0  501  502  0.00000000000E+00  0.00000000000E+00  0.11167278639E+03  0.11167278639E+03  0.00000000000E+00 0. -1.
         21   -1    0    0  502  503 -0.00000000000E+00 -0.00000000000E+00 -0.81539540623E+03  0.81539540623E+03  0.00000000000E+00 0.  1.
         -6    2    1    2    0  503  0.23449661574E+02 -0.58628128037E+02 -0.71804356672E+03  0.74129974294E+03  0.17306530889E+03 0.  0.
        -24    2    3    3    0    0  0.43708020159E+02 -0.10024787084E+03 -0.58081012119E+03  0.59639386777E+03  0.79907584177E+02 0.  0.
          6    2    1    2  501    0 -0.23449661574E+02  0.58628128037E+02  0.14320946884E+02  0.18576844969E+03  0.17411973856E+03 0.  0.
         24    2    5    5    0    0 -0.24601487023E+02 -0.35092749532E+02  0.12944936910E+02  0.91912640080E+02  0.80272210518E+02 0.  0.
          5    1    5    5  501    0  0.11518254486E+01  0.93720877570E+02  0.13760099740E+01  0.93855809611E+02  0.47000000000E+01 0. -1.
        -11    1    6    6    0    0 -0.30101123278E+02  0.12500893728E+02  0.26626528342E+02  0.42087076141E+02  0.00000000000E+00 0.  1.
         12    1    6    6    0    0  0.54996362551E+01 -0.47593643260E+02 -0.13681591432E+02  0.49825563939E+02  0.00000000000E+00 0. -1.
         -5    1    3    3    0  503 -0.20258358585E+02  0.41619742804E+02 -0.13723344553E+03  0.14490587516E+03  0.47000000000E+01 0.  1.
         11    1    4    4    0    0 -0.12570657658E+02  0.51482626903E+01 -0.32643801684E+02  0.35357373079E+02  0.00000000000E+00 0. -1.
        -12    1    4    4    0    0  0.56278677817E+02 -0.10539613353E+03 -0.54816631950E+03  0.56103649470E+03  0.00000000000E+00 0.  1.
<mgrwt>
<rscale>  2 0.18496740E+03</rscale>
<asrwt>0</asrwt>
<pdfrwt beam="1">  1       21 0.17180428E-01 0.18521562E+03</pdfrwt>
<pdfrwt beam="2">  1       21 0.12544545E+00 0.18521562E+03</pdfrwt>
<totfact> 0.14539306E+04</totfact>
</mgrwt>
</event>
<event>
12    1  0.1074575E-001  0.1955775E+03  0.7546771E-02  0.1154489E+00
         21   -1    0    0  501  502  0.00000000000E+00  0.00000000000E+00  0.46012245924E+03  0.46012245924E+03  0.00000000000E+00 0. -1.
         21   -1    0    0  502  503 -0.00000000000E+00 -0.00000000000E+00 -0.31957372646E+03  0.31957372646E+03  0.00000000000E+00 0.  1.
         -6    2    1    2    0  503  0.62847657254E+01  0.81594130909E+02 -0.26656446563E+03  0.32804175903E+03  0.17279375236E+03 0.  0.
        -24    2    3    3    0    0  0.52783605463E+02  0.32321465467E+01 -0.16998671390E+03  0.19518057276E+03  0.80021355282E+02 0.  0.
          6    2    1    2  501    0 -0.62847657254E+01 -0.81594130909E+02  0.40711319841E+03  0.45165442666E+03  0.17763294831E+03 0.  0.
         24    2    5    5    0    0  0.26099150509E+02 -0.11509188004E+03  0.25324420116E+03  0.29081731794E+03  0.80714190109E+02 0.  0.
          5    1    5    5  501    0 -0.32383916234E+02  0.33497749129E+02  0.15386899725E+03  0.16083710872E+03  0.47000000000E+01 0. -1.
        -11    1    6    6    0    0 -0.13347366871E+02 -0.92864377632E+02  0.13680059757E+03  0.16588052427E+03  0.00000000000E+00 0.  1.
         12    1    6    6    0    0  0.39446517380E+02 -0.22227502406E+02  0.11644360359E+03  0.12493679367E+03  0.00000000000E+00 0. -1.
         -5    1    3    3    0  503 -0.46498839737E+02  0.78361984362E+02 -0.96577751728E+02  0.13286118628E+03  0.47000000000E+01 0.  1.
         11    1    4    4    0    0 -0.44100985336E+01 -0.70582693399E+01  0.57295984938E+01  0.10104278007E+02  0.00000000000E+00 0. -1.
        -12    1    4    4    0    0  0.57193703996E+02  0.10290415887E+02 -0.17571631240E+03  0.18507629475E+03  0.00000000000E+00 0.  1.
<mgrwt>
<rscale>  2 0.19447206E+03</rscale>
<asrwt>0</asrwt>
<pdfrwt beam="1">  1       21 0.70788071E-01 0.19557752E+03</pdfrwt>
<pdfrwt beam="2">  1       21 0.49165189E-01 0.19557752E+03</pdfrwt>
<totfact> 0.71187262E+03</totfact>
</mgrwt>
</event>
<event>
12    1  0.1074575E-001  0.4088866E+03  0.7546771E-02  0.1040876E+00
         21   -1    0    0  503  502  0.00000000000E+00  0.00000000000E+00  0.84366356719E+03  0.84366356719E+03  0.00000000000E+00 0.  1.
         21   -1    0    0  501  503 -0.00000000000E+00 -0.00000000000E+00 -0.19742018426E+03  0.19742018426E+03  0.00000000000E+00 0. -1.
          6    2    1    2  501    0  0.23166406425E+03 -0.28909082153E+03  0.32363515593E+03  0.52146715297E+03  0.17305067383E+03 0.  0.
         24    2    3    3    0    0  0.34819906079E+02 -0.10007222337E+03  0.13541309205E+03  0.18991732505E+03  0.80653636671E+02 0.  0.
         -6    2    1    2    0  502 -0.23166406425E+03  0.28909082153E+03  0.32260822700E+03  0.51961659848E+03  0.16936233210E+03 0.  0.
        -24    2    5    5    0    0 -0.94243291166E+02  0.23292795350E+03  0.20467564859E+03  0.32996186042E+03  0.62011924295E+02 0.  0.
          5    1    3    3  501    0  0.19684415817E+03 -0.18901859817E+03  0.18822206389E+03  0.33154982792E+03  0.47000000000E+01 0. -1.
        -13    1    4    4    0    0 -0.13546030669E+02 -0.65279735958E+01  0.56106749255E+02  0.58086803132E+02  0.00000000000E+00 0.  1.
         14    1    4    4    0    0  0.48365936748E+02 -0.93544249770E+02  0.79306342793E+02  0.13183052192E+03  0.00000000000E+00 0. -1.
         -5    1    5    5    0  502 -0.13742077309E+03  0.56162868035E+02  0.11793257841E+03  0.18965473807E+03  0.47000000000E+01 0.  1.
         13    1    6    6    0    0 -0.44757312647E+02  0.13316482363E+03  0.15131322201E+03  0.20647464358E+03  0.00000000000E+00 0. -1.
        -14    1    6    6    0    0 -0.49485978519E+02  0.99763129866E+02  0.53362426574E+02  0.12348721683E+03  0.00000000000E+00 0.  1.
<mgrwt>
<rscale>  2 0.40849926E+03</rscale>
<asrwt>0</asrwt>
<pdfrwt beam="1">  1       21 0.12979439E+00 0.40888663E+03</pdfrwt>
<pdfrwt beam="2">  1       21 0.30372336E-01 0.40888663E+03</pdfrwt>
<totfact> 0.39908393E+03</totfact>
</mgrwt>
</event>
<event>
12    1  0.1074575E-001  0.2144376E+03  0.7546771E-02  0.1138117E+00
         21   -1    0    0  501  502  0.00000000000E+00  0.00000000000E+00  0.32132679074E+03  0.32132679074E+03  0.00000000000E+00 0. -1.
         21   -1    0    0  502  503 -0.00000000000E+00 -0.00000000000E+00 -0.17690997818E+03  0.17690997818E+03  0.00000000000E+00 0. -1.
         -6    2    1    2    0  503  0.74840462631E+02  0.10173356938E+03  0.18121429742E+03  0.28075272032E+03  0.17329932024E+03 0.  0.
        -24    2    3    3    0    0  0.31640968980E+02  0.58427022678E+01  0.23995011842E+02  0.91540542057E+02  0.82271636418E+02 0.  0.
          6    2    1    2  501    0 -0.74840462631E+02 -0.10173356938E+03 -0.36797484858E+02  0.21748404860E+03  0.17318903694E+03 0.  0.
         24    2    5    5    0    0 -0.10719872154E+03 -0.45480195572E+02  0.14958172697E+01  0.14198592960E+03  0.81226551369E+02 0.  0.
          5    1    5    5  501    0  0.32358258906E+02 -0.56253373807E+02 -0.38293302127E+02  0.75498118996E+02  0.47000000000E+01 0. -1.
        -13    1    6    6    0    0 -0.49895882628E+02 -0.38536601466E+02  0.38074205088E+02  0.73649941269E+02  0.00000000000E+00 0.  1.
         14    1    6    6    0    0 -0.57302838909E+02 -0.69435941058E+01 -0.36578387818E+02  0.68335988334E+02  0.00000000000E+00 0. -1.
         -5    1    3    3    0  503  0.43199493651E+02  0.95890867111E+02  0.15721928557E+03  0.18921217826E+03  0.47000000000E+01 0.  1.
         11    1    4    4    0    0  0.21799136031E+02  0.88811552608E+01  0.54487925809E+02  0.59354960276E+02  0.00000000000E+00 0. -1.
        -12    1    4    4    0    0  0.98418329490E+01 -0.30384529931E+01 -0.30492913966E+02  0.32185581780E+02  0.00000000000E+00 0.  1.
<mgrwt>
<rscale>  2 0.21441528E+03</rscale>
<asrwt>0</asrwt>
<pdfrwt beam="1">  1       21 0.49434891E-01 0.21443756E+03</pdfrwt>
<pdfrwt beam="2">  1       21 0.27216920E-01 0.21443756E+03</pdfrwt>
<totfact> 0.49690240E+04</totfact>
</mgrwt>
</event>
<event>
12    1  0.1074575E-001  0.1741061E+03  0.7546771E-02  0.1173841E+00
         21   -1    0    0  503  502  0.00000000000E+00  0.00000000000E+00  0.11959868783E+03  0.11959868783E+03  0.00000000000E+00 0. -1.
         21   -1    0    0  501  503 -0.00000000000E+00 -0.00000000000E+00 -0.25550641791E+03  0.25550641791E+03  0.00000000000E+00 0. -1.
          6    2    1    2  501    0  0.12221619235E+02 -0.15653876761E+02 -0.89270595360E+02  0.19565828311E+03  0.17296968728E+03 0.  0.
         24    2    3    3    0    0 -0.19695437442E+02  0.47613134333E+02 -0.78434974132E+02  0.12381878222E+03  0.80772054866E+02 0.  0.
         -6    2    1    2    0  502 -0.12221619235E+02  0.15653876761E+02 -0.46637134716E+02  0.17944682263E+03  0.17213868823E+03 0.  0.
        -24    2    5    5    0    0 -0.37049945057E+01  0.23842808328E+02  0.39043917712E+02  0.92827400781E+02  0.80686382570E+02 0.  0.
          5    1    3    3  501    0  0.31917056676E+02 -0.63267011094E+02 -0.10835621227E+02  0.71839500882E+02  0.47000000000E+01 0. -1.
        -13    1    4    4    0    0 -0.10886559255E+02 -0.19746345423E+02 -0.39597799090E+02  0.45567762977E+02  0.00000000000E+00 0.  1.
         14    1    4    4    0    0 -0.88088781864E+01  0.67359479756E+02 -0.38837175042E+02  0.78251019247E+02  0.00000000000E+00 0. -1.
         -5    1    5    5    0  502 -0.85166247289E+01 -0.81889315675E+01 -0.85681052427E+02  0.86619421853E+02  0.47000000000E+01 0.  1.
         11    1    6    6    0    0  0.17919432623E+02  0.59614536026E+01 -0.19968023349E+02  0.27483939875E+02  0.00000000000E+00 0. -1.
        -12    1    6    6    0    0 -0.21624427129E+02  0.17881354725E+02  0.59011941060E+02  0.65343460906E+02  0.00000000000E+00 0.  1.
<mgrwt>
<rscale>  2 0.17389932E+03</rscale>
<asrwt>0</asrwt>
<pdfrwt beam="1">  1       21 0.18399798E-01 0.17410607E+03</pdfrwt>
<pdfrwt beam="2">  1       21 0.39308680E-01 0.17410607E+03</pdfrwt>
<totfact> 0.16915967E+05</totfact>
</mgrwt>
</event>
<event>
12    1  0.1074575E-001  0.1971251E+03  0.7546771E-02  0.1152337E+00
         21   -1    0    0  503  502  0.00000000000E+00  0.00000000000E+00  0.29958070547E+03  0.29958070547E+03  0.00000000000E+00 0. -1.
         21   -1    0    0  501  503 -0.00000000000E+00 -0.00000000000E+00 -0.27727295613E+03  0.27727295613E+03  0.00000000000E+00 0. -1.
          6    2    1    2  501    0 -0.36240912604E+02 -0.81547768938E+02 -0.19959250257E+03  0.28004055183E+03  0.17499171758E+03 0.  0.
         24    2    3    3    0    0  0.15589916622E+02  0.12445560963E+02 -0.12151969175E+03  0.14723002998E+03  0.80695159441E+02 0.  0.
         -6    2    1    2    0  502  0.36240912604E+02  0.81547768938E+02  0.22190025191E+03  0.29681310978E+03  0.17576933171E+03 0.  0.
        -24    2    5    5    0    0  0.67633164375E+02  0.61587920380E+02  0.74631011176E+02  0.14484538855E+03  0.83923071298E+02 0.  0.
          5    1    3    3  501    0 -0.51830829227E+02 -0.93993329901E+02 -0.78072810821E+02  0.13281052185E+03  0.47000000000E+01 0. -1.
        -13    1    4    4    0    0  0.11745110053E+02  0.23882750373E+02 -0.15548582516E+01  0.26659912973E+02  0.00000000000E+00 0.  1.
         14    1    4    4    0    0  0.38448065692E+01 -0.11437189410E+02 -0.11996483350E+03  0.12057011701E+03  0.00000000000E+00 0. -1.
         -5    1    5    5    0  502 -0.31392251771E+02  0.19959848558E+02  0.14726924074E+03  0.15196772122E+03  0.47000000000E+01 0.  1.
         11    1    6    6    0    0  0.75897641629E+02  0.75370183244E+02  0.70961863346E+02  0.12836160866E+03  0.00000000000E+00 0. -1.
        -12    1    6    6    0    0 -0.82644772537E+01 -0.13782262864E+02  0.36691478293E+01  0.16483779898E+02  0.00000000000E+00 0.  1.
<mgrwt>
<rscale>  2 0.19695160E+03</rscale>
<asrwt>0</asrwt>
<pdfrwt beam="1">  1       21 0.46089340E-01 0.19712509E+03</pdfrwt>
<pdfrwt beam="2">  1       21 0.42657377E-01 0.19712509E+03</pdfrwt>
<totfact> 0.23786149E+04</totfact>
</mgrwt>
</event>
<event>
12    1  0.1074575E-001  0.2451554E+03  0.7546771E-02  0.1116436E+00
         21   -1    0    0  501  502  0.00000000000E+00  0.00000000000E+00  0.95802852668E+02  0.95802852668E+02  0.00000000000E+00 0. -1.
         21   -1    0    0  502  503 -0.00000000000E+00 -0.00000000000E+00 -0.67633074112E+03  0.67633074112E+03  0.00000000000E+00 0. -1.
         -6    2    1    2    0  503  0.36385897411E+02  0.16946378579E+03 -0.39479144728E+03  0.46471654427E+03  0.17337609827E+03 0.  0.
        -24    2    3    3    0    0  0.33155004345E+02  0.17609880270E+03 -0.24348360578E+03  0.31315594577E+03  0.81684377094E+02 0.  0.
          6    2    1    2  501    0 -0.36385897411E+02 -0.16946378579E+03 -0.18573644117E+03  0.30741704952E+03  0.17310490613E+03 0.  0.
         24    2    5    5    0    0  0.33681414182E+02 -0.10785295352E+03 -0.59541014887E+02  0.15040527154E+03  0.79434979759E+02 0.  0.
          5    1    5    5  501    0 -0.70067311593E+02 -0.61610832271E+02 -0.12619542629E+03  0.15701177797E+03  0.47000000000E+01 0. -1.
        -13    1    6    6    0    0  0.35831572578E+02 -0.77254573490E+01 -0.70290669181E+01  0.37322808930E+02  0.00000000000E+00 0.  1.
         14    1    6    6    0    0 -0.21501583969E+01 -0.10012749617E+03 -0.52511947969E+02  0.11308246261E+03  0.00000000000E+00 0. -1.
         -5    1    3    3    0  503  0.32308930664E+01 -0.66350169081E+01 -0.15130784150E+03  0.15156059851E+03  0.47000000000E+01 0.  1.
         11    1    4    4    0    0  0.12270920104E+02  0.74857657135E+02 -0.17050633196E+03  0.18661900640E+03  0.00000000000E+00 0. -1.
        -12    1    4    4    0    0  0.20884084240E+02  0.10124114557E+03 -0.72977273814E+02  0.12653693936E+03  0.00000000000E+00 0.  1.
<mgrwt>
<rscale>  2 0.24510748E+03</rscale>
<asrwt>0</asrwt>
<pdfrwt beam="1">  1       21 0.14738900E-01 0.24515542E+03</pdfrwt>
<pdfrwt beam="2">  1       21 0.10405088E+00 0.24515542E+03</pdfrwt>
<totfact> 0.29410342E+04</totfact>
</mgrwt>
</event>
<event>
12    1  0.1074575E-001  0.2744146E+03  0.7546771E-02  0.1098960E+00
         21   -1    0    0  503  502  0.00000000000E+00  0.00000000000E+00  0.58448330160E+03  0.58448330160E+03  0.00000000000E+00 0. -1.
         21   -1    0    0  501  503 -0.00000000000E+00 -0.00000000000E+00 -0.14641973442E+03  0.14641973442E+03  0.00000000000E+00 0.  1.
          6    2    1    2  501    0  0.65006956941E+02  0.20215641808E+03  0.89790816230E+02  0.28751014230E+03  0.17177476364E+03 0.  0.
         24    2    3    3    0    0  0.93170337787E+02  0.10325960314E+03  0.17091481097E+02  0.16149014645E+03  0.80272605472E+02 0.  0.
         -6    2    1    2    0  502 -0.65006956941E+02 -0.20215641808E+03  0.34827275095E+03  0.44339289372E+03  0.17381089531E+03 0.  0.
        -24    2    5    5    0    0 -0.28281388124E+02 -0.16930056721E+03  0.34526308968E+03  0.39380032974E+03  0.80059850349E+02 0.  0.
          5    1    3    3  501    0 -0.28163380846E+02  0.98896814938E+02  0.72699335134E+02  0.12601999585E+03  0.47000000000E+01 0. -1.
        -13    1    4    4    0    0  0.10090980027E+02 -0.12150026188E+02 -0.69747342688E+01  0.17265512804E+02  0.00000000000E+00 0.  1.
         14    1    4    4    0    0  0.83079357760E+02  0.11540962933E+03  0.24066215365E+02  0.14422463364E+03  0.00000000000E+00 0. -1.
         -5    1    5    5    0  502 -0.36725568817E+02 -0.32855850869E+02  0.30096612700E+01  0.49592563981E+02  0.47000000000E+01 0.  1.
         13    1    6    6    0    0 -0.55079379825E+02 -0.12603183352E+03  0.26883337654E+03  0.30197540543E+03  0.00000000000E+00 0. -1.
        -14    1    6    6    0    0  0.26797991701E+02 -0.43268733688E+02  0.76429713135E+02  0.91824924307E+02  0.00000000000E+00 0.  1.
<mgrwt>
<rscale>  2 0.27409271E+03</rscale>
<asrwt>0</asrwt>
<pdfrwt beam="1">  1       21 0.89920507E-01 0.27441456E+03</pdfrwt>
<pdfrwt beam="2">  1       21 0.22526113E-01 0.27441456E+03</pdfrwt>
<totfact> 0.18598930E+04</totfact>
</mgrwt>
</event>
<event>
11    1  0.1074575E-001  0.1925208E+03  0.7546771E-02  0.1156586E+00
         21   -1    0    0  503  502  0.00000000000E+00  0.00000000000E+00  0.55972742678E+02  0.55972742678E+02  0.00000000000E+00 0. -1.
         21   -1    0    0  501  503 -0.00000000000E+00 -0.00000000000E+00 -0.65764356108E+03  0.65764356108E+03  0.00000000000E+00 0. -1.
          6    2    1    2  501    0 -0.73589210864E+02 -0.34180475552E+02 -0.31798328579E+03  0.37172252441E+03  0.17458690743E+03 0.  0.
         -6    2    1    2    0  502  0.73589210864E+02  0.34180475552E+02 -0.28368753262E+03  0.34189377935E+03  0.17271092419E+03 0.  0.
        -24    2    4    4    0    0  0.39959244487E+02  0.24092954255E+01 -0.48448670332E+02  0.10210263095E+03  0.80468177965E+02 0.  0.
          5    1    3    3  501    0 -0.11184942948E+03 -0.32190714245E+02 -0.13445390524E+03  0.17789457437E+03  0.47000000000E+01 0. -1.
        -11    1    3    3    0    0  0.97848527983E+01 -0.22846613485E+02 -0.10203056983E+03  0.10501403845E+03  0.00000000000E+00 0.  1.
         12    1    3    3    0    0  0.28475365818E+02  0.20856852178E+02 -0.81498810718E+02  0.88813911578E+02  0.00000000000E+00 0. -1.
         -5    1    4    4    0  502  0.33629966377E+02  0.31771180127E+02 -0.23523886228E+03  0.23979114841E+03  0.47000000000E+01 0.  1.
         13    1    5    5    0    0  0.62848712566E+02 -0.66178313939E+01 -0.44234487165E+02  0.77139135453E+02  0.00000000000E+00 0. -1.
        -14    1    5    5    0    0 -0.22889468079E+02  0.90271268194E+01 -0.42141831666E+01  0.24963495495E+02  0.00000000000E+00 0.  1.
<mgrwt>
<rscale>  2 0.19209451E+03</rscale>
<asrwt>0</asrwt>
<pdfrwt beam="1">  1       21 0.86111908E-02 0.19252082E+03</pdfrwt>
<pdfrwt beam="2">  1       21 0.10117594E+00 0.19252082E+03</pdfrwt>
<totfact> 0.84273703E+04</totfact>
</mgrwt>
</event>
<event>
12    1  0.1074575E-001  0.3058679E+03  0.7546771E-02  0.1082943E+00
         21   -1    0    0  503  502  0.00000000000E+00  0.00000000000E+00  0.47003132001E+03  0.47003132001E+03  0.00000000000E+00 0.  1.
         21   -1    0    0  501  503 -0.00000000000E+00 -0.00000000000E+00 -0.63304530620E+03  0.63304530620E+03  0.00000000000E+00 0.  1.
          6    2    1    2  501    0 -0.17744560745E+03 -0.17812317295E+03 -0.54003904075E+03  0.62064268038E+03  0.17418485249E+03 0.  0.
         24    2    3    3    0    0 -0.16708142521E+03 -0.95908755434E+02 -0.29038547588E+03  0.35755406571E+03  0.80040572716E+02 0.  0.
         -6    2    1    2    0  502  0.17744560745E+03  0.17812317295E+03  0.37702505456E+03  0.48243394584E+03  0.16546846221E+03 0.  0.
        -24    2    5    5    0    0  0.14583195848E+03  0.14132658580E+03  0.19148039381E+03  0.29059463089E+03  0.80872333461E+02 0.  0.
          5    1    3    3  501    0 -0.10364182235E+02 -0.82214417514E+02 -0.24965356486E+03  0.26308861467E+03  0.47000000000E+01 0. -1.
        -11    1    4    4    0    0 -0.13356738406E+03 -0.50642676629E+02 -0.25108784977E+03  0.28887719724E+03  0.00000000000E+00 0.  1.
         12    1    4    4    0    0 -0.33514041152E+02 -0.45266078805E+02 -0.39297626106E+02  0.68676868466E+02  0.00000000000E+00 0. -1.
         -5    1    5    5    0  502  0.31613648965E+02  0.36796587147E+02  0.18554466075E+03  0.19183931495E+03  0.47000000000E+01 0.  1.
         13    1    6    6    0    0  0.34472775194E+01 -0.31593479071E+01 -0.59213995544E+01  0.75450761544E+01  0.00000000000E+00 0. -1.
        -14    1    6    6    0    0  0.14238468096E+03  0.14448593371E+03  0.19740179336E+03  0.28304955474E+03  0.00000000000E+00 0.  1.
<mgrwt>
<rscale>  2 0.30464091E+03</rscale>
<asrwt>0</asrwt>
<pdfrwt beam="1">  1       21 0.72312511E-01 0.30586790E+03</pdfrwt>
<pdfrwt beam="2">  1       21 0.97391585E-01 0.30586790E+03</pdfrwt>
<totfact> 0.13820533E+03</totfact>
</mgrwt>
</event>
<event>
12    1  0.1074575E-001  0.2065912E+03  0.7546771E-02  0.1144546E+00
         21   -1    0    0  503  502  0.00000000000E+00  0.00000000000E+00  0.30905748478E+03  0.30905748478E+03  0.00000000000E+00 0.  1.
         21   -1    0    0  501  503 -0.00000000000E+00 -0.00000000000E+00 -0.19954458977E+03  0.19954458977E+03  0.00000000000E+00 0. -1.
          6    2    1    2  501    0 -0.29547070763E+02  0.10705896570E+03 -0.87423874379E+02  0.22318303937E+03  0.17272256287E+03 0.  0.
         24    2    3    3    0    0  0.13677165692E+02  0.89329560894E+02  0.16160798330E+01  0.12252088234E+03  0.82715896805E+02 0.  0.
         -6    2    1    2    0  502  0.29547070763E+02 -0.10705896570E+03  0.19693676939E+03  0.28541903519E+03  0.17419897527E+03 0.  0.
        -24    2    5    5    0    0  0.45084055545E+02 -0.79635955672E+02  0.45879234374E+02  0.13103675557E+03  0.81800181318E+02 0.  0.
          5    1    3    3  501    0 -0.43224236455E+02  0.17729404803E+02 -0.89039954212E+02  0.10066215703E+03  0.47000000000E+01 0. -1.
        -13    1    4    4    0    0 -0.23189757427E+02  0.67539522617E+02  0.22506227766E+02  0.74872439877E+02  0.00000000000E+00 0.  1.
         14    1    4    4    0    0  0.36866923119E+02  0.21790038276E+02 -0.20890147933E+02  0.47648442462E+02  0.00000000000E+00 0. -1.
         -5    1    5    5    0  502 -0.15536984782E+02 -0.27423010025E+02  0.15105753501E+03  0.15438227962E+03  0.47000000000E+01 0.  1.
         13    1    6    6    0    0  0.62430034897E+02 -0.61360652803E+02  0.55963766895E+02  0.10389697866E+03  0.00000000000E+00 0. -1.
        -14    1    6    6    0    0 -0.17345979352E+02 -0.18275302869E+02 -0.10084532521E+02  0.27139776911E+02  0.00000000000E+00 0.  1.
<mgrwt>
<rscale>  2 0.20627968E+03</rscale>
<asrwt>0</asrwt>
<pdfrwt beam="1">  1       21 0.47547305E-01 0.20659123E+03</pdfrwt>
<pdfrwt beam="2">  1       21 0.30699168E-01 0.20659123E+03</pdfrwt>
<totfact> 0.42792915E+04</totfact>
</mgrwt>
</event>
<event>
12    1  0.1074575E-001  0.1836128E+03  0.7546771E-02  0.1164686E+00
         21   -1    0    0  501  502  0.00000000000E+00  0.00000000000E+00  0.11037394303E+03  0.11037394303E+03  0.00000000000E+00 0. -1.
         21   -1    0    0  502  503 -0.00000000000E+00 -0.00000000000E+00 -0.30766729906E+03  0.30766729906E+03  0.00000000000E+00 0. -1.
         -6    2    1    2    0  503  0.41826858472E+02  0.43807714278E+02 -0.12448579661E+03  0.22183410993E+03  0.17333509988E+03 0.  0.
        -24    2    3    3    0    0  0.30001650773E+02  0.86260774082E+02 -0.57337940006E+02  0.14137901394E+03  0.91429568659E+02 0.  0.
          6    2    1    2  501    0 -0.41826858472E+02 -0.43807714278E+02 -0.72807559421E+02  0.19620713216E+03  0.17183624787E+03 0.  0.
         24    2    5    5    0    0 -0.58544534900E+02 -0.25584512070E+02 -0.11046516022E+03  0.15091087732E+03  0.80557503977E+02 0.  0.
          5    1    5    5  501    0  0.16717676428E+02 -0.18223202209E+02  0.37657600802E+02  0.45296254835E+02  0.47000000000E+01 0. -1.
        -13    1    6    6    0    0 -0.40582837105E+02 -0.22875835723E+02 -0.85185201362E+01  0.47358586474E+02  0.00000000000E+00 0.  1.
         14    1    6    6    0    0 -0.17961697795E+02 -0.27086763469E+01 -0.10194664009E+03  0.10355229085E+03  0.00000000000E+00 0. -1.
         -5    1    3    3    0  503  0.11825207699E+02 -0.42453059804E+02 -0.67147856599E+02  0.80455095983E+02  0.47000000000E+01 0.  1.
         13    1    4    4    0    0 -0.14181178624E+02 -0.13554568928E+02 -0.45971900728E+01  0.20148605971E+02  0.00000000000E+00 0. -1.
        -14    1    4    4    0    0  0.44182829397E+02  0.99815343010E+02 -0.52740749933E+02  0.12123040797E+03  0.00000000000E+00 0.  1.
<mgrwt>
<rscale>  2 0.18325820E+03</rscale>
<asrwt>0</asrwt>
<pdfrwt beam="1">  1       21 0.16980607E-01 0.18361280E+03</pdfrwt>
<pdfrwt beam="2">  1       21 0.47333430E-01 0.18361280E+03</pdfrwt>
<totfact> 0.13389273E+05</totfact>
</mgrwt>
</event>
<event>
12    1  0.1074575E-001  0.2390631E+03  0.7546771E-02  0.1120756E+00
         21   -1    0    0  503  502  0.00000000000E+00  0.00000000000E+00  0.94734903347E+02  0.94734903347E+02  0.00000000000E+00 0.  1.
         21   -1    0    0  501  503 -0.00000000000E+00 -0.00000000000E+00 -0.12833207887E+04  0.12833207887E+04  0.00000000000E+00 0.  1.
          6    2    1    2  501    0 -0.71901982423E+02 -0.14673601651E+03 -0.10988924541E+04  0.11245958296E+04  0.17449871288E+03 0.  0.
         24    2    3    3    0    0 -0.54224039767E+02 -0.92533330021E+02 -0.10105354921E+04  0.10193367036E+04  0.79766352066E+02 0.  0.
         -6    2    1    2    0  502  0.71901982423E+02  0.14673601651E+03 -0.89693431334E+02  0.25345986247E+03  0.17174293767E+03 0.  0.
        -24    2    5    5    0    0 -0.24313105804E+02  0.43428996701E+02 -0.51467727668E+02  0.10712812304E+03  0.79688787705E+02 0.  0.
          5    1    3    3  501    0 -0.17677942656E+02 -0.54202686486E+02 -0.88356962000E+02  0.10525912603E+03  0.47000000000E+01 0. -1.
        -11    1    4    4    0    0 -0.37489885706E+02 -0.10548976381E+01 -0.40068494802E+03  0.40243637001E+03  0.00000000000E+00 0.  1.
         12    1    4    4    0    0 -0.16734154061E+02 -0.91478432382E+02 -0.60985054404E+03  0.61690033358E+03  0.00000000000E+00 0. -1.
         -5    1    5    5    0  502  0.96215088227E+02  0.10330701981E+03 -0.38225703665E+02  0.14633173943E+03  0.47000000000E+01 0.  1.
         11    1    6    6    0    0  0.55046778292E+01  0.27625032335E+01 -0.56147808654E+02  0.56484593641E+02  0.00000000000E+00 0. -1.
        -12    1    6    6    0    0 -0.29817783633E+02  0.40666493467E+02  0.46800809860E+01  0.50643529396E+02  0.00000000000E+00 0.  1.
<mgrwt>
<rscale>  2 0.23856049E+03</rscale>
<asrwt>0</asrwt>
<pdfrwt beam="1">  1       21 0.14574600E-01 0.23906308E+03</pdfrwt>
<pdfrwt beam="2">  1       21 0.19743397E+00 0.23906308E+03</pdfrwt>
<totfact> 0.55461829E+03</totfact>
</mgrwt>
</event>
<event>
12    1  0.1074575E-001  0.1957004E+03  0.7546771E-02  0.1156744E+00
         21   -1    0    0  503  502  0.00000000000E+00  0.00000000000E+00  0.46248085642E+03  0.46248085642E+03  0.00000000000E+00 0. -1.
         21   -1    0    0  501  503 -0.00000000000E+00 -0.00000000000E+00 -0.90649670377E+02  0.90649670377E+02  0.00000000000E+00 0. -1.
          6    2    1    2  501    0  0.31879974867E+02  0.43407255089E+02  0.71383857119E+02  0.19456776415E+03  0.17280172800E+03 0.  0.
         24    2    3    3    0    0  0.73513013995E+02  0.41666173063E+02  0.63329267683E+01  0.11717231950E+03  0.80925974145E+02 0.  0.
         -6    2    1    2    0  502 -0.31879974867E+02 -0.43407255089E+02  0.30044732893E+03  0.35856276264E+03  0.18814392019E+03 0.  0.
        -24    2    5    5    0    0  0.14229928203E+02 -0.79873570845E+02  0.23033421623E+03  0.26694478451E+03  0.10781182047E+03 0.  0.
          5    1    3    3  501    0 -0.41633039127E+02  0.17410820257E+01  0.65050930351E+02  0.77395444654E+02  0.47000000000E+01 0. -1.
        -13    1    4    4    0    0  0.73263751340E+02 -0.18808342033E+01  0.69823853357E+01  0.73619756198E+02  0.00000000000E+00 0.  1.
         14    1    4    4    0    0  0.24926265477E+00  0.43547007267E+02 -0.64945856740E+00  0.43552563302E+02  0.00000000000E+00 0. -1.
         -5    1    5    5    0  502 -0.46109903070E+02  0.36466315756E+02  0.70113112691E+02  0.91617978133E+02  0.47000000000E+01 0.  1.
         13    1    6    6    0    0  0.18320849903E+02  0.23623995449E+02  0.36580731454E+02  0.47242953081E+02  0.00000000000E+00 0. -1.
        -14    1    6    6    0    0 -0.40909216997E+01 -0.10349756629E+03  0.19375348478E+03  0.21970183143E+03  0.00000000000E+00 0.  1.
<mgrwt>
<rscale>  2 0.19191698E+03</rscale>
<asrwt>0</asrwt>
<pdfrwt beam="1">  1       21 0.71150899E-01 0.19570043E+03</pdfrwt>
<pdfrwt beam="2">  1       21 0.13946103E-01 0.19570043E+03</pdfrwt>
<totfact> 0.79926737E+04</totfact>
</mgrwt>
</event>
<event>
12    1  0.1074575E-001  0.1959394E+03  0.7546771E-02  0.1153325E+00
         21   -1    0    0  501  502  0.00000000000E+00  0.00000000000E+00  0.80730108504E+03  0.80730108504E+03  0.00000000000E+00 0.  1.
         21   -1    0    0  502  503 -0.00000000000E+00 -0.00000000000E+00 -0.49116500707E+02  0.49116500707E+02  0.00000000000E+00 0.  1.
         -6    2    1    2    0  503 -0.60730131078E+02  0.66437861943E+02  0.29920902757E+03  0.35736766699E+03  0.17344586739E+03 0.  0.
        -24    2    3    3    0    0  0.14897483457E+02 -0.13091250840E+02  0.13527732001E+03  0.16003517954E+03  0.83174452331E+02 0.  0.
          6    2    1    2  501    0  0.60730131078E+02 -0.66437861943E+02  0.45897555676E+03  0.49904991875E+03  0.17404057395E+03 0.  0.
         24    2    5    5    0    0  0.10194128387E+03 -0.64037401562E+02  0.40969295718E+03  0.43459073829E+03  0.80795893984E+02 0.  0.
          5    1    5    5  501    0 -0.41211152794E+02 -0.24004603807E+01  0.49282599582E+02  0.64459180466E+02  0.47000000000E+01 0. -1.
        -13    1    6    6    0    0  0.95475192111E+02 -0.34278704973E+02  0.21741691334E+03  0.23991801960E+03  0.00000000000E+00 0.  1.
         14    1    6    6    0    0  0.64660917622E+01 -0.29758696589E+02  0.19227604384E+03  0.19467271868E+03  0.00000000000E+00 0. -1.
         -5    1    3    3    0  503 -0.75627614535E+02  0.79529112783E+02  0.16393170756E+03  0.19733248745E+03  0.47000000000E+01 0.  1.
         11    1    4    4    0    0  0.45974819350E+02  0.19346404090E+01  0.10284638912E+03  0.11267123236E+03  0.00000000000E+00 0. -1.
        -12    1    4    4    0    0 -0.31077335893E+02 -0.15025891249E+02  0.32430930896E+02  0.47363947183E+02  0.00000000000E+00 0.  1.
<mgrwt>
<rscale>  2 0.19580728E+03</rscale>
<asrwt>0</asrwt>
<pdfrwt beam="1">  1       21 0.12420016E+00 0.19593943E+03</pdfrwt>
<pdfrwt beam="2">  1       21 0.75563853E-02 0.19593943E+03</pdfrwt>
<totfact> 0.64127287E+04</totfact>
</mgrwt>
</event>
<event>
12    1  0.1074575E-001  0.2344835E+03  0.7546771E-02  0.1123653E+00
         21   -1    0    0  503  502  0.00000000000E+00  0.00000000000E+00  0.14680497234E+03  0.14680497234E+03  0.00000000000E+00 0. -1.
         21   -1    0    0  501  503 -0.00000000000E+00 -0.00000000000E+00 -0.37878999842E+03  0.37878999842E+03  0.00000000000E+00 0. -1.
          6    2    1    2  501    0 -0.12041345387E+03 -0.10150202455E+03 -0.14773646106E+03  0.27714361992E+03  0.17372525226E+03 0.  0.
         24    2    3    3    0    0 -0.78566373800E+02 -0.78924541503E+02 -0.18502607059E+02  0.13935973163E+03  0.81713095577E+02 0.  0.
         -6    2    1    2    0  502  0.12041345387E+03  0.10150202455E+03 -0.84248565020E+02  0.24845135085E+03  0.17270840214E+03 0.  0.
        -24    2    5    5    0    0  0.36760999553E+02  0.49082641583E+02 -0.31614407392E+01  0.12061263783E+03  0.10381202677E+03 0.  0.
          5    1    3    3  501    0 -0.41847080070E+02 -0.22577483047E+02 -0.12923385400E+03  0.13778388828E+03  0.47000000000E+01 0. -1.
        -11    1    4    4    0    0  0.39746663533E+01 -0.77684530232E+01  0.21553764856E+02  0.23253206542E+02  0.00000000000E+00 0.  1.
         12    1    4    4    0    0 -0.82541040153E+02 -0.71156088480E+02 -0.40056371915E+02  0.11610652509E+03  0.00000000000E+00 0. -1.
         -5    1    5    5    0  502  0.83652454316E+02  0.52419382966E+02 -0.81087124280E+02  0.12783871302E+03  0.47000000000E+01 0.  1.
         13    1    6    6    0    0  0.43772085517E+02  0.71593956608E+02  0.21364258506E+02  0.86591694953E+02  0.00000000000E+00 0. -1.
        -14    1    6    6    0    0 -0.70110859636E+01 -0.22511315024E+02 -0.24525699245E+02  0.34020942873E+02  0.00000000000E+00 0.  1.
<mgrwt>
<rscale>  2 0.23429521E+03</rscale>
<asrwt>0</asrwt>
<pdfrwt beam="1">  1       21 0.22585380E-01 0.23448353E+03</pdfrwt>
<pdfrwt beam="2">  1       21 0.58275384E-01 0.23448353E+03</pdfrwt>
<totfact> 0.49696740E+04</totfact>
</mgrwt>
</event>
<event>
12    1  0.1074575E-001  0.1763588E+03  0.7546771E-02  0.1171757E+00
         21   -1    0    0  503  502  0.00000000000E+00  0.00000000000E+00  0.30456081111E+03  0.30456081111E+03  0.00000000000E+00 0. -1.
         21   -1    0    0  501  503 -0.00000000000E+00 -0.00000000000E+00 -0.75285071896E+03  0.75285071896E+03  0.00000000000E+00 0. -1.
          6    2    1    2  501    0 -0.19458142640E+02  0.30858918128E+00 -0.71615064231E+03  0.73754605455E+03  0.17528184609E+03 0.  0.
         24    2    3    3    0    0  0.35740931835E+02 -0.35406763420E+02 -0.25749734409E+03  0.27418068878E+03  0.79618558023E+02 0.  0.
         -6    2    1    2    0  502  0.19458142640E+02 -0.30858918128E+00  0.26786073445E+03  0.31986547551E+03  0.17374071147E+03 0.  0.
        -24    2    5    5    0    0  0.28023382928E+02  0.83753078946E+01  0.53090118193E+02  0.10469744578E+03  0.85367082241E+02 0.  0.
          5    1    3    3  501    0 -0.55199074475E+02  0.35715352601E+02 -0.45865329821E+03  0.46336536577E+03  0.47000000000E+01 0. -1.
        -11    1    4    4    0    0 -0.35108178442E+00  0.19525762688E+02 -0.20818108746E+02  0.28544216905E+02  0.00000000000E+00 0.  1.
         12    1    4    4    0    0  0.36092013620E+02 -0.54932526108E+02 -0.23667923535E+03  0.24563647188E+03  0.00000000000E+00 0. -1.
         -5    1    5    5    0  502 -0.85652402882E+01 -0.86838970759E+01  0.21477061626E+03  0.21516802973E+03  0.47000000000E+01 0.  1.
         13    1    6    6    0    0  0.32226271162E+02  0.41816618747E+02  0.17349433696E+02  0.55571260612E+02  0.00000000000E+00 0. -1.
        -14    1    6    6    0    0 -0.42028882338E+01 -0.33441310853E+02  0.35740684496E+02  0.49126185170E+02  0.00000000000E+00 0.  1.
<mgrwt>
<rscale>  2 0.17597468E+03</rscale>
<asrwt>0</asrwt>
<pdfrwt beam="1">  1       21 0.46855510E-01 0.17635884E+03</pdfrwt>
<pdfrwt beam="2">  1       21 0.11582319E+00 0.17635884E+03</pdfrwt>
<totfact> 0.25500766E+03</totfact>
</mgrwt>
</event>
<event>
12    1  0.1074575E-001  0.1878784E+03  0.7546771E-02  0.1162819E+00
         21   -1    0    0  503  502  0.00000000000E+00  0.00000000000E+00  0.53376184258E+03  0.53376184258E+03  0.00000000000E+00 0.  1.
         21   -1    0    0  501  503 -0.00000000000E+00 -0.00000000000E+00 -0.11903836107E+03  0.11903836107E+03  0.00000000000E+00 0.  1.
          6    2    1    2  501    0 -0.29676570220E+02 -0.95956217308E+01 -0.14358360771E+02  0.18842623409E+03  0.18527144516E+03 0.  0.
         24    2    3    3    0    0 -0.83449997421E+02  0.31928132065E+02 -0.10599155328E+02  0.12022047753E+03  0.79732762637E+02 0.  0.
         -6    2    1    2    0  502  0.29676570220E+02  0.95956217308E+01  0.42908184229E+03  0.46437396956E+03  0.17481184585E+03 0.  0.
        -24    2    5    5    0    0  0.59601591072E+02  0.11777311661E+02  0.14331419476E+03  0.17699703066E+03  0.84249247543E+02 0.  0.
          5    1    3    3  501    0  0.53773427201E+02 -0.41523753795E+02 -0.37592054438E+01  0.68205756559E+02  0.47000000000E+01 0. -1.
        -13    1    4    4    0    0 -0.49708853452E+02 -0.20682052716E+02  0.92824928126E+01  0.54634074430E+02  0.00000000000E+00 0.  1.
         14    1    4    4    0    0 -0.33741143969E+02  0.52610184781E+02 -0.19881648140E+02  0.65586403102E+02  0.00000000000E+00 0. -1.
         -5    1    5    5    0  502 -0.29925020853E+02 -0.21816899307E+01  0.28576764752E+03  0.28737693890E+03  0.47000000000E+01 0.  1.
         13    1    6    6    0    0 -0.73946006411E+01  0.17598723952E+02  0.44758932002E+00  0.19094385027E+02  0.00000000000E+00 0. -1.
        -14    1    6    6    0    0  0.66996191713E+02 -0.58214122904E+01  0.14286660544E+03  0.15790264563E+03  0.00000000000E+00 0.  1.
<mgrwt>
<rscale>  2 0.18524712E+03</rscale>
<asrwt>0</asrwt>
<pdfrwt beam="1">  1       21 0.82117205E-01 0.18787837E+03</pdfrwt>
<pdfrwt beam="2">  1       21 0.18313594E-01 0.18787837E+03</pdfrwt>
<totfact> 0.35339189E+04</totfact>
</mgrwt>
</event>
<event>
12    1  0.1074575E-001  0.2231361E+03  0.7546771E-02  0.1131588E+00
         21   -1    0    0  501  502  0.00000000000E+00  0.00000000000E+00  0.16101808510E+03  0.16101808510E+03  0.00000000000E+00 0. -1.
         21   -1    0    0  502  503 -0.00000000000E+00 -0.00000000000E+00 -0.32134823774E+03  0.32134823774E+03  0.00000000000E+00 0.  1.
         -6    2    1    2    0  503 -0.13263130857E+03  0.42835237787E+02 -0.12732488304E+03  0.25680242069E+03  0.17409748943E+03 0.  0.
        -24    2    3    3    0    0 -0.14673025526E+03 -0.10349542088E+02 -0.89021048251E+02  0.18959620917E+03  0.79906787387E+02 0.  0.
          6    2    1    2  501    0  0.13263130857E+03 -0.42835237787E+02 -0.33005269609E+02  0.22556390215E+03  0.17425212917E+03 0.  0.
         24    2    5    5    0    0  0.19355527631E+02 -0.25111461650E+02  0.33260867950E+02  0.93054182600E+02  0.80917078583E+02 0.  0.
          5    1    5    5  501    0  0.11327578094E+03 -0.17723776137E+02 -0.66266137559E+02  0.13250971955E+03  0.47000000000E+01 0. -1.
        -11    1    6    6    0    0  0.20404609201E+02  0.70509695045E+01 -0.20904458525E+02  0.30050967269E+02  0.00000000000E+00 0.  1.
         12    1    6    6    0    0 -0.10490815698E+01 -0.32162431154E+02  0.54165326474E+02  0.63003215330E+02  0.00000000000E+00 0. -1.
         -5    1    3    3    0  503  0.14098946689E+02  0.53184779875E+02 -0.38303834786E+02  0.67206211524E+02  0.47000000000E+01 0.  1.
         13    1    4    4    0    0 -0.12850964298E+03  0.21829917496E+02 -0.67097653703E+02  0.14660616894E+03  0.00000000000E+00 0. -1.
        -14    1    4    4    0    0 -0.18220612273E+02 -0.32179459584E+02 -0.21923394548E+02  0.42990040233E+02  0.00000000000E+00 0.  1.
<mgrwt>
<rscale>  2 0.22310592E+03</rscale>
<asrwt>0</asrwt>
<pdfrwt beam="1">  1       21 0.24772013E-01 0.22313612E+03</pdfrwt>
<pdfrwt beam="2">  1       21 0.49438190E-01 0.22313612E+03</pdfrwt>
<totfact> 0.59310364E+04</totfact>
</mgrwt>
</event>
<event>
12    1  0.1074575E-001  0.4847899E+03  0.7546771E-02  0.1017847E+00
         21   -1    0    0  503  502  0.00000000000E+00  0.00000000000E+00  0.43138273959E+03  0.43138273959E+03  0.00000000000E+00 0. -1.
         21   -1    0    0  501  503 -0.00000000000E+00 -0.00000000000E+00 -0.75094101226E+03  0.75094101226E+03  0.00000000000E+00 0.  1.
          6    2    1    2  501    0 -0.37859696267E+03  0.24795243799E+03 -0.46972036894E+03  0.67481030922E+03  0.17296143150E+03 0.  0.
         24    2    3    3    0    0 -0.85076093164E+02  0.51886545279E+02 -0.16247293361E+03  0.20681521134E+03  0.80280273285E+02 0.  0.
         -6    2    1    2    0  502  0.37859696267E+03 -0.24795243799E+03  0.15016209626E+03  0.50751344263E+03  0.17379633957E+03 0.  0.
        -24    2    5    5    0    0  0.32360065544E+03 -0.24443830099E+03  0.85220111194E+02  0.42221107225E+03  0.80822366861E+02 0.  0.
          5    1    3    3  501    0 -0.29352086951E+03  0.19606589271E+03 -0.30724743533E+03  0.46799509788E+03  0.47000000000E+01 0. -1.
        -11    1    4    4    0    0 -0.74572141017E+02  0.35441463925E+02 -0.58903333744E+02  0.10142339132E+03  0.00000000000E+00 0.  1.
         12    1    4    4    0    0 -0.10503952147E+02  0.16445081353E+02 -0.10356959986E+03  0.10539182002E+03  0.00000000000E+00 0. -1.
         -5    1    5    5    0  502  0.54996307226E+02 -0.35141369985E+01  0.64941985070E+02  0.85302370379E+02  0.47000000000E+01 0.  1.
         13    1    6    6    0    0  0.14998506115E+03 -0.72486421309E+02  0.57782011418E+02  0.17631948470E+03  0.00000000000E+00 0. -1.
        -14    1    6    6    0    0  0.17361559429E+03 -0.17195187968E+03  0.27438099776E+02  0.24589158755E+03  0.00000000000E+00 0.  1.
<mgrwt>
<rscale>  2 0.48471520E+03</rscale>
<asrwt>0</asrwt>
<pdfrwt beam="1">  1       21 0.66366576E-01 0.48478989E+03</pdfrwt>
<pdfrwt beam="2">  1       21 0.11552939E+00 0.48478989E+03</pdfrwt>
<totfact> 0.10115895E+03</totfact>
</mgrwt>
</event>
<event>
12    1  0.1074575E-001  0.2052113E+03  0.7546771E-02  0.1145428E+00
         21   -1    0    0  501  502  0.00000000000E+00  0.00000000000E+00  0.44920047942E+02  0.44920047942E+02  0.00000000000E+00 0. -1.
         21   -1    0    0  502  503 -0.00000000000E+00 -0.00000000000E+00 -0.10286513472E+04  0.10286513472E+04  0.00000000000E+00 0.  1.
         -6    2    1    2    0  503 -0.10134889820E+03 -0.42875147153E+02 -0.65198611694E+03  0.68351853238E+03  0.17321030572E+03 0.  0.
        -24    2    3    3    0    0 -0.86887284291E+02 -0.85640077782E+02 -0.36353223448E+03  0.39151560452E+03  0.79026324626E+02 0.  0.
          6    2    1    2  501    0  0.10134889820E+03  0.42875147153E+02 -0.33174518232E+03  0.39005286277E+03  0.17313720672E+03 0.  0.
         24    2    5    5    0    0  0.13858307130E+03  0.24369525567E+02 -0.25865313532E+03  0.30583066255E+03  0.82654753732E+02 0.  0.
          5    1    5    5  501    0 -0.37234173092E+02  0.18505621585E+02 -0.73092046993E+02  0.84222200219E+02  0.47000000000E+01 0. -1.
        -13    1    6    6    0    0 -0.23984155459E+01 -0.57847833117E+01 -0.60268495081E+02  0.60592966707E+02  0.00000000000E+00 0.  1.
         14    1    6    6    0    0  0.14098148684E+03  0.30154308879E+02 -0.19838464024E+03  0.24523769584E+03  0.00000000000E+00 0. -1.
         -5    1    3    3    0  503 -0.14461613913E+02  0.42764930629E+02 -0.28845388247E+03  0.29200292786E+03  0.47000000000E+01 0.  1.
         13    1    4    4    0    0 -0.80952677646E+02 -0.34767021207E+02 -0.27997561579E+03  0.29351052319E+03  0.00000000000E+00 0. -1.
        -14    1    4    4    0    0 -0.59346066448E+01 -0.50873056574E+02 -0.83556618681E+02  0.98005081330E+02  0.00000000000E+00 0.  1.
<mgrwt>
<rscale>  2 0.20519590E+03</rscale>
<asrwt>0</asrwt>
<pdfrwt beam="1">  1       21 0.69107764E-02 0.20521132E+03</pdfrwt>
<pdfrwt beam="2">  1       21 0.15825406E+00 0.20521132E+03</pdfrwt>
<totfact> 0.39789346E+04</totfact>
</mgrwt>
</event>
<event>
12    1  0.1074575E-001  0.2656337E+03  0.7546771E-02  0.1105822E+00
         21   -1    0    0  503  502  0.00000000000E+00  0.00000000000E+00  0.36885400154E+03  0.36885400154E+03  0.00000000000E+00 0. -1.
         21   -1    0    0  501  503 -0.00000000000E+00 -0.00000000000E+00 -0.18236732370E+03  0.18236732370E+03  0.00000000000E+00 0. -1.
          6    2    1    2  501    0 -0.11140377579E+03  0.14632446053E+03  0.74793135933E+02  0.26306040190E+03  0.17258364017E+03 0.  0.
         24    2    3    3    0    0 -0.72163189107E+02  0.16642431628E+03  0.33846097299E+02  0.20270662971E+03  0.83903757441E+02 0.  0.
         -6    2    1    2    0  502  0.11140377579E+03 -0.14632446053E+03  0.11169354191E+03  0.28816092334E+03  0.19167582380E+03 0.  0.
        -24    2    5    5    0    0 -0.11417269244E+02 -0.44908866516E+02  0.86486017448E+02  0.12683007973E+03  0.80367142424E+02 0.  0.
          5    1    3    3  501    0 -0.39240586684E+02 -0.20099855757E+02  0.40947038634E+02  0.60353772191E+02  0.47000000000E+01 0. -1.
        -13    1    4    4    0    0 -0.26316787491E+02  0.20679876387E+02 -0.21979786652E+02  0.40041748370E+02  0.00000000000E+00 0.  1.
         14    1    4    4    0    0 -0.45846401616E+02  0.14574443990E+03  0.55825883952E+02  0.16266488134E+03  0.00000000000E+00 0. -1.
         -5    1    5    5    0  502  0.12282104503E+03 -0.10141559401E+03  0.25207524466E+02  0.16133084361E+03  0.47000000000E+01 0.  1.
         13    1    6    6    0    0  0.13748105000E+02 -0.18152385092E+02  0.87167032552E+02  0.90092236289E+02  0.00000000000E+00 0. -1.
        -14    1    6    6    0    0 -0.25165374244E+02 -0.26756481425E+02 -0.68101510442E+00  0.36737843440E+02  0.00000000000E+00 0.  1.
<mgrwt>
<rscale>  2 0.26221064E+03</rscale>
<asrwt>0</asrwt>
<pdfrwt beam="1">  1       21 0.56746769E-01 0.26563371E+03</pdfrwt>
<pdfrwt beam="2">  1       21 0.28056511E-01 0.26563371E+03</pdfrwt>
<totfact> 0.34227375E+04</totfact>
</mgrwt>
</event>
<event>
12    1  0.1074575E-001  0.2387194E+03  0.7546771E-02  0.1120811E+00
         21   -1    0    0  501  502  0.00000000000E+00  0.00000000000E+00  0.77198778774E+02  0.77198778774E+02  0.00000000000E+00 0.  1.
         21   -1    0    0  502  503 -0.00000000000E+00 -0.00000000000E+00 -0.81146405524E+03  0.81146405524E+03  0.00000000000E+00 0.  1.
         -6    2    1    2    0  503  0.16189972966E+03 -0.13383590645E+02 -0.50401827243E+03  0.55769291560E+03  0.17491805568E+03 0.  0.
        -24    2    3    3    0    0  0.10842693353E+03 -0.60264616461E+00 -0.47787809272E+03  0.49663481652E+03  0.80758320805E+02 0.  0.
          6    2    1    2  501    0 -0.16189972966E+03  0.13383590645E+02 -0.23024700404E+03  0.33096991842E+03  0.17359942703E+03 0.  0.
         24    2    5    5    0    0 -0.12093710505E+03  0.25538759282E+02 -0.66823747003E+02  0.16198786115E+03  0.80601751787E+02 0.  0.
          5    1    5    5  501    0 -0.40962624609E+02 -0.12155168637E+02 -0.16342325704E+03  0.16898205727E+03  0.47000000000E+01 0. -1.
        -13    1    6    6    0    0 -0.62728866181E+02  0.53250672027E+02 -0.45840638351E+02  0.94190810848E+02  0.00000000000E+00 0.  1.
         14    1    6    6    0    0 -0.58208238870E+02 -0.27711912745E+02 -0.20983108652E+02  0.67797050297E+02  0.00000000000E+00 0. -1.
         -5    1    3    3    0  503  0.53472796132E+02 -0.12780944480E+02 -0.26140179707E+02  0.61058099079E+02  0.47000000000E+01 0.  1.
         11    1    4    4    0    0  0.59115842751E+02  0.28390467893E+02 -0.14863513005E+03  0.16245954394E+03  0.00000000000E+00 0. -1.
        -12    1    4    4    0    0  0.49311090777E+02 -0.28993114057E+02 -0.32924296267E+03  0.33417527258E+03  0.00000000000E+00 0.  1.
<mgrwt>
<rscale>  2 0.23847794E+03</rscale>
<asrwt>0</asrwt>
<pdfrwt beam="1">  1       21 0.11876736E-01 0.23871944E+03</pdfrwt>
<pdfrwt beam="2">  1       21 0.12484062E+00 0.23871944E+03</pdfrwt>
<totfact> 0.27872976E+04</totfact>
</mgrwt>
</event>
<event>
12    1  0.1074575E-001  0.1821772E+03  0.7546771E-02  0.1165827E+00
         21   -1    0    0  501  502  0.00000000000E+00  0.00000000000E+00  0.15626824946E+03  0.15626824946E+03  0.00000000000E+00 0. -1.
         21   -1    0    0  502  503 -0.00000000000E+00 -0.00000000000E+00 -0.25560419103E+03  0.25560419103E+03  0.00000000000E+00 0. -1.
         -6    2    1    2    0  503  0.63655899005E+01 -0.54250802692E+02 -0.13495446224E+03  0.22671843383E+03  0.17379548623E+03 0.  0.
        -24    2    3    3    0    0  0.25745390355E+02 -0.69008631595E+02 -0.15755644221E+03  0.19315789632E+03  0.84029304832E+02 0.  0.
          6    2    1    2  501    0 -0.63655899005E+01  0.54250802692E+02  0.35618520670E+02  0.18515400665E+03  0.17329067152E+03 0.  0.
         24    2    5    5    0    0 -0.30107719197E+02  0.51833352336E+02 -0.38355829268E+02  0.10728342672E+03  0.80283203977E+02 0.  0.
          5    1    5    5  501    0  0.23742129296E+02  0.24174503556E+01  0.73974349938E+02  0.77870579930E+02  0.47000000000E+01 0. -1.
        -13    1    6    6    0    0 -0.57828444974E+01 -0.63289062347E+00 -0.48261084692E+02  0.48610432386E+02  0.00000000000E+00 0.  1.
         14    1    6    6    0    0 -0.24324874699E+02  0.52466242960E+02  0.99052554242E+01  0.58672994337E+02  0.00000000000E+00 0. -1.
         -5    1    3    3    0  503 -0.19379800454E+02  0.14757828904E+02  0.22601979968E+02  0.33560537512E+02  0.47000000000E+01 0.  1.
         13    1    4    4    0    0 -0.28725240467E+02 -0.14864233540E+02 -0.29178813661E+02  0.43560165809E+02  0.00000000000E+00 0. -1.
        -14    1    4    4    0    0  0.54470630822E+02 -0.54144398056E+02 -0.12837762855E+03  0.14959773051E+03  0.00000000000E+00 0.  1.
<mgrwt>
<rscale>  2 0.18205672E+03</rscale>
<asrwt>0</asrwt>
<pdfrwt beam="1">  1       21 0.24041269E-01 0.18217723E+03</pdfrwt>
<pdfrwt beam="2">  1       21 0.39323722E-01 0.18217723E+03</pdfrwt>
<totfact> 0.10213260E+05</totfact>
</mgrwt>
</event>
<event>
12    1  0.1074575E-001  0.2178560E+03  0.7546771E-02  0.1135619E+00
         21   -1    0    0  501  502  0.00000000000E+00  0.00000000000E+00  0.23556016943E+04  0.23556016943E+04  0.00000000000E+00 0. -1.
         21   -1    0    0  502  503 -0.00000000000E+00 -0.00000000000E+00 -0.23969661914E+02  0.23969661914E+02  0.00000000000E+00 0.  1.
         -6    2    1    2    0  503 -0.49178846648E+02 -0.12125811066E+03  0.68842007033E+03  0.72206885550E+03  0.17418137243E+03 0.  0.
        -24    2    3    3    0    0 -0.86469303900E+02 -0.89468083171E+02  0.62243958285E+03  0.63974814865E+03  0.79782084282E+02 0.  0.
          6    2    1    2  501    0  0.49178846648E+02  0.12125811066E+03  0.16432119620E+04  0.16575025007E+04  0.17334041434E+03 0.  0.
         24    2    5    5    0    0  0.54969492134E+02  0.86136569004E+02  0.60729495283E+03  0.62096345452E+03  0.79669934931E+02 0.  0.
          5    1    5    5  501    0 -0.57906454858E+01  0.35121541660E+02  0.10359170092E+04  0.10365390461E+04  0.47000000000E+01 0. -1.
        -11    1    6    6    0    0  0.38335637395E+01  0.38818610866E+02  0.79117397326E+02  0.88210789136E+02  0.00000000000E+00 0.  1.
         12    1    6    6    0    0  0.51135928394E+02  0.47317958138E+02  0.52817755550E+03  0.53275266538E+03  0.00000000000E+00 0. -1.
         -5    1    3    3    0  503  0.37290457252E+02 -0.31790027493E+02  0.65980487476E+02  0.82320706858E+02  0.47000000000E+01 0.  1.
         13    1    4    4    0    0 -0.67648770431E+02 -0.10060220712E+03  0.45449292674E+03  0.47038386524E+03  0.00000000000E+00 0. -1.
        -14    1    4    4    0    0 -0.18820533470E+02  0.11134123945E+02  0.16794665611E+03  0.16936428341E+03  0.00000000000E+00 0.  1.
<mgrwt>
<rscale>  2 0.21768787E+03</rscale>
<asrwt>0</asrwt>
<pdfrwt beam="1">  1       21 0.36240008E+00 0.21785600E+03</pdfrwt>
<pdfrwt beam="2">  1       21 0.36876422E-02 0.21785600E+03</pdfrwt>
<totfact> 0.64299752E+03</totfact>
</mgrwt>
</event>
<event>
12    1  0.1074575E-001  0.1905139E+03  0.7546771E-02  0.1158159E+00
         21   -1    0    0  503  502  0.00000000000E+00  0.00000000000E+00  0.14324578820E+04  0.14324578820E+04  0.00000000000E+00 0. -1.
         21   -1    0    0  501  503 -0.00000000000E+00 -0.00000000000E+00 -0.36001173041E+02  0.36001173041E+02  0.00000000000E+00 0.  1.
          6    2    1    2  501    0 -0.51532281999E+02  0.59769763940E+02  0.29778377946E+03  0.35351196763E+03  0.17339991690E+03 0.  0.
         24    2    3    3    0    0  0.24288810366E+02  0.18140748140E+02  0.22308788051E+03  0.23912936264E+03  0.80595388184E+02 0.  0.
         -6    2    1    2    0  502  0.51532281999E+02 -0.59769763940E+02  0.10986729295E+04  0.11149470874E+04  0.17261749893E+03 0.  0.
        -24    2    5    5    0    0  0.97421385866E+02 -0.49397864250E+02  0.65357591987E+03  0.66734589869E+03  0.79107458904E+02 0.  0.
          5    1    3    3  501    0 -0.75821092366E+02  0.41629015800E+02  0.74695898953E+02  0.11438260499E+03  0.47000000000E+01 0. -1.
        -13    1    4    4    0    0 -0.27853588393E+02  0.57029287838E+01  0.45731642978E+02  0.53849131400E+02  0.00000000000E+00 0.  1.
         14    1    4    4    0    0  0.52142398759E+02  0.12437819357E+02  0.17735623753E+03  0.18528023124E+03  0.00000000000E+00 0. -1.
         -5    1    5    5    0  502 -0.45889103867E+02 -0.10371899690E+02  0.44509700962E+03  0.44760118871E+03  0.47000000000E+01 0.  1.
         13    1    6    6    0    0  0.27337450325E+02 -0.25225967235E+02  0.71781984764E+02  0.80847627979E+02  0.00000000000E+00 0. -1.
        -14    1    6    6    0    0  0.70083935541E+02 -0.24171897015E+02  0.58179393511E+03  0.58649827072E+03  0.00000000000E+00 0.  1.
<mgrwt>
<rscale>  2 0.19033565E+03</rscale>
<asrwt>0</asrwt>
<pdfrwt beam="1">  1       21 0.22037809E+00 0.19051386E+03</pdfrwt>
<pdfrwt beam="2">  1       21 0.55386431E-02 0.19051386E+03</pdfrwt>
<totfact> 0.22657444E+04</totfact>
</mgrwt>
</event>
<event>
12    1  0.1074575E-001  0.1967915E+03  0.7546771E-02  0.1152777E+00
         21   -1    0    0  503  502  0.00000000000E+00  0.00000000000E+00  0.65508751291E+02  0.65508751291E+02  0.00000000000E+00 0.  1.
         21   -1    0    0  501  503 -0.00000000000E+00 -0.00000000000E+00 -0.78912911338E+03  0.78912911338E+03  0.00000000000E+00 0.  1.
          6    2    1    2  501    0  0.82195427085E+02  0.39819410012E+02 -0.57712770207E+03  0.60930747674E+03  0.17273547137E+03 0.  0.
         24    2    3    3    0    0  0.53858722542E+02 -0.34111404222E+02 -0.43036108542E+03  0.44248042893E+03  0.80708836282E+02 0.  0.
         -6    2    1    2    0  502 -0.82195427085E+02 -0.39819410012E+02 -0.14649266002E+03  0.24533038793E+03  0.17431358568E+03 0.  0.
        -24    2    5    5    0    0 -0.10670783367E+03 -0.64253038005E+02 -0.14744384868E+03  0.21038965220E+03  0.83720383311E+02 0.  0.
          5    1    3    3  501    0  0.28336704543E+02  0.73930814234E+02 -0.14676661665E+03  0.16682704781E+03  0.47000000000E+01 0. -1.
        -11    1    4    4    0    0 -0.77489732576E+01  0.19015455969E+02 -0.11353253039E+03  0.11537447555E+03  0.00000000000E+00 0.  1.
         12    1    4    4    0    0  0.61607695799E+02 -0.53126860191E+02 -0.31682855503E+03  0.32710595338E+03  0.00000000000E+00 0. -1.
         -5    1    5    5    0  502  0.24512406582E+02  0.24433627993E+02  0.95118865659E+00  0.34940735728E+02  0.47000000000E+01 0.  1.
         11    1    6    6    0    0 -0.13991540263E+02  0.85247685702E+01 -0.63770502971E+02  0.65841566866E+02  0.00000000000E+00 0. -1.
        -12    1    6    6    0    0 -0.92716293404E+02 -0.72777806576E+02 -0.83673345704E+02  0.14454808533E+03  0.00000000000E+00 0.  1.
<mgrwt>
<rscale>  2 0.19644146E+03</rscale>
<asrwt>0</asrwt>
<pdfrwt beam="1">  1       21 0.10078269E-01 0.19679151E+03</pdfrwt>
<pdfrwt beam="2">  1       21 0.12140448E+00 0.19679151E+03</pdfrwt>
<totfact> 0.40968306E+04</totfact>
</mgrwt>
</event>
<event>
12    1  0.1074575E-001  0.1735617E+03  0.7546771E-02  0.1174483E+00
         21   -1    0    0  503  502  0.00000000000E+00  0.00000000000E+00  0.17617912716E+04  0.17617912716E+04  0.00000000000E+00 0.  1.
         21   -1    0    0  501  503 -0.00000000000E+00 -0.00000000000E+00 -0.83489303638E+02  0.83489303638E+02  0.00000000000E+00 0.  1.
          6    2    1    2  501    0  0.69721058065E+01 -0.12183975401E+02  0.16258864163E+02  0.17432154927E+03  0.17299304136E+03 0.  0.
         24    2    3    3    0    0  0.66204830251E+02 -0.21821226253E+02  0.24692847052E+00  0.11203299226E+03  0.87704531909E+02 0.  0.
         -6    2    1    2    0  502 -0.69721058065E+01  0.12183975401E+02  0.16620431038E+04  0.16709590260E+04  0.17181306143E+03 0.  0.
        -24    2    5    5    0    0 -0.61260259323E+02 -0.17544655595E+02  0.12614854651E+04  0.12656202700E+04  0.79927811519E+02 0.  0.
          5    1    3    3  501    0 -0.59232724445E+02  0.96372508527E+01  0.16011935693E+02  0.62288557005E+02  0.47000000000E+01 0. -1.
        -11    1    4    4    0    0  0.44190068654E+02  0.27307723536E+02 -0.18324122453E+02  0.55084003086E+02  0.00000000000E+00 0.  1.
         12    1    4    4    0    0  0.22014761598E+02 -0.49128949789E+02  0.18571050924E+02  0.56948989174E+02  0.00000000000E+00 0. -1.
         -5    1    5    5    0  502  0.54288153517E+02  0.29728630996E+02  0.40055763878E+03  0.40533875597E+03  0.47000000000E+01 0.  1.
         11    1    6    6    0    0 -0.38499326917E+02  0.12340682722E+02  0.23533633627E+03  0.23878375529E+03  0.00000000000E+00 0. -1.
        -12    1    6    6    0    0 -0.22760932406E+02 -0.29885338317E+02  0.10261491288E+04  0.10268365147E+04  0.00000000000E+00 0.  1.
<mgrwt>
<rscale>  2 0.17326689E+03</rscale>
<asrwt>0</asrwt>
<pdfrwt beam="1">  1       21 0.27104478E+00 0.17356167E+03</pdfrwt>
<pdfrwt beam="2">  1       21 0.12844510E-01 0.17356167E+03</pdfrwt>
<totfact> 0.26653876E+03</totfact>
</mgrwt>
</event>
<event>
12    1  0.1074575E-001  0.2138730E+03  0.7546771E-02  0.1139037E+00
         21   -1    0    0  501  502  0.00000000000E+00  0.00000000000E+00  0.88013327237E+03  0.88013327237E+03  0.00000000000E+00 0.  1.
         21   -1    0    0  502  503 -0.00000000000E+00 -0.00000000000E+00 -0.57997125397E+02  0.57997125397E+02  0.00000000000E+00 0.  1.
         -6    2    1    2    0  503  0.12392515337E+03 -0.39797964589E+01  0.57211126027E+03  0.61078062521E+03  0.17426530228E+03 0.  0.
        -24    2    3    3    0    0  0.14825108244E+03 -0.80128965821E+01  0.55623722852E+03  0.58108059818E+03  0.78817620069E+02 0.  0.
          6    2    1    2  501    0 -0.12392515337E+03  0.39797964589E+01  0.25002488670E+03  0.32734977256E+03  0.17109104946E+03 0.  0.
         24    2    5    5    0    0 -0.13718509108E+03 -0.33537580612E+02  0.23834296106E+03  0.28561325477E+03  0.69448151087E+02 0.  0.
          5    1    5    5  501    0  0.13259937703E+02  0.37517377071E+02  0.11681925642E+02  0.41736517785E+02  0.47000000000E+01 0. -1.
        -11    1    6    6    0    0 -0.38385032842E+02 -0.29803275751E+02  0.36238358155E+02  0.60620661441E+02  0.00000000000E+00 0.  1.
         12    1    6    6    0    0 -0.98800058234E+02 -0.37343048610E+01  0.20210460290E+03  0.22499259333E+03  0.00000000000E+00 0. -1.
         -5    1    3    3    0  503 -0.24325929061E+02  0.40331001232E+01  0.15874031747E+02  0.29700027023E+02  0.47000000000E+01 0.  1.
         13    1    4    4    0    0 -0.65604777280E+01 -0.11336968892E+02  0.37280989810E+02  0.39515046918E+02  0.00000000000E+00 0. -1.
        -14    1    4    4    0    0  0.15481156016E+03  0.33240723101E+01  0.51895623871E+03  0.54156555126E+03  0.00000000000E+00 0.  1.
<mgrwt>
<rscale>  2 0.21322551E+03</rscale>
<asrwt>0</asrwt>
<pdfrwt beam="1">  1       21 0.13540511E+00 0.21387304E+03</pdfrwt>
<pdfrwt beam="2">  1       21 0.89226353E-02 0.21387304E+03</pdfrwt>
<totfact> 0.38198502E+04</totfact>
</mgrwt>
</event>
<event>
12    1  0.1074575E-001  0.2194456E+03  0.7546771E-02  0.1135171E+00
         21   -1    0    0  503  502  0.00000000000E+00  0.00000000000E+00  0.37542468949E+03  0.37542468949E+03  0.00000000000E+00 0. -1.
         21   -1    0    0  501  503 -0.00000000000E+00 -0.00000000000E+00 -0.14307006804E+03  0.14307006804E+03  0.00000000000E+00 0. -1.
          6    2    1    2  501    0 -0.48103240996E+01 -0.12889385819E+03  0.20788860833E+03  0.30228142674E+03  0.17753766243E+03 0.  0.
         24    2    3    3    0    0  0.14409916687E+02 -0.59129315622E+02  0.20579778044E+03  0.22973509246E+03  0.81985148723E+02 0.  0.
         -6    2    1    2    0  502  0.48103240996E+01  0.12889385819E+03  0.24466013112E+02  0.21621333079E+03  0.17179305200E+03 0.  0.
        -24    2    5    5    0    0  0.64484979375E+02  0.87817986196E+02 -0.10664652457E+02  0.13556256882E+03  0.79957263519E+02 0.  0.
          5    1    3    3  501    0 -0.19220240786E+02 -0.69764542569E+02  0.20908278922E+01  0.72546334277E+02  0.47000000000E+01 0. -1.
        -13    1    4    4    0    0 -0.31549737064E+02 -0.11697668498E+02  0.94552829071E+02  0.10036164029E+03  0.00000000000E+00 0.  1.
         14    1    4    4    0    0  0.45959653750E+02 -0.47431647124E+02  0.11124495137E+03  0.12937345217E+03  0.00000000000E+00 0. -1.
         -5    1    5    5    0  502 -0.59674655275E+02  0.41075871994E+02  0.35130665569E+02  0.80650761966E+02  0.47000000000E+01 0.  1.
         13    1    6    6    0    0 -0.12328291791E+02  0.10688205479E+02 -0.20573377694E+02  0.26258110834E+02  0.00000000000E+00 0. -1.
        -14    1    6    6    0    0  0.76813271165E+02  0.77129780717E+02  0.99087252365E+01  0.10930445799E+03  0.00000000000E+00 0.  1.
<mgrwt>
<rscale>  2 0.21828115E+03</rscale>
<asrwt>0</asrwt>
<pdfrwt beam="1">  1       21 0.57757644E-01 0.21944564E+03</pdfrwt>
<pdfrwt beam="2">  1       21 0.22010780E-01 0.21944564E+03</pdfrwt>
<totfact> 0.53540134E+04</totfact>
</mgrwt>
</event>
<event>
12    1  0.1074575E-001  0.1808078E+03  0.7546771E-02  0.1167164E+00
         21   -1    0    0  501  502  0.00000000000E+00  0.00000000000E+00  0.20355488124E+03  0.20355488124E+03  0.00000000000E+00 0.  1.
         21   -1    0    0  502  503 -0.00000000000E+00 -0.00000000000E+00 -0.24361587993E+03  0.24361587993E+03  0.00000000000E+00 0.  1.
         -6    2    1    2    0  503 -0.21896969013E+01  0.52045693334E+02 -0.15097440608E+03  0.23555196400E+03  0.17314129342E+03 0.  0.
        -24    2    3    3    0    0  0.62959469990E+02  0.13491812784E+02 -0.97625408968E+02  0.14282105683E+03  0.81982985578E+02 0.  0.
          6    2    1    2  501    0  0.21896969013E+01 -0.52045693334E+02  0.11091340739E+03  0.21161879717E+03  0.17253168523E+03 0.  0.
         24    2    5    5    0    0  0.41468202825E+02 -0.78613408315E+02  0.11122217436E+03  0.16396557226E+03  0.81330541648E+02 0.  0.
          5    1    5    5  501    0 -0.39278505924E+02  0.26567714981E+02 -0.30876697230E+00  0.47653224906E+02  0.47000000000E+01 0. -1.
        -13    1    6    6    0    0  0.28088499864E+00 -0.36406227108E+02  0.96562042683E+02  0.10319748231E+03  0.00000000000E+00 0.  1.
         14    1    6    6    0    0  0.41187317826E+02 -0.42207181207E+02  0.14660131679E+02  0.60768089949E+02  0.00000000000E+00 0. -1.
         -5    1    3    3    0  503 -0.65149166892E+02  0.38553880550E+02 -0.53348997107E+02  0.92730907169E+02  0.47000000000E+01 0.  1.
         13    1    4    4    0    0  0.25777452485E+02  0.87237514766E+01  0.98923053891E+01  0.28955804295E+02  0.00000000000E+00 0. -1.
        -14    1    4    4    0    0  0.37182017505E+02  0.47680613073E+01 -0.10751771436E+03  0.11386525254E+03  0.00000000000E+00 0.  1.
<mgrwt>
<rscale>  2 0.18066169E+03</rscale>
<asrwt>0</asrwt>
<pdfrwt beam="1">  1       21 0.31316136E-01 0.18080779E+03</pdfrwt>
<pdfrwt beam="2">  1       21 0.37479366E-01 0.18080779E+03</pdfrwt>
<totfact> 0.67617895E+04</totfact>
</mgrwt>
</event>
<event>
12    1  0.1074575E-001  0.2364551E+03  0.7546771E-02  0.1122470E+00
         21   -1    0    0  501  502  0.00000000000E+00  0.00000000000E+00  0.36762711948E+03  0.36762711948E+03  0.00000000000E+00 0.  1.
         21   -1    0    0  502  503 -0.00000000000E+00 -0.00000000000E+00 -0.19023501209E+03  0.19023501209E+03  0.00000000000E+00 0.  1.
         -6    2    1    2    0  503 -0.14309839870E+03  0.70113809623E+02  0.21514065599E+03  0.31841278959E+03  0.17236039193E+03 0.  0.
        -24    2    3    3    0    0 -0.92063706971E+02  0.73146665908E+02  0.58725117273E+02  0.15378700568E+03  0.79847622652E+02 0.  0.
          6    2    1    2  501    0  0.14309839870E+03 -0.70113809623E+02 -0.37748548596E+02  0.23944934198E+03  0.17469383630E+03 0.  0.
         24    2    5    5    0    0  0.14815780137E+03 -0.78954461738E+02 -0.74469952056E+02  0.20105264736E+03  0.81803741456E+02 0.  0.
          5    1    5    5  501    0 -0.50594026744E+01  0.88406521149E+01  0.36721403461E+02  0.38396694615E+02  0.47000000000E+01 0. -1.
        -11    1    6    6    0    0  0.12471529534E+03 -0.94768873360E+02 -0.72793324482E+02  0.17272496154E+03  0.00000000000E+00 0.  1.
         12    1    6    6    0    0  0.23442506034E+02  0.15814411622E+02 -0.16766275747E+01  0.28327685824E+02  0.00000000000E+00 0. -1.
         -5    1    3    3    0  503 -0.51034691728E+02 -0.30328562847E+01  0.15641553872E+03  0.16462578391E+03  0.47000000000E+01 0.  1.
         13    1    4    4    0    0 -0.72211596140E+02  0.33322430009E+02 -0.71945684983E+00  0.79532487557E+02  0.00000000000E+00 0. -1.
        -14    1    4    4    0    0 -0.19852110831E+02  0.39824235898E+02  0.59444574122E+02  0.74254518125E+02  0.00000000000E+00 0.  1.
<mgrwt>
<rscale>  2 0.23602429E+03</rscale>
<asrwt>0</asrwt>
<pdfrwt beam="1">  1       21 0.56558018E-01 0.23645514E+03</pdfrwt>
<pdfrwt beam="2">  1       21 0.29266925E-01 0.23645514E+03</pdfrwt>
<totfact> 0.32147677E+04</totfact>
</mgrwt>
</event>
<event>
12    1  0.1074575E-001  0.2700928E+03  0.7546771E-02  0.1101260E+00
         21   -1    0    0  503  502  0.00000000000E+00  0.00000000000E+00  0.10582321351E+04  0.10582321351E+04  0.00000000000E+00 0. -1.
         21   -1    0    0  501  503 -0.00000000000E+00 -0.00000000000E+00 -0.13835563741E+03  0.13835563741E+03  0.00000000000E+00 0. -1.
          6    2    1    2  501    0 -0.16604661335E+03  0.12373863897E+03  0.35856909890E+02  0.27222814137E+03  0.17303096368E+03 0.  0.
         24    2    3    3    0    0 -0.28667162904E+02  0.62879655968E+02  0.59624817674E+02  0.12003112216E+03  0.77953152865E+02 0.  0.
         -6    2    1    2    0  502  0.16604661335E+03 -0.12373863897E+03  0.88401958780E+03  0.92435963115E+03  0.17339944493E+03 0.  0.
        -24    2    5    5    0    0  0.10584122151E+03 -0.15228673519E+03  0.62993478067E+03  0.66164141286E+03  0.80980969574E+02 0.  0.
          5    1    3    3  501    0 -0.13737945044E+03  0.60858983004E+02 -0.23767907784E+02  0.15219701921E+03  0.47000000000E+01 0. -1.
        -13    1    4    4    0    0 -0.16572050882E+01  0.53756056583E+02 -0.17638344143E+00  0.53781884117E+02  0.00000000000E+00 0.  1.
         14    1    4    4    0    0 -0.27009957816E+02  0.91235993851E+01  0.59801201116E+02  0.66249238047E+02  0.00000000000E+00 0. -1.
         -5    1    5    5    0  502  0.60205391835E+02  0.28548096215E+02  0.25408480713E+03  0.26271821829E+03  0.47000000000E+01 0.  1.
         11    1    6    6    0    0  0.75764980134E+01 -0.69932087724E+02  0.28783116011E+03  0.29630166545E+03  0.00000000000E+00 0. -1.
        -12    1    6    6    0    0  0.98264723498E+02 -0.82354647463E+02  0.34210362055E+03  0.36533974741E+03  0.00000000000E+00 0.  1.
<mgrwt>
<rscale>  2 0.27003363E+03</rscale>
<asrwt>0</asrwt>
<pdfrwt beam="1">  1       21 0.16280494E+00 0.27009275E+03</pdfrwt>
<pdfrwt beam="2">  1       21 0.21285483E-01 0.27009275E+03</pdfrwt>
<totfact> 0.46549644E+03</totfact>
</mgrwt>
</event>
<event>
12    1  0.1074575E-001  0.2358711E+03  0.7546771E-02  0.1122686E+00
         21   -1    0    0  503  502  0.00000000000E+00  0.00000000000E+00  0.40024219070E+03  0.40024219070E+03  0.00000000000E+00 0. -1.
         21   -1    0    0  501  503 -0.00000000000E+00 -0.00000000000E+00 -0.27038675148E+03  0.27038675148E+03  0.00000000000E+00 0. -1.
          6    2    1    2  501    0  0.13750065987E+03  0.76945703756E+02 -0.16910658035E+03  0.29022783594E+03  0.17552233033E+03 0.  0.
         24    2    3    3    0    0 -0.33107470218E+01  0.35277119837E+02 -0.77893900652E+02  0.11729442062E+03  0.80218982285E+02 0.  0.
         -6    2    1    2    0  502 -0.13750065987E+03 -0.76945703756E+02  0.29896201957E+03  0.38040110624E+03  0.17464146039E+03 0.  0.
        -24    2    5    5    0    0 -0.14160089690E+03 -0.75406327555E+02  0.15882532950E+03  0.24011723857E+03  0.81816103122E+02 0.  0.
          5    1    3    3  501    0  0.14081140689E+03  0.41668583919E+02 -0.91212679701E+02  0.17293341532E+03  0.47000000000E+01 0. -1.
        -11    1    4    4    0    0 -0.17562775201E+02 -0.22292439365E+02 -0.24447748524E+02  0.37457927512E+02  0.00000000000E+00 0.  1.
         12    1    4    4    0    0  0.14252028179E+02  0.57569559201E+02 -0.53446152128E+02  0.79836493104E+02  0.00000000000E+00 0. -1.
         -5    1    5    5    0  502  0.41002370275E+01 -0.15393762012E+01  0.14013669008E+03  0.14028386767E+03  0.47000000000E+01 0.  1.
         13    1    6    6    0    0 -0.12192970853E+03 -0.59696074608E+02  0.16551449030E+03  0.21406896469E+03  0.00000000000E+00 0. -1.
        -14    1    6    6    0    0 -0.19671188369E+02 -0.15710252947E+02 -0.66891608050E+01  0.26048273873E+02  0.00000000000E+00 0.  1.
<mgrwt>
<rscale>  2 0.23570721E+03</rscale>
<asrwt>0</asrwt>
<pdfrwt beam="1">  1       21 0.61575722E-01 0.23587107E+03</pdfrwt>
<pdfrwt beam="2">  1       21 0.41597962E-01 0.23587107E+03</pdfrwt>
<totfact> 0.13279713E+04</totfact>
</mgrwt>
</event>
<event>
12    1  0.1074575E-001  0.1832009E+03  0.7546771E-02  0.1165158E+00
         21   -1    0    0  503  502  0.00000000000E+00  0.00000000000E+00  0.33740068427E+04  0.33740068427E+04  0.00000000000E+00 0. -1.
         21   -1    0    0  501  503 -0.00000000000E+00 -0.00000000000E+00 -0.11197552682E+02  0.11197552682E+02  0.00000000000E+00 0. -1.
          6    2    1    2  501    0 -0.55660519488E+02  0.18912587238E+02  0.22751995782E+04  0.22825634046E+04  0.17351309951E+03 0.  0.
         24    2    3    3    0    0  0.20943822343E+02  0.27594103021E+02  0.66036507815E+03  0.66588280947E+03  0.78216374855E+02 0.  0.
         -6    2    1    2    0  502  0.55660519488E+02 -0.18912587238E+02  0.10876097118E+04  0.11026409908E+04  0.17165806146E+03 0.  0.
        -24    2    5    5    0    0  0.75040697157E+02  0.30447722273E+02  0.91119899037E+03  0.91837253428E+03  0.81032966453E+02 0.  0.
          5    1    3    3  501    0 -0.76604341831E+02 -0.86815157827E+01  0.16148345001E+04  0.16166805951E+04  0.47000000000E+01 0. -1.
        -13    1    4    4    0    0  0.30521703062E+02 -0.94953680768E+00  0.56617295871E+03  0.56699585109E+03  0.00000000000E+00 0.  1.
         14    1    4    4    0    0 -0.95778807197E+01  0.28543639828E+02  0.94192119438E+02  0.98886958381E+02  0.00000000000E+00 0. -1.
         -5    1    5    5    0  502 -0.19380177669E+02 -0.49360309511E+02  0.17641072141E+03  0.18426845652E+03  0.47000000000E+01 0.  1.
         13    1    6    6    0    0  0.41731494177E+02 -0.24348014368E+02  0.30676466588E+03  0.31054613770E+03  0.00000000000E+00 0. -1.
        -14    1    6    6    0    0  0.33309202981E+02  0.54795736641E+02  0.60443432449E+03  0.60782639658E+03  0.00000000000E+00 0.  1.
<mgrwt>
<rscale>  2 0.18276034E+03</rscale>
<asrwt>0</asrwt>
<pdfrwt beam="1">  1       21 0.51907716E+00 0.18320091E+03</pdfrwt>
<pdfrwt beam="2">  1       21 0.17227031E-02 0.18320091E+03</pdfrwt>
<totfact> 0.22034722E+03</totfact>
</mgrwt>
</event>
<event>
12    1  0.1074575E-001  0.2056811E+03  0.7546771E-02  0.1145853E+00
         21   -1    0    0  501  502  0.00000000000E+00  0.00000000000E+00  0.21863651738E+03  0.21863651738E+03  0.00000000000E+00 0.  1.
         21   -1    0    0  502  503 -0.00000000000E+00 -0.00000000000E+00 -0.20656970946E+03  0.20656970946E+03  0.00000000000E+00 0.  1.
         -6    2    1    2    0  503  0.97627676552E+02 -0.38620763556E+02 -0.54673221953E+02  0.20896803416E+03  0.17220845361E+03 0.  0.
        -24    2    3    3    0    0  0.59194239377E+02  0.43064892541E+02 -0.48359532757E+02  0.11834999966E+03  0.79432581891E+02 0.  0.
          6    2    1    2  501    0 -0.97627676552E+02  0.38620763556E+02  0.66740029875E+02  0.21623819268E+03  0.17686717553E+03 0.  0.
         24    2    5    5    0    0 -0.58773996217E+02  0.82042711143E+02  0.29724710456E+01  0.12973116657E+03  0.81461346126E+02 0.  0.
          5    1    5    5  501    0 -0.38853680335E+02 -0.43421947587E+02  0.63767558830E+02  0.86507026113E+02  0.47000000000E+01 0. -1.
        -11    1    6    6    0    0 -0.60458922728E+02  0.42842936764E+02  0.32211857342E+02  0.80798529203E+02  0.00000000000E+00 0.  1.
         12    1    6    6    0    0  0.16849265110E+01  0.39199774379E+02 -0.29239386296E+02  0.48932637367E+02  0.00000000000E+00 0. -1.
         -5    1    3    3    0  503  0.38433437175E+02 -0.81685656096E+02 -0.63136891958E+01  0.90618034498E+02  0.47000000000E+01 0.  1.
         13    1    4    4    0    0  0.18650321292E+02  0.40409378156E+01 -0.58176948403E+02  0.61226799591E+02  0.00000000000E+00 0. -1.
        -14    1    4    4    0    0  0.40543918085E+02  0.39023954725E+02  0.98174156454E+01  0.57123200068E+02  0.00000000000E+00 0.  1.
<mgrwt>
<rscale>  2 0.20467576E+03</rscale>
<asrwt>0</asrwt>
<pdfrwt beam="1">  1       21 0.33636388E-01 0.20568112E+03</pdfrwt>
<pdfrwt beam="2">  1       21 0.31779955E-01 0.20568112E+03</pdfrwt>
<totfact> 0.80602198E+04</totfact>
</mgrwt>
</event>
<event>
12    1  0.1074575E-001  0.2272329E+03  0.7546771E-02  0.1128808E+00
         21   -1    0    0  503  502  0.00000000000E+00  0.00000000000E+00  0.21073915046E+03  0.21073915046E+03  0.00000000000E+00 0. -1.
         21   -1    0    0  501  503 -0.00000000000E+00 -0.00000000000E+00 -0.24486658797E+03  0.24486658797E+03  0.00000000000E+00 0. -1.
          6    2    1    2  501    0  0.13970830868E+03 -0.41875059813E+02 -0.32265011998E+02  0.22951210184E+03  0.17424936655E+03 0.  0.
         24    2    3    3    0    0  0.11369444822E+03 -0.91428111197E+02 -0.57487871256E+01  0.16740392187E+03  0.81887101741E+02 0.  0.
         -6    2    1    2    0  502 -0.13970830868E+03  0.41875059813E+02 -0.18624255147E+01  0.22609363658E+03  0.17275106866E+03 0.  0.
        -24    2    5    5    0    0 -0.13617111472E+02  0.55925265014E+02 -0.14243490392E+02  0.98532752890E+02  0.78694125459E+02 0.  0.
          5    1    3    3  501    0  0.26013860464E+02  0.49553051384E+02 -0.26516224872E+02  0.62108179970E+02  0.47000000000E+01 0. -1.
        -11    1    4    4    0    0  0.64785833715E+01 -0.48978918494E+02  0.11715425196E+02  0.50775561906E+02  0.00000000000E+00 0.  1.
         12    1    4    4    0    0  0.10721586485E+03 -0.42449192704E+02 -0.17464212322E+02  0.11662835997E+03  0.00000000000E+00 0. -1.
         -5    1    5    5    0  502 -0.12609119721E+03 -0.14050205201E+02  0.12381064877E+02  0.12756088369E+03  0.47000000000E+01 0.  1.
         11    1    6    6    0    0 -0.39735233463E+01 -0.14147197216E+02  0.15894858001E+02  0.21646676135E+02  0.00000000000E+00 0. -1.
        -12    1    6    6    0    0 -0.96435881253E+01  0.70072462230E+02 -0.30138348393E+02  0.76886076755E+02  0.00000000000E+00 0.  1.
<mgrwt>
<rscale>  2 0.22694559E+03</rscale>
<asrwt>0</asrwt>
<pdfrwt beam="1">  1       21 0.32421408E-01 0.22723286E+03</pdfrwt>
<pdfrwt beam="2">  1       21 0.37671783E-01 0.22723286E+03</pdfrwt>
<totfact> 0.61263161E+04</totfact>
</mgrwt>
</event>
<event>
12    1  0.1074575E-001  0.2044000E+03  0.7546771E-02  0.1146222E+00
         21   -1    0    0  501  502  0.00000000000E+00  0.00000000000E+00  0.20753889596E+03  0.20753889596E+03  0.00000000000E+00 0.  1.
         21   -1    0    0  502  503 -0.00000000000E+00 -0.00000000000E+00 -0.35183381263E+03  0.35183381263E+03  0.00000000000E+00 0. -1.
         -6    2    1    2    0  503  0.56444617170E+02 -0.91685108821E+02 -0.25557206772E+03  0.32725592557E+03  0.17374465469E+03 0.  0.
        -24    2    3    3    0    0  0.38420791558E+02 -0.70219728138E+02 -0.56383889890E+02  0.12605045585E+03  0.79388959796E+02 0.  0.
          6    2    1    2  501    0 -0.56444617170E+02  0.91685108821E+02  0.11127715105E+03  0.23211678303E+03  0.17292611899E+03 0.  0.
         24    2    5    5    0    0 -0.90734313348E+02  0.30400821341E+02  0.37647719092E+02  0.13025938071E+03  0.79957676013E+02 0.  0.
          5    1    5    5  501    0  0.34289696178E+02  0.61284287480E+02  0.73629431959E+02  0.10185740232E+03  0.47000000000E+01 0. -1.
        -11    1    6    6    0    0 -0.26135357420E+02 -0.17432006140E+02  0.38733095074E+02  0.49871679333E+02  0.00000000000E+00 0.  1.
         12    1    6    6    0    0 -0.64598955928E+02  0.47832827480E+02 -0.10853759815E+01  0.80387701377E+02  0.00000000000E+00 0. -1.
         -5    1    3    3    0  503  0.18023825612E+02 -0.21465380683E+02 -0.19918817783E+03  0.20120546972E+03  0.47000000000E+01 0.  1.
         13    1    4    4    0    0 -0.12856701219E+02 -0.36566983623E+02 -0.51590486619E+02  0.64529197787E+02  0.00000000000E+00 0. -1.
        -14    1    4    4    0    0  0.51277492776E+02 -0.33652744515E+02 -0.47934032711E+01  0.61521258064E+02  0.00000000000E+00 0.  1.
<mgrwt>
<rscale>  2 0.20422595E+03</rscale>
<asrwt>0</asrwt>
<pdfrwt beam="1">  1       21 0.31929061E-01 0.20440000E+03</pdfrwt>
<pdfrwt beam="2">  1       21 0.54128279E-01 0.20440000E+03</pdfrwt>
<totfact> 0.30238413E+04</totfact>
</mgrwt>
</event>
<event>
12    1  0.1074575E-001  0.2381939E+03  0.7546771E-02  0.1121103E+00
         21   -1    0    0  503  502  0.00000000000E+00  0.00000000000E+00  0.10186816028E+04  0.10186816028E+04  0.00000000000E+00 0.  1.
         21   -1    0    0  501  503 -0.00000000000E+00 -0.00000000000E+00 -0.62222731525E+02  0.62222731525E+02  0.00000000000E+00 0. -1.
          6    2    1    2  501    0 -0.14531973832E+03 -0.76515063523E+02  0.30078214472E+03  0.38330252269E+03  0.17169316827E+03 0.  0.
         24    2    3    3    0    0 -0.10563288792E+02 -0.37249121474E+00  0.10677001079E+03  0.13506918464E+03  0.82049543670E+02 0.  0.
         -6    2    1    2    0  502  0.14531973832E+03  0.76515063523E+02  0.65567672660E+03  0.69760181168E+03  0.17252227844E+03 0.  0.
        -24    2    5    5    0    0  0.20923290351E+02  0.59692288348E+02  0.41115385369E+03  0.42269999755E+03  0.75012286736E+02 0.  0.
          5    1    3    3  501    0 -0.13475644953E+03 -0.76142572308E+02  0.19401213392E+03  0.24823333804E+03  0.47000000000E+01 0. -1.
        -11    1    4    4    0    0  0.20422690374E+02 -0.26309581805E+02  0.79841655657E+02  0.86509943676E+02  0.00000000000E+00 0.  1.
         12    1    4    4    0    0 -0.30985979166E+02  0.25937090590E+02  0.26928355134E+02  0.48559240968E+02  0.00000000000E+00 0. -1.
         -5    1    5    5    0  502  0.12439644797E+03  0.16822775175E+02  0.24452287292E+03  0.27490181413E+03  0.47000000000E+01 0.  1.
         11    1    6    6    0    0 -0.18061304494E+02 -0.58156414975E+01  0.47648973927E+02  0.51287982242E+02  0.00000000000E+00 0. -1.
        -12    1    6    6    0    0  0.38984594845E+02  0.65507929845E+02  0.36350487976E+03  0.37141201531E+03  0.00000000000E+00 0.  1.
<mgrwt>
<rscale>  2 0.23804377E+03</rscale>
<asrwt>0</asrwt>
<pdfrwt beam="1">  1       21 0.15672023E+00 0.23819387E+03</pdfrwt>
<pdfrwt beam="2">  1       21 0.95727287E-02 0.23819387E+03</pdfrwt>
<totfact> 0.22669043E+04</totfact>
</mgrwt>
</event>
<event>
12    1  0.1074575E-001  0.1866065E+03  0.7546771E-02  0.1164127E+00
         21   -1    0    0  501  502  0.00000000000E+00  0.00000000000E+00  0.45051358728E+03  0.45051358728E+03  0.00000000000E+00 0. -1.
         21   -1    0    0  502  503 -0.00000000000E+00 -0.00000000000E+00 -0.75770841308E+02  0.75770841308E+02  0.00000000000E+00 0. -1.
         -6    2    1    2    0  503  0.31315845659E+02  0.13117382272E+01  0.14147846032E+03  0.23417543664E+03  0.18395536835E+03 0.  0.
        -24    2    3    3    0    0  0.25592915327E+01 -0.37254328209E+02  0.15941848315E+03  0.18261755359E+03  0.80873253716E+02 0.  0.
          6    2    1    2  501    0 -0.31315845659E+02 -0.13117382272E+01  0.23326428565E+03  0.29210899195E+03  0.17301165674E+03 0.  0.
         24    2    5    5    0    0  0.48942214974E+02 -0.32816828077E+01  0.12634130104E+03  0.15831866488E+03  0.81832545187E+02 0.  0.
          5    1    5    5  501    0 -0.80258060633E+02  0.19699445806E+01  0.10692298461E+03  0.13379032706E+03  0.47000000000E+01 0. -1.
        -13    1    6    6    0    0 -0.16151275800E+02 -0.21944066261E+02  0.29586066985E+02  0.40221152566E+02  0.00000000000E+00 0.  1.
         14    1    6    6    0    0  0.65093490775E+02  0.18662383454E+02  0.96755234059E+02  0.11809751232E+03  0.00000000000E+00 0. -1.
         -5    1    3    3    0  503  0.28756554126E+02  0.38566066436E+02 -0.17940022830E+02  0.51557883051E+02  0.47000000000E+01 0.  1.
         11    1    4    4    0    0 -0.36361421738E+02 -0.29918673103E+02  0.65315435539E+02  0.80519476593E+02  0.00000000000E+00 0. -1.
        -12    1    4    4    0    0  0.38920713271E+02 -0.73356551058E+01  0.94103047607E+02  0.10209807700E+03  0.00000000000E+00 0.  1.
<mgrwt>
<rscale>  2 0.18385141E+03</rscale>
<asrwt>0</asrwt>
<pdfrwt beam="1">  1       21 0.69309781E-01 0.18660649E+03</pdfrwt>
<pdfrwt beam="2">  1       21 0.11657053E-01 0.18660649E+03</pdfrwt>
<totfact> 0.11730203E+05</totfact>
</mgrwt>
</event>
<event>
12    1  0.1074575E-001  0.3064204E+03  0.7546771E-02  0.1082791E+00
         21   -1    0    0  503  502  0.00000000000E+00  0.00000000000E+00  0.86898339767E+02  0.86898339767E+02  0.00000000000E+00 0. -1.
         21   -1    0    0  501  503 -0.00000000000E+00 -0.00000000000E+00 -0.35574686538E+04  0.35574686538E+04  0.00000000000E+00 0.  1.
          6    2    1    2  501    0 -0.22468918614E+03 -0.92835305137E+02 -0.32570497051E+04  0.32708907289E+04  0.17677600207E+03 0.  0.
         24    2    3    3    0    0 -0.17451898765E+03 -0.29706187373E+02 -0.15859287760E+04  0.15978188285E+04  0.80719214413E+02 0.  0.
         -6    2    1    2    0  502  0.22468918614E+03  0.92835305137E+02 -0.21352060899E+03  0.37347626468E+03  0.18652036235E+03 0.  0.
        -24    2    5    5    0    0  0.14124797888E+03  0.49975764230E+02 -0.37372295137E+02  0.17385238388E+03  0.79871111100E+02 0.  0.
          5    1    3    3  501    0 -0.50170198490E+02 -0.63129117764E+02 -0.16711209291E+04  0.16730719004E+04  0.47000000000E+01 0. -1.
        -11    1    4    4    0    0 -0.79049235744E+02 -0.24753900266E+02 -0.10630774898E+04  0.10662998109E+04  0.00000000000E+00 0.  1.
         12    1    4    4    0    0 -0.95469751903E+02 -0.49522871072E+01 -0.52285128615E+03  0.53151901763E+03  0.00000000000E+00 0. -1.
         -5    1    5    5    0  502  0.83441207257E+02  0.42859540907E+02 -0.17614831385E+03  0.19962388080E+03  0.47000000000E+01 0.  1.
         11    1    6    6    0    0  0.10756371346E+03  0.34405832173E+02 -0.62464694935E+02  0.12905639021E+03  0.00000000000E+00 0. -1.
        -12    1    6    6    0    0  0.33684265420E+02  0.15569932057E+02  0.25092399797E+02  0.44795993668E+02  0.00000000000E+00 0.  1.
<mgrwt>
<rscale>  2 0.30495188E+03</rscale>
<asrwt>0</asrwt>
<pdfrwt beam="1">  1       21 0.13368975E-01 0.30642041E+03</pdfrwt>
<pdfrwt beam="2">  1       21 0.54730286E+00 0.30642041E+03</pdfrwt>
<totfact> 0.35092007E+01</totfact>
</mgrwt>
</event>
<event>
11    1  0.1074575E-001  0.2128945E+03  0.7546771E-02  0.1139540E+00
         21   -1    0    0  503  502  0.00000000000E+00  0.00000000000E+00  0.70704619576E+02  0.70704619576E+02  0.00000000000E+00 0.  1.
         21   -1    0    0  501  503 -0.00000000000E+00 -0.00000000000E+00 -0.70637348862E+03  0.70637348862E+03  0.00000000000E+00 0. -1.
          6    2    1    2  501    0  0.12075052826E+03 -0.17748042486E+02 -0.43853447787E+03  0.48692983473E+03  0.17289445504E+03 0.  0.
         -6    2    1    2    0  502 -0.12075052826E+03  0.17748042486E+02 -0.19713439117E+03  0.29014827346E+03  0.17443729339E+03 0.  0.
        -24    2    4    4    0    0 -0.87387443676E+02  0.28345955464E+02 -0.21641877235E+03  0.24990664664E+03  0.84712386975E+02 0.  0.
          5    1    3    3  501    0  0.10348109749E+03  0.21556310050E+02 -0.39989917487E+03  0.41365982655E+03  0.47000000000E+01 0. -1.
        -11    1    3    3    0    0  0.31384877380E+02 -0.35951634718E+02 -0.30486641651E+02  0.56630079341E+02  0.00000000000E+00 0.  1.
         12    1    3    3    0    0 -0.14115446614E+02 -0.33527178176E+01 -0.81486613454E+01  0.16639928834E+02  0.00000000000E+00 0. -1.
         -5    1    4    4    0  502 -0.33363084581E+02 -0.10597912978E+02  0.19284381174E+02  0.40241626825E+02  0.47000000000E+01 0.  1.
         11    1    5    5    0    0  0.70589291949E+01  0.23616641221E+02 -0.81511954757E+02  0.85157342563E+02  0.00000000000E+00 0. -1.
        -12    1    5    5    0    0 -0.94446372871E+02  0.47293142427E+01 -0.13490681759E+03  0.16474930408E+03  0.00000000000E+00 0.  1.
<mgrwt>
<rscale>  2 0.21257819E+03</rscale>
<asrwt>0</asrwt>
<pdfrwt beam="1">  1       21 0.10877634E-01 0.21289446E+03</pdfrwt>
<pdfrwt beam="2">  1       21 0.10867284E+00 0.21289446E+03</pdfrwt>
<totfact> 0.46524772E+04</totfact>
</mgrwt>
</event>
<event>
12    1  0.1074575E-001  0.2058168E+03  0.7546771E-02  0.1147738E+00
         21   -1    0    0  501  502  0.00000000000E+00  0.00000000000E+00  0.16978066849E+03  0.16978066849E+03  0.00000000000E+00 0. -1.
         21   -1    0    0  502  503 -0.00000000000E+00 -0.00000000000E+00 -0.27631053269E+03  0.27631053269E+03  0.00000000000E+00 0. -1.
         -6    2    1    2    0  503 -0.38063642294E+02 -0.10479544260E+03 -0.14247036850E+03  0.25031649611E+03  0.17300178227E+03 0.  0.
        -24    2    3    3    0    0 -0.25494139545E+02 -0.32449091939E+02 -0.15201750395E+03  0.17611929502E+03  0.78776835769E+02 0.  0.
          6    2    1    2  501    0  0.38063642294E+02  0.10479544260E+03  0.35940504303E+02  0.19577470507E+03  0.15686009576E+03 0.  0.
         24    2    5    5    0    0 -0.11927670776E+02  0.27607769266E+02 -0.17029709722E+02  0.89543815630E+02  0.82605239848E+02 0.  0.
          5    1    5    5  501    0  0.49991313070E+02  0.77187673337E+02  0.52970214024E+02  0.10623088944E+03  0.47000000000E+01 0. -1.
        -13    1    6    6    0    0 -0.13311295341E+02 -0.22105627115E+02 -0.28561532857E+02  0.38491693818E+02  0.00000000000E+00 0.  1.
         14    1    6    6    0    0  0.13836245644E+01  0.49713396382E+02  0.11531823135E+02  0.51052121812E+02  0.00000000000E+00 0. -1.
         -5    1    3    3    0  503 -0.12569502749E+02 -0.72346350664E+02  0.95471354494E+01  0.74197201086E+02  0.47000000000E+01 0.  1.
         13    1    4    4    0    0 -0.33607658110E+02 -0.13006364352E+02 -0.17680371323E+02  0.40140200889E+02  0.00000000000E+00 0. -1.
        -14    1    4    4    0    0  0.81135185644E+01 -0.19442727588E+02 -0.13433713262E+03  0.13597909413E+03  0.00000000000E+00 0.  1.
<mgrwt>
<rscale>  2 0.20238979E+03</rscale>
<asrwt>0</asrwt>
<pdfrwt beam="1">  1       21 0.26120103E-01 0.20581677E+03</pdfrwt>
<pdfrwt beam="2">  1       21 0.42509312E-01 0.20581677E+03</pdfrwt>
<totfact> 0.73726209E+04</totfact>
</mgrwt>
</event>
<event>
12    1  0.1074575E-001  0.1733708E+03  0.7546771E-02  0.1175215E+00
         21   -1    0    0  501  502  0.00000000000E+00  0.00000000000E+00  0.12329162502E+03  0.12329162502E+03  0.00000000000E+00 0.  1.
         21   -1    0    0  502  503 -0.00000000000E+00 -0.00000000000E+00 -0.33020574773E+03  0.33020574773E+03  0.00000000000E+00 0.  1.
         -6    2    1    2    0  503  0.10742406989E+02  0.60191679560E+01 -0.22318581207E+03  0.28261163155E+03  0.17293292888E+03 0.  0.
        -24    2    3    3    0    0 -0.30299023321E+02 -0.29169647157E+02 -0.20637508660E+03  0.22580192991E+03  0.81405995164E+02 0.  0.
          6    2    1    2  501    0 -0.10742406989E+02 -0.60191679560E+01  0.16271689353E+02  0.17088574119E+03  0.16966301594E+03 0.  0.
         24    2    5    5    0    0  0.19821592099E+02  0.33719128517E+02  0.52944828308E+02  0.10859369220E+03  0.86368744343E+02 0.  0.
          5    1    5    5  501    0 -0.30563999089E+02 -0.39738296473E+02 -0.36673138955E+02  0.62292048993E+02  0.47000000000E+01 0. -1.
        -11    1    6    6    0    0  0.39192820795E+02 -0.61988875028E+01  0.21607301807E+00  0.39680600999E+02  0.00000000000E+00 0.  1.
         12    1    6    6    0    0 -0.19371228696E+02  0.39918016020E+02  0.52728755290E+02  0.68913091199E+02  0.00000000000E+00 0. -1.
         -5    1    3    3    0  503  0.41041430310E+02  0.35188815113E+02 -0.16810725462E+02  0.56809701650E+02  0.47000000000E+01 0.  1.
         11    1    4    4    0    0  0.10600345369E+02  0.22780475917E+02 -0.66463680726E+02  0.71054473895E+02  0.00000000000E+00 0. -1.
        -12    1    4    4    0    0 -0.40899368690E+02 -0.51950123074E+02 -0.13991140588E+03  0.15474745601E+03  0.00000000000E+00 0.  1.
<mgrwt>
<rscale>  2 0.17254959E+03</rscale>
<asrwt>0</asrwt>
<pdfrwt beam="1">  1       21 0.18967943E-01 0.17337078E+03</pdfrwt>
<pdfrwt beam="2">  1       21 0.50800883E-01 0.17337078E+03</pdfrwt>
<totfact> 0.94627066E+04</totfact>
</mgrwt>
</event>
<event>
12    1  0.1074575E-001  0.3074643E+03  0.7546771E-02  0.1081598E+00
         21   -1    0    0  501  502  0.00000000000E+00  0.00000000000E+00  0.76001594995E+03  0.76001594995E+03  0.00000000000E+00 0.  1.
         21   -1    0    0  502  503 -0.00000000000E+00 -0.00000000000E+00 -0.22261602861E+03  0.22261602861E+03  0.00000000000E+00 0. -1.
         -6    2    1    2    0  503 -0.25401269391E+03 -0.87741731182E+01  0.59517385435E+03  0.66978679750E+03  0.17257752583E+03 0.  0.
        -24    2    3    3    0    0 -0.74257075347E+02 -0.36952833530E+02  0.15473250611E+03  0.19321907876E+03  0.80695965228E+02 0.  0.
          6    2    1    2  501    0  0.25401269391E+03  0.87741731182E+01 -0.57773933013E+02  0.31284518107E+03  0.17301689282E+03 0.  0.
         24    2    5    5    0    0  0.15928936213E+03 -0.41721828969E+02  0.12847859446E+02  0.18426880929E+03  0.81707494661E+02 0.  0.
          5    1    5    5  501    0  0.94723331775E+02  0.50496002087E+02 -0.70621792459E+02  0.12857637178E+03  0.47000000000E+01 0. -1.
        -11    1    6    6    0    0  0.10559554947E+03  0.12885442525E+02 -0.13155692492E+01  0.10638696076E+03  0.00000000000E+00 0.  1.
         12    1    6    6    0    0  0.53693812660E+02 -0.54607271494E+02  0.14163428695E+02  0.77881848530E+02  0.00000000000E+00 0. -1.
         -5    1    3    3    0  503 -0.17975561856E+03  0.28178660411E+02  0.44044134824E+03  0.47656771874E+03  0.47000000000E+01 0.  1.
         13    1    4    4    0    0  0.11498533684E+02  0.11476814992E+02  0.13984709370E+02  0.21436083024E+02  0.00000000000E+00 0. -1.
        -14    1    4    4    0    0 -0.85755609031E+02 -0.48429648522E+02  0.14074779674E+03  0.17178299574E+03  0.00000000000E+00 0.  1.
<mgrwt>
<rscale>  2 0.30740250E+03</rscale>
<asrwt>0</asrwt>
<pdfrwt beam="1">  1       21 0.11692553E+00 0.30746427E+03</pdfrwt>
<pdfrwt beam="2">  1       21 0.34248620E-01 0.30746427E+03</pdfrwt>
<totfact> 0.42879916E+03</totfact>
</mgrwt>
</event>
<event>
12    1  0.1074575E-001  0.2109846E+03  0.7546771E-02  0.1141020E+00
         21   -1    0    0  503  502  0.00000000000E+00  0.00000000000E+00  0.16649672308E+03  0.16649672308E+03  0.00000000000E+00 0.  1.
         21   -1    0    0  501  503 -0.00000000000E+00 -0.00000000000E+00 -0.52996674175E+03  0.52996674175E+03  0.00000000000E+00 0.  1.
          6    2    1    2  501    0 -0.12073120178E+03 -0.61473103164E+01 -0.42730270464E+03  0.47603408464E+03  0.17148479770E+03 0.  0.
         24    2    3    3    0    0 -0.98465733238E+02 -0.65746345723E+02 -0.33045163415E+03  0.36005988076E+03  0.80167029526E+02 0.  0.
         -6    2    1    2    0  502  0.12073120178E+03  0.61473103164E+01  0.63832685971E+02  0.22042938019E+03  0.17291815216E+03 0.  0.
        -24    2    5    5    0    0  0.34903521337E+02 -0.15021856797E+01  0.94527035826E+02  0.12883713908E+03  0.80269144384E+02 0.  0.
          5    1    3    3  501    0 -0.22265468537E+02  0.59599035407E+02 -0.96851070486E+02  0.11597420388E+03  0.47000000000E+01 0. -1.
        -11    1    4    4    0    0 -0.35598245541E+02  0.14165262681E+02 -0.12640169825E+03  0.13208057795E+03  0.00000000000E+00 0.  1.
         12    1    4    4    0    0 -0.62867487698E+02 -0.79911608404E+02 -0.20404993590E+03  0.22797930281E+03  0.00000000000E+00 0. -1.
         -5    1    5    5    0  502  0.85827680438E+02  0.76494959960E+01 -0.30694349855E+02  0.91592241109E+02  0.47000000000E+01 0.  1.
         13    1    6    6    0    0  0.31359443040E+01  0.14216090733E+02 -0.10526967490E+02  0.17965200443E+02  0.00000000000E+00 0. -1.
        -14    1    6    6    0    0  0.31767577033E+02 -0.15718276413E+02  0.10505400332E+03  0.11087193863E+03  0.00000000000E+00 0.  1.
<mgrwt>
<rscale>  2 0.21069070E+03</rscale>
<asrwt>0</asrwt>
<pdfrwt beam="1">  1       21 0.25614880E-01 0.21098460E+03</pdfrwt>
<pdfrwt beam="2">  1       21 0.81533345E-01 0.21098460E+03</pdfrwt>
<totfact> 0.18838392E+04</totfact>
</mgrwt>
</event>
<event>
12    1  0.1074575E-001  0.1803062E+03  0.7546771E-02  0.1168443E+00
         21   -1    0    0  503  502  0.00000000000E+00  0.00000000000E+00  0.24871142892E+02  0.24871142892E+02  0.00000000000E+00 0. -1.
         21   -1    0    0  501  503 -0.00000000000E+00 -0.00000000000E+00 -0.18530631993E+04  0.18530631993E+04  0.00000000000E+00 0. -1.
          6    2    1    2  501    0  0.34887457929E+02 -0.13340383879E+02 -0.14296787595E+04  0.14405292935E+04  0.17247663489E+03 0.  0.
         24    2    3    3    0    0  0.38211734115E+02  0.23660163042E+01 -0.14160486568E+04  0.14189512603E+04  0.82238348550E+02 0.  0.
         -6    2    1    2    0  502 -0.34887457929E+02  0.13340383879E+02 -0.39851329693E+03  0.43740504869E+03  0.17639509127E+03 0.  0.
        -24    2    5    5    0    0 -0.12518087809E+01 -0.53931923835E+02 -0.28330634961E+03  0.29974005317E+03  0.81678591528E+02 0.  0.
          5    1    3    3  501    0 -0.33242761854E+01 -0.15706400183E+02 -0.13630102682E+02  0.21578033228E+02  0.47000000000E+01 0. -1.
        -11    1    4    4    0    0  0.20402475955E+02  0.22293251332E+02 -0.17329223455E+03  0.17590750023E+03  0.00000000000E+00 0.  1.
         12    1    4    4    0    0  0.17809258160E+02 -0.19927235028E+02 -0.12427564223E+04  0.12430437601E+04  0.00000000000E+00 0. -1.
         -5    1    5    5    0  502 -0.33635649149E+02  0.67272307714E+02 -0.11520694733E+03  0.13766499552E+03  0.47000000000E+01 0.  1.
         11    1    6    6    0    0 -0.39700114596E+02 -0.16443602513E+02 -0.10291901856E+03  0.11152943801E+03  0.00000000000E+00 0. -1.
        -12    1    6    6    0    0  0.38448305815E+02 -0.37488321322E+02 -0.18038733105E+03  0.18821061516E+03  0.00000000000E+00 0.  1.
<mgrwt>
<rscale>  2 0.17934058E+03</rscale>
<asrwt>0</asrwt>
<pdfrwt beam="1">  1       21 0.38263294E-02 0.18030621E+03</pdfrwt>
<pdfrwt beam="2">  1       21 0.28508667E+00 0.18030621E+03</pdfrwt>
<totfact> 0.17776488E+04</totfact>
</mgrwt>
</event>
<event>
12    1  0.1074575E-001  0.1959455E+03  0.7546771E-02  0.1155335E+00
         21   -1    0    0  501  502  0.00000000000E+00  0.00000000000E+00  0.47780649277E+02  0.47780649277E+02  0.00000000000E+00 0. -1.
         21   -1    0    0  502  503 -0.00000000000E+00 -0.00000000000E+00 -0.14306325149E+04  0.14306325149E+04  0.00000000000E+00 0. -1.
         -6    2    1    2    0  503  0.85634277447E+02 -0.20963422566E+02 -0.11863860128E+04  0.12009362224E+04  0.16420518958E+03 0.  0.
        -24    2    3    3    0    0  0.92829897764E+02 -0.64231761437E+02 -0.81589851346E+03  0.82783167500E+03  0.82896253115E+02 0.  0.
          6    2    1    2  501    0 -0.85634277447E+02  0.20963422566E+02 -0.19646585284E+03  0.27747694182E+03  0.17499122078E+03 0.  0.
         24    2    5    5    0    0 -0.64160033234E+02  0.81641889353E+02 -0.13834340510E+03  0.19062460491E+03  0.80105769447E+02 0.  0.
          5    1    5    5  501    0 -0.21474244213E+02 -0.60678466787E+02 -0.58122447738E+02  0.86852336913E+02  0.47000000000E+01 0. -1.
        -13    1    6    6    0    0  0.79175789187E+01  0.12280775558E+01 -0.51303159269E+02  0.51925045801E+02  0.00000000000E+00 0.  1.
         14    1    6    6    0    0 -0.72077612153E+02  0.80413811797E+02 -0.87040245833E+02  0.13869955911E+03  0.00000000000E+00 0. -1.
         -5    1    3    3    0  503 -0.71956203172E+01  0.43268338871E+02 -0.37048749936E+03  0.37310454739E+03  0.47000000000E+01 0.  1.
         13    1    4    4    0    0  0.57321607360E+02  0.36753362087E+01 -0.47300179651E+03  0.47647662510E+03  0.00000000000E+00 0. -1.
        -14    1    4    4    0    0  0.35508290404E+02 -0.67907097645E+02 -0.34289671695E+03  0.35135504990E+03  0.00000000000E+00 0.  1.
<mgrwt>
<rscale>  2 0.19350800E+03</rscale>
<asrwt>0</asrwt>
<pdfrwt beam="1">  1       21 0.73508695E-02 0.19594546E+03</pdfrwt>
<pdfrwt beam="2">  1       21 0.22009730E+00 0.19594546E+03</pdfrwt>
<totfact> 0.13924674E+04</totfact>
</mgrwt>
</event>
<event>
12    1  0.1074575E-001  0.1847071E+03  0.7546771E-02  0.1163400E+00
         21   -1    0    0  503  502  0.00000000000E+00  0.00000000000E+00  0.72132576813E+03  0.72132576813E+03  0.00000000000E+00 0.  1.
         21   -1    0    0  501  503 -0.00000000000E+00 -0.00000000000E+00 -0.47638743290E+02  0.47638743290E+02  0.00000000000E+00 0.  1.
          6    2    1    2  501    0 -0.39640503477E+02  0.48429180148E+02  0.30023223671E+03  0.35232894741E+03  0.17343453004E+03 0.  0.
         24    2    3    3    0    0 -0.73653920354E+02  0.66011725485E+02  0.14971409623E+03  0.19694600419E+03  0.81184789651E+02 0.  0.
         -6    2    1    2    0  502  0.39640503477E+02 -0.48429180148E+02  0.37345478813E+03  0.41663556402E+03  0.17378135522E+03 0.  0.
        -24    2    5    5    0    0  0.25610754558E+02 -0.61528150142E+02  0.10639110774E+03  0.14884176975E+03  0.79957367423E+02 0.  0.
          5    1    3    3  501    0  0.34013416877E+02 -0.17582545336E+02  0.15051814048E+03  0.15538294322E+03  0.47000000000E+01 0. -1.
        -11    1    4    4    0    0 -0.64593867270E+02  0.55439117309E+02  0.15890098756E+03  0.18026476989E+03  0.00000000000E+00 0.  1.
         12    1    4    4    0    0 -0.90600530835E+01  0.10572608175E+02 -0.91868913255E+01  0.16681234299E+02  0.00000000000E+00 0. -1.
         -5    1    5    5    0  502  0.14029748919E+02  0.13098969993E+02  0.26706368038E+03  0.26779379427E+03  0.47000000000E+01 0.  1.
         13    1    6    6    0    0  0.38653429416E+02 -0.22060415339E+02  0.12603840036E+02  0.46255878699E+02  0.00000000000E+00 0. -1.
        -14    1    6    6    0    0 -0.13042674858E+02 -0.39467734803E+02  0.93787267707E+02  0.10258589105E+03  0.00000000000E+00 0.  1.
<mgrwt>
<rscale>  2 0.18462548E+03</rscale>
<asrwt>0</asrwt>
<pdfrwt beam="1">  1       21 0.11097319E+00 0.18470710E+03</pdfrwt>
<pdfrwt beam="2">  1       21 0.73290379E-02 0.18470710E+03</pdfrwt>
<totfact> 0.89630706E+04</totfact>
</mgrwt>
</event>
<event>
12    1  0.1074575E-001  0.1851888E+03  0.7546771E-02  0.1164481E+00
         21   -1    0    0  501  502  0.00000000000E+00  0.00000000000E+00  0.72281921909E+03  0.72281921909E+03  0.00000000000E+00 0. -1.
         21   -1    0    0  502  503 -0.00000000000E+00 -0.00000000000E+00 -0.45752336735E+02  0.45752336735E+02  0.00000000000E+00 0.  1.
         -6    2    1    2    0  503 -0.31428661091E+02 -0.28773610056E+02  0.35316298456E+03  0.39877186283E+03  0.18021993104E+03 0.  0.
        -24    2    3    3    0    0  0.38125110173E+02 -0.54066893648E+02  0.14556068699E+03  0.17832168422E+03  0.78955407990E+02 0.  0.
          6    2    1    2  501    0  0.31428661091E+02  0.28773610056E+02  0.32390389779E+03  0.36979969300E+03  0.17326972200E+03 0.  0.
         24    2    5    5    0    0 -0.34310291616E+02 -0.30261458859E+02  0.21054204267E+03  0.22599514000E+03  0.68212165854E+02 0.  0.
          5    1    5    5  501    0  0.65738952707E+02  0.59035068915E+02  0.11336185512E+03  0.14380455299E+03  0.47000000000E+01 0. -1.
        -13    1    6    6    0    0 -0.12936112413E+02  0.10099487850E+02  0.77968943695E+01  0.18169596060E+02  0.00000000000E+00 0.  1.
         14    1    6    6    0    0 -0.21374179203E+02 -0.40360946710E+02  0.20274514830E+03  0.20782554394E+03  0.00000000000E+00 0. -1.
         -5    1    3    3    0  503 -0.69553771264E+02  0.25293283592E+02  0.20760229757E+03  0.22045017861E+03  0.47000000000E+01 0.  1.
         11    1    4    4    0    0  0.25119889856E+02  0.15985152834E+02  0.28098131378E+02  0.40939454863E+02  0.00000000000E+00 0. -1.
        -12    1    4    4    0    0  0.13005220317E+02 -0.70052046482E+02  0.11746255561E+03  0.13738222936E+03  0.00000000000E+00 0.  1.
<mgrwt>
<rscale>  2 0.18347608E+03</rscale>
<asrwt>0</asrwt>
<pdfrwt beam="1">  1       21 0.11120295E+00 0.18518884E+03</pdfrwt>
<pdfrwt beam="2">  1       21 0.70388216E-02 0.18518884E+03</pdfrwt>
<totfact> 0.95612567E+04</totfact>
</mgrwt>
</event>
<event>
12    1  0.1074575E-001  0.2015685E+03  0.7546771E-02  0.1149023E+00
         21   -1    0    0  501  502  0.00000000000E+00  0.00000000000E+00  0.89597202340E+02  0.89597202340E+02  0.00000000000E+00 0.  1.
         21   -1    0    0  502  503 -0.00000000000E+00 -0.00000000000E+00 -0.72381128410E+03  0.72381128410E+03  0.00000000000E+00 0.  1.
         -6    2    1    2    0  503 -0.23023276199E+00 -0.10049507726E+03 -0.56997608218E+03  0.60456809713E+03  0.17472989512E+03 0.  0.
        -24    2    3    3    0    0 -0.65055485244E+02 -0.89675144038E+02 -0.41679923362E+03  0.43782091950E+03  0.75443414433E+02 0.  0.
          6    2    1    2  501    0  0.23023276199E+00  0.10049507726E+03 -0.64237999578E+02  0.20884038931E+03  0.17143066837E+03 0.  0.
         24    2    5    5    0    0  0.71012774039E+00 -0.16084766540E+02 -0.19901553510E+02  0.84024922606E+02  0.80030567853E+02 0.  0.
          5    1    5    5  501    0 -0.47989497840E+00  0.11657984380E+03 -0.44336446068E+02  0.12481546670E+03  0.47000000000E+01 0. -1.
        -11    1    6    6    0    0 -0.37741356354E+02  0.37595490528E+01 -0.13628371512E+02  0.40302316293E+02  0.00000000000E+00 0.  1.
         12    1    6    6    0    0  0.38451484095E+02 -0.19844315593E+02 -0.62731819980E+01  0.43722606313E+02  0.00000000000E+00 0. -1.
         -5    1    3    3    0  503  0.64825252482E+02 -0.10819933217E+02 -0.15317684855E+03  0.16674717763E+03  0.47000000000E+01 0.  1.
         13    1    4    4    0    0 -0.70732533678E+01 -0.70186382907E+02 -0.18223078292E+03  0.19540782355E+03  0.00000000000E+00 0. -1.
        -14    1    4    4    0    0 -0.57982231876E+02 -0.19488761131E+02 -0.23456845070E+03  0.24241309595E+03  0.00000000000E+00 0.  1.
<mgrwt>
<rscale>  2 0.20085137E+03</rscale>
<asrwt>0</asrwt>
<pdfrwt beam="1">  1       21 0.13784185E-01 0.20156847E+03</pdfrwt>
<pdfrwt beam="2">  1       21 0.11135558E+00 0.20156847E+03</pdfrwt>
<totfact> 0.28842941E+04</totfact>
</mgrwt>
</event>
<event>
12    1  0.1074575E-001  0.2345322E+03  0.7546771E-02  0.1125135E+00
         21   -1    0    0  503  502  0.00000000000E+00  0.00000000000E+00  0.13734041993E+03  0.13734041993E+03  0.00000000000E+00 0. -1.
         21   -1    0    0  501  503 -0.00000000000E+00 -0.00000000000E+00 -0.39619954306E+03  0.39619954306E+03  0.00000000000E+00 0. -1.
          6    2    1    2  501    0  0.15762577964E+03  0.16945394159E+02 -0.17754783435E+03  0.29415742078E+03  0.17283611292E+03 0.  0.
         24    2    3    3    0    0  0.25105333935E+02 -0.33832796271E+02 -0.74314679820E+02  0.11860324867E+03  0.82274680568E+02 0.  0.
         -6    2    1    2    0  502 -0.15762577964E+03 -0.16945394159E+02 -0.81311288774E+02  0.23938254220E+03  0.15987320926E+03 0.  0.
        -24    2    5    5    0    0 -0.13850876076E+03  0.36873120076E+02 -0.77742284068E+02  0.18196546565E+03  0.80766726849E+02 0.  0.
          5    1    3    3  501    0  0.13252044570E+03  0.50778190430E+02 -0.10323315453E+03  0.17555417212E+03  0.47000000000E+01 0. -1.
        -13    1    4    4    0    0  0.27905630494E+02 -0.59379468821E+02 -0.44687170062E+02  0.79382546563E+02  0.00000000000E+00 0.  1.
         14    1    4    4    0    0 -0.28002965583E+01  0.25546672550E+02 -0.29627509758E+02  0.39220702106E+02  0.00000000000E+00 0. -1.
         -5    1    5    5    0  502 -0.19117018879E+02 -0.53818514235E+02 -0.35690047065E+01  0.57417076553E+02  0.47000000000E+01 0.  1.
         11    1    6    6    0    0 -0.13789178793E+03  0.17221295130E+02 -0.49423325693E+02  0.14749028207E+03  0.00000000000E+00 0. -1.
        -12    1    6    6    0    0 -0.61697283186E+00  0.19651824946E+02 -0.28318958375E+02  0.34475183576E+02  0.00000000000E+00 0.  1.
<mgrwt>
<rscale>  2 0.23215060E+03</rscale>
<asrwt>0</asrwt>
<pdfrwt beam="1">  1       21 0.21129296E-01 0.23453220E+03</pdfrwt>
<pdfrwt beam="2">  1       21 0.60953775E-01 0.23453220E+03</pdfrwt>
<totfact> 0.51170637E+04</totfact>
</mgrwt>
</event>
<event>
11    1  0.1074575E-001  0.1775508E+03  0.7546771E-02  0.1170295E+00
         21   -1    0    0  501  502  0.00000000000E+00  0.00000000000E+00  0.78442114791E+02  0.78442114791E+02  0.00000000000E+00 0. -1.
         21   -1    0    0  502  503 -0.00000000000E+00 -0.00000000000E+00 -0.65971793235E+03  0.65971793235E+03  0.00000000000E+00 0. -1.
         -6    2    1    2    0  503  0.35528424895E+02 -0.78709092409E+01 -0.52198958072E+03  0.55135960714E+03  0.17378168434E+03 0.  0.
        -24    2    3    3    0    0  0.10608068823E+02 -0.60637681416E+02 -0.44285235194E+03  0.45292106097E+03  0.72317510453E+02 0.  0.
          6    2    1    2  501    0 -0.35528424895E+02  0.78709092409E+01 -0.59286236835E+02  0.18680044000E+03  0.17336472051E+03 0.  0.
          5    1    5    5  501    0  0.17260786317E+02 -0.24472375840E+02 -0.10217751063E+03  0.10657938638E+03  0.47000000000E+01 0. -1.
        -13    1    5    5    0    0 -0.51699710611E+02  0.20108795713E+02  0.34088564548E+02  0.65109553640E+02  0.00000000000E+00 0.  1.
         14    1    5    5    0    0 -0.10895006011E+01  0.12234489368E+02  0.88027092430E+01  0.15111499981E+02  0.00000000000E+00 0. -1.
         -5    1    3    3    0  503  0.24920356072E+02  0.52766772175E+02 -0.79137228786E+02  0.98438546172E+02  0.47000000000E+01 0.  1.
         13    1    4    4    0    0 -0.12223662861E+00  0.90103716134E+01 -0.70053785094E+01  0.11413897952E+02  0.00000000000E+00 0. -1.
        -14    1    4    4    0    0  0.10730305451E+02 -0.69648053029E+02 -0.43584697343E+03  0.44150716301E+03  0.00000000000E+00 0.  1.
<mgrwt>
<rscale>  2 0.17744871E+03</rscale>
<asrwt>0</asrwt>
<pdfrwt beam="1">  1       21 0.12068017E-01 0.17755082E+03</pdfrwt>
<pdfrwt beam="2">  1       21 0.10149507E+00 0.17755082E+03</pdfrwt>
<totfact> 0.46393188E+04</totfact>
</mgrwt>
</event>
<event>
12    1  0.1074575E-001  0.1772859E+03  0.7546771E-02  0.1171520E+00
         21   -1    0    0  501  502  0.00000000000E+00  0.00000000000E+00  0.13861888454E+03  0.13861888454E+03  0.00000000000E+00 0. -1.
         21   -1    0    0  502  503 -0.00000000000E+00 -0.00000000000E+00 -0.27704698017E+03  0.27704698017E+03  0.00000000000E+00 0. -1.
         -6    2    1    2    0  503 -0.37481168146E+01 -0.28978544046E+01 -0.16308637341E+03  0.24088888056E+03  0.17722257658E+03 0.  0.
        -24    2    3    3    0    0 -0.13084636069E+02 -0.98247557379E+01 -0.14761480547E+02  0.92034870219E+02  0.89357610207E+02 0.  0.
          6    2    1    2  501    0  0.37481168146E+01  0.28978544046E+01  0.24658277770E+02  0.17477698415E+03  0.17296391989E+03 0.  0.
         24    2    5    5    0    0 -0.44040797887E+02  0.16928728071E+02  0.61793403969E+02  0.11247326530E+03  0.81275069490E+02 0.  0.
          5    1    5    5  501    0  0.47788914702E+02 -0.14030873666E+02 -0.37135126199E+02  0.62303718846E+02  0.47000000000E+01 0. -1.
        -11    1    6    6    0    0  0.18053951680E+02  0.55608829072E+01 -0.60183910463E+01  0.19826487857E+02  0.00000000000E+00 0.  1.
         12    1    6    6    0    0 -0.62094749567E+02  0.11367845164E+02  0.67811795015E+02  0.92646777443E+02  0.00000000000E+00 0. -1.
         -5    1    3    3    0  503  0.93365192545E+01  0.69269013333E+01 -0.14832489286E+03  0.14885401034E+03  0.47000000000E+01 0.  1.
         11    1    4    4    0    0 -0.21226766302E+02  0.35940503450E+02  0.39477925529E+01  0.41927085063E+02  0.00000000000E+00 0. -1.
        -12    1    4    4    0    0  0.81421302325E+01 -0.45765259188E+02 -0.18709273100E+02  0.50107785156E+02  0.00000000000E+00 0.  1.
<mgrwt>
<rscale>  2 0.17621190E+03</rscale>
<asrwt>0</asrwt>
<pdfrwt beam="1">  1       21 0.21325982E-01 0.17728589E+03</pdfrwt>
<pdfrwt beam="2">  1       21 0.42622612E-01 0.17728589E+03</pdfrwt>
<totfact> 0.10899127E+05</totfact>
</mgrwt>
</event>
<event>
12    1  0.1074575E-001  0.2081071E+03  0.7546771E-02  0.1143087E+00
         21   -1    0    0  503  502  0.00000000000E+00  0.00000000000E+00  0.23369043413E+03  0.23369043413E+03  0.00000000000E+00 0. -1.
         21   -1    0    0  501  503 -0.00000000000E+00 -0.00000000000E+00 -0.18572144466E+03  0.18572144466E+03  0.00000000000E+00 0. -1.
          6    2    1    2  501    0  0.62255775159E+02  0.97256990140E+02  0.34381167475E+02  0.21086167722E+03  0.17304877512E+03 0.  0.
         24    2    3    3    0    0  0.81680454344E+02  0.75120651519E+02 -0.30309106615E+02  0.13962785652E+03  0.79135879763E+02 0.  0.
         -6    2    1    2    0  502 -0.62255775159E+02 -0.97256990140E+02  0.13587821989E+02  0.20855020157E+03  0.17312958730E+03 0.  0.
        -24    2    5    5    0    0 -0.78370003283E+02 -0.12848528376E+03  0.22427130041E+02  0.17201120819E+03  0.80215671931E+02 0.  0.
          5    1    3    3  501    0 -0.19424679185E+02  0.22136338621E+02  0.64690274091E+02  0.71233820696E+02  0.47000000000E+01 0. -1.
        -11    1    4    4    0    0 -0.86403180756E+00 -0.58177526178E+01 -0.23056819760E+02  0.23795161986E+02  0.00000000000E+00 0.  1.
         12    1    4    4    0    0  0.82544486152E+02  0.80938404137E+02 -0.72522868557E+01  0.11583269453E+03  0.00000000000E+00 0. -1.
         -5    1    5    5    0  502  0.16114228124E+02  0.31228293622E+02 -0.88393080529E+01  0.36538993383E+02  0.47000000000E+01 0.  1.
         13    1    6    6    0    0  0.32873248963E+01 -0.67405171896E+02  0.18440102918E+02  0.69959281721E+02  0.00000000000E+00 0. -1.
        -14    1    6    6    0    0 -0.81657328179E+02 -0.61080111866E+02  0.39870271235E+01  0.10205192647E+03  0.00000000000E+00 0.  1.
<mgrwt>
<rscale>  2 0.20809027E+03</rscale>
<asrwt>0</asrwt>
<pdfrwt beam="1">  1       21 0.35952374E-01 0.20810708E+03</pdfrwt>
<pdfrwt beam="2">  1       21 0.28572530E-01 0.20810708E+03</pdfrwt>
<totfact> 0.86838421E+04</totfact>
</mgrwt>
</event>
<event>
12    1  0.1074575E-001  0.1849689E+03  0.7546771E-02  0.1163200E+00
         21   -1    0    0  503  502  0.00000000000E+00  0.00000000000E+00  0.12840196837E+03  0.12840196837E+03  0.00000000000E+00 0.  1.
         21   -1    0    0  501  503 -0.00000000000E+00 -0.00000000000E+00 -0.28785947045E+03  0.28785947045E+03  0.00000000000E+00 0.  1.
          6    2    1    2  501    0 -0.40303005182E+02  0.51499089628E+02 -0.13735627555E+03  0.22997678493E+03  0.17247053869E+03 0.  0.
         24    2    3    3    0    0  0.22047762839E+01  0.26684595509E+01 -0.10881548793E+01  0.79038278816E+02  0.78954947421E+02 0.  0.
         -6    2    1    2    0  502  0.40303005182E+02 -0.51499089628E+02 -0.22101226538E+02  0.18628465389E+03  0.17302317648E+03 0.  0.
        -24    2    5    5    0    0  0.26543168448E+02 -0.55340993223E+02 -0.78445056739E+02  0.12796818510E+03  0.80343413847E+02 0.  0.
          5    1    3    3  501    0 -0.42507781466E+02  0.48830630078E+02 -0.13626812067E+03  0.15093850612E+03  0.47000000000E+01 0. -1.
        -11    1    4    4    0    0 -0.35627994527E+02  0.12552029683E+02 -0.96972805522E+01  0.38999290933E+02  0.00000000000E+00 0.  1.
         12    1    4    4    0    0  0.37832770811E+02 -0.98835701324E+01  0.86091256729E+01  0.40038987882E+02  0.00000000000E+00 0. -1.
         -5    1    5    5    0  502  0.13759836734E+02  0.38419035942E+01  0.56343830200E+02  0.58316468787E+02  0.47000000000E+01 0.  1.
         11    1    6    6    0    0  0.39156231344E+02  0.32147288332E+00 -0.13291509336E+02  0.41351880469E+02  0.00000000000E+00 0. -1.
        -12    1    6    6    0    0 -0.12613062896E+02 -0.55662466106E+02 -0.65153547403E+02  0.86616304630E+02  0.00000000000E+00 0.  1.
<mgrwt>
<rscale>  2 0.18483959E+03</rscale>
<asrwt>0</asrwt>
<pdfrwt beam="1">  1       21 0.19754149E-01 0.18496894E+03</pdfrwt>
<pdfrwt beam="2">  1       21 0.44286072E-01 0.18496894E+03</pdfrwt>
<totfact> 0.11598756E+05</totfact>
</mgrwt>
</event>
<event>
12    1  0.1074575E-001  0.2308502E+03  0.7546771E-02  0.1126248E+00
         21   -1    0    0  503  502  0.00000000000E+00  0.00000000000E+00  0.51721397612E+03  0.51721397612E+03  0.00000000000E+00 0.  1.
         21   -1    0    0  501  503 -0.00000000000E+00 -0.00000000000E+00 -0.19490266324E+03  0.19490266324E+03  0.00000000000E+00 0. -1.
          6    2    1    2  501    0 -0.14045622187E+03  0.59172689772E+02 -0.83770350965E+02  0.24557948301E+03  0.17338527417E+03 0.  0.
         24    2    3    3    0    0 -0.68377664132E+02  0.37104990153E+02  0.24530511242E+02  0.11354362195E+03  0.78981788139E+02 0.  0.
         -6    2    1    2    0  502  0.14045622187E+03 -0.59172689772E+02  0.40608166384E+03  0.46653715634E+03  0.17182911006E+03 0.  0.
        -24    2    5    5    0    0  0.69070904603E+02  0.34550594924E+02  0.20253099612E+03  0.23130348115E+03  0.80733899511E+02 0.  0.
          5    1    3    3  501    0 -0.72078557736E+02  0.22067699620E+02 -0.10830086221E+03  0.13203586106E+03  0.47000000000E+01 0. -1.
        -11    1    4    4    0    0 -0.50078470098E+02  0.56606395157E+02 -0.23649164189E+01  0.75615672778E+02  0.00000000000E+00 0.  1.
         12    1    4    4    0    0 -0.18299194034E+02 -0.19501405004E+02  0.26895427661E+02  0.37927949173E+02  0.00000000000E+00 0. -1.
         -5    1    5    5    0  502  0.71385317265E+02 -0.93723284697E+02  0.20355066772E+03  0.23523367519E+03  0.47000000000E+01 0.  1.
         13    1    6    6    0    0 -0.44664895774E-01 -0.67359091404E+01  0.10330787682E+03  0.10352725187E+03  0.00000000000E+00 0. -1.
        -14    1    6    6    0    0  0.69115569499E+02  0.41286504065E+02  0.99223119298E+02  0.12777622928E+03  0.00000000000E+00 0.  1.
<mgrwt>
<rscale>  2 0.23055801E+03</rscale>
<asrwt>0</asrwt>
<pdfrwt beam="1">  1       21 0.79571381E-01 0.23085019E+03</pdfrwt>
<pdfrwt beam="2">  1       21 0.29985025E-01 0.23085019E+03</pdfrwt>
<totfact> 0.14505474E+04</totfact>
</mgrwt>
</event>
<event>
12    1  0.1074575E-001  0.2467332E+03  0.7546771E-02  0.1115504E+00
         21   -1    0    0  501  502  0.00000000000E+00  0.00000000000E+00  0.92656451256E+03  0.92656451256E+03  0.00000000000E+00 0.  1.
         21   -1    0    0  502  503 -0.00000000000E+00 -0.00000000000E+00 -0.10059152927E+03  0.10059152927E+03  0.00000000000E+00 0.  1.
         -6    2    1    2    0  503  0.14978621219E+03  0.93187550407E+02  0.10928424076E+03  0.26918504141E+03  0.17145761088E+03 0.  0.
        -24    2    3    3    0    0  0.59794887428E+02  0.11236059963E+03  0.71063244802E+02  0.16944047323E+03  0.86369880727E+02 0.  0.
          6    2    1    2  501    0 -0.14978621219E+03 -0.93187550407E+02  0.71668874253E+03  0.75797100043E+03  0.17250349247E+03 0.  0.
         24    2    5    5    0    0 -0.29177995365E+02 -0.69683280272E+02  0.46417268982E+03  0.47710583784E+03  0.80415045645E+02 0.  0.
          5    1    5    5  501    0 -0.12060821682E+03 -0.23504270135E+02  0.25251605271E+03  0.28086516258E+03  0.47000000000E+01 0. -1.
        -11    1    6    6    0    0 -0.15853287252E+02 -0.86441338802E+01  0.31315173760E+03  0.31367189630E+03  0.00000000000E+00 0.  1.
         12    1    6    6    0    0 -0.13324708113E+02 -0.61039146392E+02  0.15102095222E+03  0.16343394155E+03  0.00000000000E+00 0. -1.
         -5    1    3    3    0  503  0.89991324759E+02 -0.19173049222E+02  0.38220995961E+02  0.99744568175E+02  0.47000000000E+01 0.  1.
         11    1    4    4    0    0  0.16076005624E+02  0.60640392747E+02  0.79415140700E+02  0.10120503822E+03  0.00000000000E+00 0. -1.
        -12    1    4    4    0    0  0.43718881804E+02  0.51720206882E+02 -0.83518958984E+01  0.68235435011E+02  0.00000000000E+00 0.  1.
<mgrwt>
<rscale>  2 0.24655050E+03</rscale>
<asrwt>0</asrwt>
<pdfrwt beam="1">  1       21 0.14254838E+00 0.24673322E+03</pdfrwt>
<pdfrwt beam="2">  1       21 0.15475620E-01 0.24673322E+03</pdfrwt>
<totfact> 0.12212292E+04</totfact>
</mgrwt>
</event>
<event>
12    1  0.1074575E-001  0.1903243E+03  0.7546771E-02  0.1159203E+00
         21   -1    0    0  501  502  0.00000000000E+00  0.00000000000E+00  0.75425805990E+03  0.75425805990E+03  0.00000000000E+00 0. -1.
         21   -1    0    0  502  503 -0.00000000000E+00 -0.00000000000E+00 -0.68917031524E+02  0.68917031524E+02  0.00000000000E+00 0.  1.
         -6    2    1    2    0  503  0.15711330185E+02 -0.71498726033E+02  0.10716835860E+03  0.21448226144E+03  0.17075909835E+03 0.  0.
        -24    2    3    3    0    0 -0.21309406052E+02  0.24466688186E+02  0.64480370672E+02  0.10301814187E+03  0.73500406366E+02 0.  0.
          6    2    1    2  501    0 -0.15711330185E+02  0.71498726033E+02  0.57817266978E+03  0.60869282998E+03  0.17568270113E+03 0.  0.
         24    2    5    5    0    0 -0.49591141863E+02 -0.15272160802E+02  0.25261703237E+03  0.27004021817E+03  0.80086416689E+02 0.  0.
          5    1    5    5  501    0  0.33879811678E+02  0.86770886835E+02  0.32555563740E+03  0.33865261181E+03  0.47000000000E+01 0. -1.
        -11    1    6    6    0    0  0.72897755913E+01 -0.23057249933E+02  0.23066300519E+02  0.33419033832E+02  0.00000000000E+00 0.  1.
         12    1    6    6    0    0 -0.56880917454E+02  0.77850891308E+01  0.22955073185E+03  0.23662118434E+03  0.00000000000E+00 0. -1.
         -5    1    3    3    0  503  0.37020736237E+02 -0.95965414219E+02  0.42687987927E+02  0.11146411957E+03  0.47000000000E+01 0.  1.
         13    1    4    4    0    0 -0.18318836908E+02 -0.24098508535E+02  0.34361851049E+02  0.45793609890E+02  0.00000000000E+00 0. -1.
        -14    1    4    4    0    0 -0.29905691441E+01  0.48565196721E+02  0.30118519623E+02  0.57224531983E+02  0.00000000000E+00 0.  1.
<mgrwt>
<rscale>  2 0.18918019E+03</rscale>
<asrwt>0</asrwt>
<pdfrwt beam="1">  1       21 0.11603970E+00 0.19032426E+03</pdfrwt>
<pdfrwt beam="2">  1       21 0.10602621E-01 0.19032426E+03</pdfrwt>
<totfact> 0.42012674E+04</totfact>
</mgrwt>
</event>
<event>
12    1  0.1074575E-001  0.1989088E+03  0.7546771E-02  0.1150806E+00
         21   -1    0    0  503  502  0.00000000000E+00  0.00000000000E+00  0.21967512905E+03  0.21967512905E+03  0.00000000000E+00 0.  1.
         21   -1    0    0  501  503 -0.00000000000E+00 -0.00000000000E+00 -0.19066732388E+03  0.19066732388E+03  0.00000000000E+00 0. -1.
          6    2    1    2  501    0 -0.59494686053E+01 -0.97578612773E+02  0.64187906297E+02  0.20900912178E+03  0.17322743381E+03 0.  0.
         24    2    3    3    0    0 -0.21465769802E+02 -0.47339106640E+02  0.10502919586E+03  0.14226435036E+03  0.80661286304E+02 0.  0.
         -6    2    1    2    0  502  0.59494686053E+01  0.97578612773E+02 -0.35180101128E+02  0.20133333115E+03  0.17245430952E+03 0.  0.
        -24    2    5    5    0    0 -0.56706053554E+02  0.33934695294E+02 -0.40211967644E+02  0.11175837723E+03  0.80658492956E+02 0.  0.
          5    1    3    3  501    0  0.15516301197E+02 -0.50239506132E+02 -0.40841289565E+02  0.66744771425E+02  0.47000000000E+01 0. -1.
        -13    1    4    4    0    0 -0.35871230449E+02 -0.54658041806E+02  0.43206172323E+02  0.78364660624E+02  0.00000000000E+00 0.  1.
         14    1    4    4    0    0  0.14405460647E+02  0.73189351652E+01  0.61823023538E+02  0.63899689732E+02  0.00000000000E+00 0. -1.
         -5    1    5    5    0  502  0.62655522159E+02  0.63643917479E+02  0.50318665157E+01  0.89574953919E+02  0.47000000000E+01 0.  1.
         11    1    6    6    0    0 -0.96910531163E+01  0.40991238862E+02 -0.47694571079E+02  0.63631519583E+02  0.00000000000E+00 0. -1.
        -12    1    6    6    0    0 -0.47015000437E+02 -0.70565435680E+01  0.74826034357E+01  0.48126857652E+02  0.00000000000E+00 0.  1.
<mgrwt>
<rscale>  2 0.19874039E+03</rscale>
<asrwt>0</asrwt>
<pdfrwt beam="1">  1       21 0.33796173E-01 0.19890884E+03</pdfrwt>
<pdfrwt beam="2">  1       21 0.29333435E-01 0.19890884E+03</pdfrwt>
<totfact> 0.93655459E+04</totfact>
</mgrwt>
</event>
<event>
12    1  0.1074575E-001  0.2511304E+03  0.7546771E-02  0.1113467E+00
         21   -1    0    0  501  502  0.00000000000E+00  0.00000000000E+00  0.11094735174E+03  0.11094735174E+03  0.00000000000E+00 0. -1.
         21   -1    0    0  502  503 -0.00000000000E+00 -0.00000000000E+00 -0.60530120998E+03  0.60530120998E+03  0.00000000000E+00 0.  1.
         -6    2    1    2    0  503 -0.17098027797E+03  0.30723569289E+02 -0.34680382958E+03  0.42497981409E+03  0.17365699814E+03 0.  0.
        -24    2    3    3    0    0 -0.26374371545E+02 -0.27890128165E+02 -0.14676740998E+03  0.17124157718E+03  0.79432602868E+02 0.  0.
          6    2    1    2  501    0  0.17098027797E+03 -0.30723569289E+02 -0.14755002865E+03  0.29126874763E+03  0.18135125924E+03 0.  0.
         24    2    5    5    0    0  0.21917423418E+02 -0.29790369454E+02 -0.35732574275E+02  0.10486639096E+03  0.91390937884E+02 0.  0.
          5    1    5    5  501    0  0.14906285455E+03 -0.93319983478E+00 -0.11181745438E+03  0.18640235667E+03  0.47000000000E+01 0. -1.
        -13    1    6    6    0    0  0.14329882967E+02  0.18077628208E+02 -0.49391351675E+02  0.54512859105E+02  0.00000000000E+00 0.  1.
         14    1    6    6    0    0  0.75875404514E+01 -0.47867997662E+02  0.13658777400E+02  0.50353531856E+02  0.00000000000E+00 0. -1.
         -5    1    3    3    0  503 -0.14460590643E+03  0.58613697454E+02 -0.20003641960E+03  0.25373823691E+03  0.47000000000E+01 0.  1.
         11    1    4    4    0    0 -0.24809411002E+01  0.20307168547E+02 -0.72373766930E+01  0.21700594106E+02  0.00000000000E+00 0. -1.
        -12    1    4    4    0    0 -0.23893430445E+02 -0.48197296712E+02 -0.13953003329E+03  0.14954098307E+03  0.00000000000E+00 0.  1.
<mgrwt>
<rscale>  2 0.24974429E+03</rscale>
<asrwt>0</asrwt>
<pdfrwt beam="1">  1       21 0.17068823E-01 0.25113039E+03</pdfrwt>
<pdfrwt beam="2">  1       21 0.93123265E-01 0.25113039E+03</pdfrwt>
<totfact> 0.29156826E+04</totfact>
</mgrwt>
</event>
<event>
12    1  0.1074575E-001  0.2115153E+03  0.7546771E-02  0.1141552E+00
         21   -1    0    0  503  502  0.00000000000E+00  0.00000000000E+00  0.39616215614E+03  0.39616215614E+03  0.00000000000E+00 0. -1.
         21   -1    0    0  501  503 -0.00000000000E+00 -0.00000000000E+00 -0.11683820871E+03  0.11683820871E+03  0.00000000000E+00 0. -1.
          6    2    1    2  501    0  0.93641297318E+02  0.66306011524E+02  0.74789339277E+02  0.21876725089E+03  0.17058864284E+03 0.  0.
         24    2    3    3    0    0  0.21197154740E+02  0.44348887926E+02 -0.13066334265E+02  0.10270270659E+03  0.89224288287E+02 0.  0.
         -6    2    1    2    0  502 -0.93641297318E+02 -0.66306011524E+02  0.20453460815E+03  0.29423311396E+03  0.17768944732E+03 0.  0.
        -24    2    5    5    0    0 -0.45186919607E+02 -0.10554609518E+03  0.92705334607E+02  0.16611017571E+03  0.76265821284E+02 0.  0.
          5    1    3    3  501    0  0.72444142578E+02  0.21957123598E+02  0.87855673542E+02  0.11606454430E+03  0.47000000000E+01 0. -1.
        -13    1    4    4    0    0 -0.30020378878E+02  0.38943130783E+02  0.14552813202E+01  0.49192564752E+02  0.00000000000E+00 0.  1.
         14    1    4    4    0    0  0.51217533618E+02  0.54057571429E+01 -0.14521615585E+02  0.53510141837E+02  0.00000000000E+00 0. -1.
         -5    1    5    5    0  502 -0.48454377711E+02  0.39240083661E+02  0.11182927354E+03  0.12812293825E+03  0.47000000000E+01 0.  1.
         11    1    6    6    0    0 -0.25340915581E+02 -0.70519096913E+02  0.10024001027E+03  0.12515256566E+03  0.00000000000E+00 0. -1.
        -12    1    6    6    0    0 -0.19846004026E+02 -0.35026998272E+02 -0.75346756597E+01  0.40957610050E+02  0.00000000000E+00 0.  1.
<mgrwt>
<rscale>  2 0.21001717E+03</rscale>
<asrwt>0</asrwt>
<pdfrwt beam="1">  1       21 0.60948023E-01 0.21151529E+03</pdfrwt>
<pdfrwt beam="2">  1       21 0.17975109E-01 0.21151529E+03</pdfrwt>
<totfact> 0.69927805E+04</totfact>
</mgrwt>
</event>
<event>
12    1  0.1074575E-001  0.3103079E+03  0.7546771E-02  0.1080559E+00
         21   -1    0    0  501  502  0.00000000000E+00  0.00000000000E+00  0.87660527138E+03  0.87660527138E+03  0.00000000000E+00 0.  1.
         21   -1    0    0  502  503 -0.00000000000E+00 -0.00000000000E+00 -0.13032963731E+03  0.13032963731E+03  0.00000000000E+00 0. -1.
         -6    2    1    2    0  503 -0.65859283793E+02 -0.24586148290E+03  0.16693291274E+03  0.34972189020E+03  0.17220188470E+03 0.  0.
        -24    2    3    3    0    0 -0.57269521416E+02 -0.19498427661E+03  0.55232389228E+02  0.22659037072E+03  0.83629618400E+02 0.  0.
          6    2    1    2  501    0  0.65859283793E+02  0.24586148290E+03  0.57934272133E+03  0.65721301849E+03  0.17749830671E+03 0.  0.
         24    2    5    5    0    0  0.38903334282E+02  0.17650043042E+03  0.53534669653E+03  0.57063750802E+03  0.79782258180E+02 0.  0.
          5    1    5    5  501    0  0.26955949511E+02  0.69361052479E+02  0.43996024798E+02  0.86575510470E+02  0.47000000000E+01 0. -1.
        -11    1    6    6    0    0 -0.99136283501E+01  0.12631012442E+03  0.36945152959E+03  0.39057260564E+03  0.00000000000E+00 0.  1.
         12    1    6    6    0    0  0.48816962632E+02  0.50190306000E+02  0.16589516694E+03  0.18006490239E+03  0.00000000000E+00 0. -1.
         -5    1    3    3    0  503 -0.85897623774E+01 -0.50877206296E+02  0.11170052351E+03  0.12313151949E+03  0.47000000000E+01 0.  1.
         11    1    4    4    0    0 -0.38408376643E+01 -0.14802055263E+03  0.29755518219E+02  0.15103054955E+03  0.00000000000E+00 0. -1.
        -12    1    4    4    0    0 -0.53428683751E+02 -0.46963723979E+02  0.25476871009E+02  0.75559821161E+02  0.00000000000E+00 0.  1.
<mgrwt>
<rscale>  2 0.30955540E+03</rscale>
<asrwt>0</asrwt>
<pdfrwt beam="1">  1       21 0.13486235E+00 0.31030785E+03</pdfrwt>
<pdfrwt beam="2">  1       21 0.20050714E-01 0.31030785E+03</pdfrwt>
<totfact> 0.84258308E+03</totfact>
</mgrwt>
</event>
<event>
12    1  0.1074575E-001  0.3099624E+03  0.7546771E-02  0.1080405E+00
         21   -1    0    0  501  502  0.00000000000E+00  0.00000000000E+00  0.27648021485E+03  0.27648021485E+03  0.00000000000E+00 0.  1.
         21   -1    0    0  502  503 -0.00000000000E+00 -0.00000000000E+00 -0.35733581682E+03  0.35733581682E+03  0.00000000000E+00 0. -1.
         -6    2    1    2    0  503 -0.21868201467E+03 -0.13429310231E+03  0.13188847958E+02  0.30990088878E+03  0.17322861857E+03 0.  0.
        -24    2    3    3    0    0 -0.72745538704E+02 -0.11466594098E+03  0.34058206854E+02  0.16110471740E+03  0.79715601310E+02 0.  0.
          6    2    1    2  501    0  0.21868201467E+03  0.13429310231E+03 -0.94044449928E+02  0.32391514289E+03  0.17383958228E+03 0.  0.
         24    2    5    5    0    0  0.95460951630E+02  0.12840334013E+03 -0.13857105058E+02  0.17670705904E+03  0.73709933599E+02 0.  0.
          5    1    5    5  501    0  0.12322106304E+03  0.58897621765E+01 -0.80187344870E+02  0.14720808385E+03  0.47000000000E+01 0. -1.
        -13    1    6    6    0    0 -0.58966301893E+01 -0.49950971248E+01 -0.44250702391E+01  0.89051945232E+01  0.00000000000E+00 0.  1.
         14    1    6    6    0    0  0.10135758182E+03  0.13339843726E+03 -0.94320348189E+01  0.16780186452E+03  0.00000000000E+00 0. -1.
         -5    1    3    3    0  503 -0.14593647596E+03 -0.19627161334E+02 -0.20869358897E+02  0.14879617138E+03  0.47000000000E+01 0.  1.
         13    1    4    4    0    0 -0.42764727237E+02 -0.88749865836E+02 -0.13237069882E+02  0.99401109655E+02  0.00000000000E+00 0. -1.
        -14    1    4    4    0    0 -0.29980811467E+02 -0.25916075140E+02  0.47295276736E+02  0.61703607742E+02  0.00000000000E+00 0.  1.
<mgrwt>
<rscale>  2 0.30987676E+03</rscale>
<asrwt>0</asrwt>
<pdfrwt beam="1">  1       21 0.42535418E-01 0.30996235E+03</pdfrwt>
<pdfrwt beam="2">  1       21 0.54974741E-01 0.30996235E+03</pdfrwt>
<totfact> 0.15642032E+04</totfact>
</mgrwt>
</event>
<event>
11    1  0.1074575E-001  0.2290816E+03  0.7546771E-02  0.1127460E+00
         21   -1    0    0  503  502  0.00000000000E+00  0.00000000000E+00  0.16364363955E+03  0.16364363955E+03  0.00000000000E+00 0. -1.
         21   -1    0    0  501  503 -0.00000000000E+00 -0.00000000000E+00 -0.56171555518E+03  0.56171555518E+03  0.00000000000E+00 0. -1.
          6    2    1    2  501    0 -0.13494477859E+03 -0.70693356251E+02 -0.43751619951E+03  0.49386111279E+03  0.17108690775E+03 0.  0.
         24    2    3    3    0    0 -0.64838860997E+02  0.28898309567E+02 -0.20245181090E+03  0.22907686784E+03  0.80313669137E+02 0.  0.
         -6    2    1    2    0  502  0.13494477859E+03  0.70693356251E+02  0.39444283877E+02  0.23149808194E+03  0.16978771016E+03 0.  0.
          5    1    3    3  501    0 -0.70105917594E+02 -0.99591665819E+02 -0.23506438861E+03  0.26478424495E+03  0.47000000000E+01 0. -1.
        -11    1    4    4    0    0 -0.75107729678E+02  0.44122188386E+00 -0.16198797077E+03  0.17855382496E+03  0.00000000000E+00 0.  1.
         12    1    4    4    0    0  0.10268868681E+02  0.28457087684E+02 -0.40463840135E+02  0.50523042880E+02  0.00000000000E+00 0. -1.
         -5    1    5    5    0  502  0.11814306571E+03 -0.22391739578E+02  0.45579637922E+02  0.12868087414E+03  0.47000000000E+01 0.  1.
         13    1    5    5    0    0 -0.27735333541E+01  0.29443770579E+02 -0.18794212485E+02  0.35040698282E+02  0.00000000000E+00 0. -1.
        -14    1    5    5    0    0  0.19575246236E+02  0.63641325251E+02  0.12658858440E+02  0.67776509514E+02  0.00000000000E+00 0.  1.
<mgrwt>
<rscale>  2 0.22883904E+03</rscale>
<asrwt>0</asrwt>
<pdfrwt beam="1">  1       21 0.25175944E-01 0.22908159E+03</pdfrwt>
<pdfrwt beam="2">  1       21 0.86417779E-01 0.22908159E+03</pdfrwt>
<totfact> 0.16868126E+04</totfact>
</mgrwt>
</event>
<event>
12    1  0.1074575E-001  0.1819529E+03  0.7546771E-02  0.1166037E+00
         21   -1    0    0  503  502  0.00000000000E+00  0.00000000000E+00  0.72711436086E+03  0.72711436086E+03  0.00000000000E+00 0.  1.
         21   -1    0    0  501  503 -0.00000000000E+00 -0.00000000000E+00 -0.55491015236E+02  0.55491015236E+02  0.00000000000E+00 0.  1.
          6    2    1    2  501    0 -0.95696120051E+01 -0.54157655971E+02  0.50289212119E+03  0.53479655111E+03  0.17344231417E+03 0.  0.
         24    2    3    3    0    0  0.17093934492E+00 -0.96746662142E+02  0.26758102069E+03  0.29541796851E+03  0.79449528810E+02 0.  0.
         -6    2    1    2    0  502  0.95696120051E+01  0.54157655971E+02  0.16873122443E+03  0.24780882499E+03  0.17295767826E+03 0.  0.
        -24    2    5    5    0    0 -0.43768953905E+02  0.45774905302E+02  0.46142481702E+02  0.11377389310E+03  0.82488222507E+02 0.  0.
          5    1    3    3  501    0 -0.97405513500E+01  0.42589006171E+02  0.23531110051E+03  0.23937858260E+03  0.47000000000E+01 0. -1.
        -13    1    4    4    0    0 -0.20835656464E+02 -0.94518881887E+02  0.17041974553E+03  0.19598681915E+03  0.00000000000E+00 0.  1.
         14    1    4    4    0    0  0.21006595809E+02 -0.22277802549E+01  0.97161275154E+02  0.99431149354E+02  0.00000000000E+00 0. -1.
         -5    1    5    5    0  502  0.53338565910E+02  0.83827506687E+01  0.12258874273E+03  0.13403493189E+03  0.47000000000E+01 0.  1.
         13    1    6    6    0    0 -0.25643581740E+02 -0.19355271983E+02  0.30677920374E+02  0.44422456444E+02  0.00000000000E+00 0. -1.
        -14    1    6    6    0    0 -0.18125372165E+02  0.65130177286E+02  0.15464561328E+02  0.69351436657E+02  0.00000000000E+00 0.  1.
<mgrwt>
<rscale>  2 0.18183733E+03</rscale>
<asrwt>0</asrwt>
<pdfrwt beam="1">  1       21 0.11186374E+00 0.18195292E+03</pdfrwt>
<pdfrwt beam="2">  1       21 0.85370797E-02 0.18195292E+03</pdfrwt>
<totfact> 0.67524184E+04</totfact>
</mgrwt>
</event>
<event>
11    1  0.1074575E-001  0.2043381E+03  0.7546771E-02  0.1146816E+00
         21   -1    0    0  501  502  0.00000000000E+00  0.00000000000E+00  0.65448411159E+02  0.65448411159E+02  0.00000000000E+00 0. -1.
         21   -1    0    0  502  503 -0.00000000000E+00 -0.00000000000E+00 -0.67528405273E+03  0.67528405273E+03  0.00000000000E+00 0. -1.
         -6    2    1    2    0  503  0.35637427381E+02  0.97407403031E+02 -0.20423809185E+03  0.28657012249E+03  0.17219468210E+03 0.  0.
        -24    2    3    3    0    0  0.72818223009E+02  0.59791376121E+02 -0.73054617330E+02  0.14504778845E+03  0.82609815154E+02 0.  0.
          6    2    1    2  501    0 -0.35637427381E+02 -0.97407403031E+02 -0.40559754972E+03  0.45416234140E+03  0.17605633080E+03 0.  0.
          5    1    5    5  501    0 -0.31259464532E+01  0.15299981063E+02 -0.26447460927E+03  0.26497692336E+03  0.47000000000E+01 0. -1.
        -13    1    5    5    0    0 -0.45412374641E+01 -0.73278192150E+02 -0.60296307676E+02  0.95005057770E+02  0.00000000000E+00 0.  1.
         14    1    5    5    0    0 -0.27970243463E+02 -0.39429191944E+02 -0.80826632772E+02  0.94180360277E+02  0.00000000000E+00 0. -1.
         -5    1    3    3    0  503 -0.37180795628E+02  0.37616026910E+02 -0.13118347452E+03  0.14152233404E+03  0.47000000000E+01 0.  1.
         13    1    4    4    0    0  0.29692034280E+02  0.62136952478E+01  0.14571218204E+02  0.33653340224E+02  0.00000000000E+00 0. -1.
        -14    1    4    4    0    0  0.43126188729E+02  0.53577680873E+02 -0.87625835533E+02  0.11139444822E+03  0.00000000000E+00 0.  1.
<mgrwt>
<rscale>  2 0.20350360E+03</rscale>
<asrwt>0</asrwt>
<pdfrwt beam="1">  1       21 0.10068987E-01 0.20433810E+03</pdfrwt>
<pdfrwt beam="2">  1       21 0.10388985E+00 0.20433810E+03</pdfrwt>
<totfact> 0.59735413E+04</totfact>
</mgrwt>
</event>
<event>
12    1  0.1074575E-001  0.2334090E+03  0.7546771E-02  0.1124307E+00
         21   -1    0    0  501  502  0.00000000000E+00  0.00000000000E+00  0.46084106718E+03  0.46084106718E+03  0.00000000000E+00 0. -1.
         21   -1    0    0  502  503 -0.00000000000E+00 -0.00000000000E+00 -0.30226937000E+03  0.30226937000E+03  0.00000000000E+00 0. -1.
         -6    2    1    2    0  503  0.15372839509E+03 -0.26484457640E+01 -0.21857078216E+03  0.31958344021E+03  0.17527394191E+03 0.  0.
        -24    2    3    3    0    0  0.80996034210E+02  0.23942765193E+02 -0.36617545527E+02  0.12178010570E+03  0.79724123954E+02 0.  0.
          6    2    1    2  501    0 -0.15372839509E+03  0.26484457640E+01  0.37714247934E+03  0.44352699698E+03  0.17561410422E+03 0.  0.
         24    2    5    5    0    0 -0.12651820576E+03 -0.53850979628E+02  0.20158588379E+03  0.25704700417E+03  0.80805379879E+02 0.  0.
          5    1    5    5  501    0 -0.27210189336E+02  0.56499425392E+02  0.17555659556E+03  0.18647999281E+03  0.47000000000E+01 0. -1.
        -13    1    6    6    0    0 -0.43992999840E+02  0.16152413304E+02  0.35397647382E+02  0.58730553638E+02  0.00000000000E+00 0.  1.
         14    1    6    6    0    0 -0.82525205919E+02 -0.70003392932E+02  0.16618823640E+03  0.19831645054E+03  0.00000000000E+00 0. -1.
         -5    1    3    3    0  503  0.72732360885E+02 -0.26591210957E+02 -0.18195323664E+03  0.19780333451E+03  0.47000000000E+01 0.  1.
         13    1    4    4    0    0  0.66855979559E+02 -0.15259570400E+02 -0.40965197318E+02  0.79879433416E+02  0.00000000000E+00 0. -1.
        -14    1    4    4    0    0  0.14140054651E+02  0.39202335593E+02  0.43476517910E+01  0.41900672281E+02  0.00000000000E+00 0.  1.
<mgrwt>
<rscale>  2 0.23334499E+03</rscale>
<asrwt>0</asrwt>
<pdfrwt beam="1">  1       21 0.70898626E-01 0.23340897E+03</pdfrwt>
<pdfrwt beam="2">  1       21 0.46502980E-01 0.23340897E+03</pdfrwt>
<totfact> 0.77604515E+03</totfact>
</mgrwt>
</event>
<event>
12    1  0.1074575E-001  0.1748951E+03  0.7546771E-02  0.1172962E+00
         21   -1    0    0  503  502  0.00000000000E+00  0.00000000000E+00  0.37718454075E+03  0.37718454075E+03  0.00000000000E+00 0.  1.
         21   -1    0    0  501  503 -0.00000000000E+00 -0.00000000000E+00 -0.82233833294E+02  0.82233833294E+02  0.00000000000E+00 0.  1.
          6    2    1    2  501    0  0.16060682025E+02 -0.14152422112E+02  0.11805331509E+03  0.21100917719E+03  0.17358009994E+03 0.  0.
         24    2    3    3    0    0  0.51402358367E+02  0.47330976405E+02  0.88678994895E+02  0.13410545122E+03  0.72373228055E+02 0.  0.
         -6    2    1    2    0  502 -0.16060682025E+02  0.14152422112E+02  0.17689739236E+03  0.24840919686E+03  0.17307860960E+03 0.  0.
        -24    2    5    5    0    0  0.90721431342E+01  0.35258382659E+02  0.22535110363E+02  0.90526567745E+02  0.79760710502E+02 0.  0.
          5    1    3    3  501    0 -0.35341676342E+02 -0.61483398517E+02  0.29374320196E+02  0.76903725962E+02  0.47000000000E+01 0. -1.
        -13    1    4    4    0    0 -0.27390258843E+01  0.69299975269E+00 -0.11056906813E+02  0.11412173313E+02  0.00000000000E+00 0.  1.
         14    1    4    4    0    0  0.54141384251E+02  0.46637976652E+02  0.99735901708E+02  0.12269327791E+03  0.00000000000E+00 0. -1.
         -5    1    5    5    0  502 -0.25132825159E+02 -0.21105960548E+02  0.15436228200E+03  0.15788262911E+03  0.47000000000E+01 0.  1.
         13    1    6    6    0    0  0.41634029964E+02  0.48523306115E+01  0.18423629022E+02  0.45786107825E+02  0.00000000000E+00 0. -1.
        -14    1    6    6    0    0 -0.32561886830E+02  0.30406052048E+02  0.41114813407E+01  0.44740459920E+02  0.00000000000E+00 0.  1.
<mgrwt>
<rscale>  2 0.17477052E+03</rscale>
<asrwt>0</asrwt>
<pdfrwt beam="1">  1       21 0.58028390E-01 0.17489508E+03</pdfrwt>
<pdfrwt beam="2">  1       21 0.12651359E-01 0.17489508E+03</pdfrwt>
<totfact> 0.14944989E+05</totfact>
</mgrwt>
</event>
<event>
12    1  0.1074575E-001  0.2293845E+03  0.7546771E-02  0.1127150E+00
         21   -1    0    0  501  502  0.00000000000E+00  0.00000000000E+00  0.10205260125E+03  0.10205260125E+03  0.00000000000E+00 0.  1.
         21   -1    0    0  502  503 -0.00000000000E+00 -0.00000000000E+00 -0.54423392774E+03  0.54423392774E+03  0.00000000000E+00 0. -1.
         -6    2    1    2    0  503  0.15269313193E+02  0.14988834932E+03 -0.14590907940E+03  0.27185788085E+03  0.17296698743E+03 0.  0.
        -24    2    3    3    0    0 -0.38288497711E+02  0.59021355939E+02 -0.22961139853E+02  0.10979759752E+03  0.81109610798E+02 0.  0.
          6    2    1    2  501    0 -0.15269313193E+02 -0.14988834932E+03 -0.29627224709E+03  0.37442864814E+03  0.17239460248E+03 0.  0.
         24    2    5    5    0    0 -0.33280314470E+02 -0.17347689605E+03 -0.27878857392E+03  0.33966394576E+03  0.80291433592E+02 0.  0.
          5    1    5    5  501    0  0.18011001277E+02  0.23588546728E+02 -0.17483673167E+02  0.34764702374E+02  0.47000000000E+01 0. -1.
        -11    1    6    6    0    0  0.16673074128E+02 -0.11788443778E+03 -0.16304278078E+03  0.20188531506E+03  0.00000000000E+00 0.  1.
         12    1    6    6    0    0 -0.49953388597E+02 -0.55592458262E+02 -0.11574579314E+03  0.13777863070E+03  0.00000000000E+00 0. -1.
         -5    1    3    3    0  503  0.53557810904E+02  0.90866993378E+02 -0.12294793954E+03  0.16206028333E+03  0.47000000000E+01 0.  1.
         11    1    4    4    0    0 -0.54443667024E+02  0.33379406770E+02 -0.39680075355E+02  0.75185145179E+02  0.00000000000E+00 0. -1.
        -12    1    4    4    0    0  0.16155169313E+02  0.25641949169E+02  0.16718935502E+02  0.34612452341E+02  0.00000000000E+00 0.  1.
<mgrwt>
<rscale>  2 0.22927660E+03</rscale>
<asrwt>0</asrwt>
<pdfrwt beam="1">  1       21 0.15700400E-01 0.22938450E+03</pdfrwt>
<pdfrwt beam="2">  1       21 0.83728295E-01 0.22938450E+03</pdfrwt>
<totfact> 0.43963455E+04</totfact>
</mgrwt>
</event>
<event>
12    1  0.1074575E-001  0.2078108E+03  0.7546771E-02  0.1143336E+00
         21   -1    0    0  501  502  0.00000000000E+00  0.00000000000E+00  0.13863695832E+03  0.13863695832E+03  0.00000000000E+00 0.  1.
         21   -1    0    0  502  503 -0.00000000000E+00 -0.00000000000E+00 -0.46477586554E+03  0.46477586554E+03  0.00000000000E+00 0.  1.
         -6    2    1    2    0  503  0.77615041617E+02 -0.84186346158E+02 -0.33646514734E+03  0.39546695644E+03  0.17341823059E+03 0.  0.
        -24    2    3    3    0    0  0.50578191205E+02 -0.40743007482E+02 -0.71454231077E+02  0.12552031228E+03  0.80196605742E+02 0.  0.
          6    2    1    2  501    0 -0.77615041617E+02  0.84186346158E+02  0.10326240119E+02  0.20794586742E+03  0.17327266656E+03 0.  0.
         24    2    5    5    0    0 -0.10698644855E+03  0.58385812835E+02 -0.33735847417E+02  0.14885352762E+03  0.78512814041E+02 0.  0.
          5    1    5    5  501    0  0.29371406936E+02  0.25800533323E+02  0.44062087536E+02  0.59092339801E+02  0.47000000000E+01 0. -1.
        -13    1    6    6    0    0 -0.89322003822E+02  0.29160963557E+02  0.87235515971E+01  0.94365685050E+02  0.00000000000E+00 0.  1.
         14    1    6    6    0    0 -0.17664444730E+02  0.29224849278E+02 -0.42459399015E+02  0.54487842567E+02  0.00000000000E+00 0. -1.
         -5    1    3    3    0  503  0.27036850412E+02 -0.43443338676E+02 -0.26501091626E+03  0.26994664416E+03  0.47000000000E+01 0.  1.
         11    1    4    4    0    0 -0.22030548451E+02 -0.10169219060E+02 -0.14011628574E+02  0.28019347184E+02  0.00000000000E+00 0. -1.
        -12    1    4    4    0    0  0.72608739656E+02 -0.30573788421E+02 -0.57442602503E+02  0.97500965099E+02  0.00000000000E+00 0.  1.
<mgrwt>
<rscale>  2 0.20778040E+03</rscale>
<asrwt>0</asrwt>
<pdfrwt beam="1">  1       21 0.21328763E-01 0.20781078E+03</pdfrwt>
<pdfrwt beam="2">  1       21 0.71503980E-01 0.20781078E+03</pdfrwt>
<totfact> 0.35885082E+04</totfact>
</mgrwt>
</event>
<event>
12    1  0.1074575E-001  0.1973620E+03  0.7546771E-02  0.1152003E+00
         21   -1    0    0  501  502  0.00000000000E+00  0.00000000000E+00  0.27004061411E+03  0.27004061411E+03  0.00000000000E+00 0. -1.
         21   -1    0    0  502  503 -0.00000000000E+00 -0.00000000000E+00 -0.32181444397E+03  0.32181444397E+03  0.00000000000E+00 0. -1.
         -6    2    1    2    0  503 -0.75890016658E+02  0.58144406221E+02 -0.24575003906E+03  0.31519013816E+03  0.17266057712E+03 0.  0.
        -24    2    3    3    0    0 -0.96209025696E+02  0.55959578075E+02 -0.25774642604E+03  0.29103151852E+03  0.76671204735E+02 0.  0.
          6    2    1    2  501    0  0.75890016658E+02 -0.58144406221E+02  0.19397620920E+03  0.27666491993E+03  0.17255909590E+03 0.  0.
         24    2    5    5    0    0  0.79080095346E+01  0.68877039503E+00  0.21405836201E+02  0.82022890544E+02  0.78781557044E+02 0.  0.
          5    1    5    5  501    0  0.67982007123E+02 -0.58833176616E+02  0.17257037300E+03  0.19464202938E+03  0.47000000000E+01 0. -1.
        -11    1    6    6    0    0  0.36113240199E+01  0.34595839828E+02  0.30925651688E+02  0.46543632507E+02  0.00000000000E+00 0.  1.
         12    1    6    6    0    0  0.42966855146E+01 -0.33907069433E+02 -0.95198154875E+01  0.35479258037E+02  0.00000000000E+00 0. -1.
         -5    1    3    3    0  503  0.20319009039E+02  0.21848281464E+01  0.11996386974E+02  0.24158619637E+02  0.47000000000E+01 0.  1.
         11    1    4    4    0    0 -0.37815003703E+02  0.60223221725E+02 -0.99484039703E+02  0.12228607891E+03  0.00000000000E+00 0. -1.
        -12    1    4    4    0    0 -0.58394021993E+02 -0.42636436501E+01 -0.15826238633E+03  0.16874543961E+03  0.00000000000E+00 0.  1.
<mgrwt>
<rscale>  2 0.19733976E+03</rscale>
<asrwt>0</asrwt>
<pdfrwt beam="1">  1       21 0.41544710E-01 0.19736196E+03</pdfrwt>
<pdfrwt beam="2">  1       21 0.49509914E-01 0.19736196E+03</pdfrwt>
<totfact> 0.21636888E+04</totfact>
</mgrwt>
</event>
<event>
12    1  0.1074575E-001  0.2183635E+03  0.7546771E-02  0.1135271E+00
         21   -1    0    0  503  502  0.00000000000E+00  0.00000000000E+00  0.30896958005E+02  0.30896958005E+02  0.00000000000E+00 0.  1.
         21   -1    0    0  501  503 -0.00000000000E+00 -0.00000000000E+00 -0.15783616552E+04  0.15783616552E+04  0.00000000000E+00 0.  1.
          6    2    1    2  501    0  0.13013280724E+03 -0.26712520689E+02 -0.90217394542E+03  0.92802241432E+03  0.17221982295E+03 0.  0.
         24    2    3    3    0    0  0.14129491897E+03 -0.11722896023E+02 -0.50590094392E+03  0.53128110906E+03  0.78880741422E+02 0.  0.
         -6    2    1    2    0  502 -0.13013280724E+03  0.26712520689E+02 -0.64529075180E+03  0.68123619891E+03  0.17330463946E+03 0.  0.
        -24    2    5    5    0    0 -0.10744923887E+03  0.79509846016E+02 -0.52688098281E+03  0.54953553365E+03  0.80737712091E+02 0.  0.
          5    1    3    3  501    0 -0.11162111733E+02 -0.14989624666E+02 -0.39627300150E+03  0.39674130527E+03  0.47000000000E+01 0. -1.
        -13    1    4    4    0    0  0.25751808591E+02  0.12115479313E+02 -0.22238205592E+03  0.22419571646E+03  0.00000000000E+00 0.  1.
         14    1    4    4    0    0  0.11554311038E+03 -0.23838375335E+02 -0.28351888800E+03  0.30708539260E+03  0.00000000000E+00 0. -1.
         -5    1    5    5    0  502 -0.22683568371E+02 -0.52797325327E+02 -0.11840976899E+03  0.13170066526E+03  0.47000000000E+01 0.  1.
         13    1    6    6    0    0 -0.82984858554E+02  0.75928410514E+02 -0.28498100833E+03  0.30637523624E+03  0.00000000000E+00 0. -1.
        -14    1    6    6    0    0 -0.24464380312E+02  0.35814355017E+01 -0.24189997448E+03  0.24316029741E+03  0.00000000000E+00 0.  1.
<mgrwt>
<rscale>  2 0.21814816E+03</rscale>
<asrwt>0</asrwt>
<pdfrwt beam="1">  1       21 0.47533779E-02 0.21836347E+03</pdfrwt>
<pdfrwt beam="2">  1       21 0.24282488E+00 0.21836347E+03</pdfrwt>
<totfact> 0.21034039E+04</totfact>
</mgrwt>
</event>
<event>
12    1  0.1074575E-001  0.2387285E+03  0.7546771E-02  0.1120668E+00
         21   -1    0    0  501  502  0.00000000000E+00  0.00000000000E+00  0.30995274678E+03  0.30995274678E+03  0.00000000000E+00 0.  1.
         21   -1    0    0  502  503 -0.00000000000E+00 -0.00000000000E+00 -0.77114908103E+03  0.77114908103E+03  0.00000000000E+00 0. -1.
         -6    2    1    2    0  503 -0.33413708609E+02 -0.16040256269E+03 -0.70235309657E+03  0.74176736451E+03  0.17341710629E+03 0.  0.
        -24    2    3    3    0    0 -0.83873336633E+02 -0.11385489454E+03 -0.57020362988E+03  0.59277598551E+03  0.79079174629E+02 0.  0.
          6    2    1    2  501    0  0.33413708609E+02  0.16040256269E+03  0.24115676232E+03  0.33933446330E+03  0.17362556243E+03 0.  0.
         24    2    5    5    0    0  0.36282789352E+02  0.15170424067E+03  0.26426418446E+03  0.31403751905E+03  0.66733700219E+02 0.  0.
          5    1    5    5  501    0 -0.28690807436E+01  0.86983220197E+01 -0.23107422139E+02  0.25296944246E+02  0.47000000000E+01 0. -1.
        -13    1    6    6    0    0 -0.74332352602E+01  0.62604549434E+02  0.14987774965E+03  0.16259742445E+03  0.00000000000E+00 0.  1.
         14    1    6    6    0    0  0.43716024612E+02  0.89099691240E+02  0.11438643481E+03  0.15144009461E+03  0.00000000000E+00 0. -1.
         -5    1    3    3    0  503  0.50459628024E+02 -0.46547668152E+02 -0.13214946669E+03  0.14899137901E+03  0.47000000000E+01 0.  1.
         11    1    4    4    0    0 -0.53651941446E+01  0.84776568664E+01 -0.10287966520E+03  0.10336770040E+03  0.00000000000E+00 0. -1.
        -12    1    4    4    0    0 -0.78508142488E+02 -0.12233255141E+03 -0.46732396468E+03  0.48940828511E+03  0.00000000000E+00 0.  1.
<mgrwt>
<rscale>  2 0.23869059E+03</rscale>
<asrwt>0</asrwt>
<pdfrwt beam="1">  1       21 0.47685038E-01 0.23872849E+03</pdfrwt>
<pdfrwt beam="2">  1       21 0.11863832E+00 0.23872849E+03</pdfrwt>
<totfact> 0.21976645E+03</totfact>
</mgrwt>
</event>
<event>
12    1  0.1074575E-001  0.2108377E+03  0.7546771E-02  0.1140918E+00
         21   -1    0    0  501  502  0.00000000000E+00  0.00000000000E+00  0.77642624978E+03  0.77642624978E+03  0.00000000000E+00 0. -1.
         21   -1    0    0  502  503 -0.00000000000E+00 -0.00000000000E+00 -0.67143203581E+02  0.67143203581E+02  0.00000000000E+00 0. -1.
         -6    2    1    2    0  503 -0.40224293032E+02 -0.11301429949E+03  0.19256038358E+03  0.28548804358E+03  0.17330232561E+03 0.  0.
        -24    2    3    3    0    0 -0.50619132802E+01 -0.14442861566E+03  0.14419523779E+03  0.21777888957E+03  0.75829612624E+02 0.  0.
          6    2    1    2  501    0  0.40224293032E+02  0.11301429949E+03  0.51672266262E+03  0.55808140978E+03  0.17338490199E+03 0.  0.
         24    2    5    5    0    0  0.91894565677E+02  0.94003986780E+02  0.34615678098E+03  0.37878830048E+03  0.79841711071E+02 0.  0.
          5    1    5    5  501    0 -0.51670272645E+02  0.19010312714E+02  0.17056588164E+03  0.17929310930E+03  0.47000000000E+01 0. -1.
        -13    1    6    6    0    0  0.22459215763E+02 -0.12578173767E+02  0.44515828967E+02  0.51422620087E+02  0.00000000000E+00 0.  1.
         14    1    6    6    0    0  0.69435349914E+02  0.10658216055E+03  0.30164095202E+03  0.32736568039E+03  0.00000000000E+00 0. -1.
         -5    1    3    3    0  503 -0.35162379752E+02  0.31414316170E+02  0.48365145786E+02  0.67709154013E+02  0.47000000000E+01 0.  1.
         11    1    4    4    0    0  0.14018218659E+02 -0.31324005364E+02  0.10323517624E+01  0.34333213024E+02  0.00000000000E+00 0. -1.
        -12    1    4    4    0    0 -0.19080131939E+02 -0.11310461030E+03  0.14316288603E+03  0.18344567654E+03  0.00000000000E+00 0.  1.
<mgrwt>
<rscale>  2 0.21082076E+03</rscale>
<asrwt>0</asrwt>
<pdfrwt beam="1">  1       21 0.11945019E+00 0.21083773E+03</pdfrwt>
<pdfrwt beam="2">  1       21 0.10329724E-01 0.21083773E+03</pdfrwt>
<totfact> 0.40520507E+04</totfact>
</mgrwt>
</event>
<event>
12    1  0.1074575E-001  0.1929006E+03  0.7546771E-02  0.1155987E+00
         21   -1    0    0  503  502  0.00000000000E+00  0.00000000000E+00  0.43674720808E+02  0.43674720808E+02  0.00000000000E+00 0. -1.
         21   -1    0    0  501  503 -0.00000000000E+00 -0.00000000000E+00 -0.20652566565E+04  0.20652566565E+04  0.00000000000E+00 0. -1.
          6    2    1    2  501    0  0.66271899607E+02 -0.52101183022E+02 -0.18203338379E+04  0.18305261313E+04  0.17350544010E+03 0.  0.
         24    2    3    3    0    0 -0.30300860120E+02 -0.62656380148E+02 -0.69764100676E+03  0.70362817968E+03  0.59545586122E+02 0.  0.
         -6    2    1    2    0  502 -0.66271899607E+02  0.52101183022E+02 -0.20124809774E+03  0.27840524603E+03  0.17292248617E+03 0.  0.
        -24    2    5    5    0    0  0.68874920426E+01  0.79512104788E+00 -0.29033971426E+02  0.84332053951E+02  0.78872391004E+02 0.  0.
          5    1    3    3  501    0  0.96572759727E+02  0.10555197126E+02 -0.11226928312E+04  0.11268979516E+04  0.47000000000E+01 0. -1.
        -13    1    4    4    0    0 -0.23531844694E+02  0.14922353457E-01 -0.31034699822E+03  0.31123786280E+03  0.00000000000E+00 0.  1.
         14    1    4    4    0    0 -0.67690154251E+01 -0.62671302502E+02 -0.38729400854E+03  0.39239031688E+03  0.00000000000E+00 0. -1.
         -5    1    5    5    0  502 -0.73159391650E+02  0.51306061974E+02 -0.17221412631E+03  0.19407319208E+03  0.47000000000E+01 0.  1.
         13    1    6    6    0    0  0.23767103732E+02  0.11252870320E+02 -0.49353081622E+02  0.55921632450E+02  0.00000000000E+00 0. -1.
        -14    1    6    6    0    0 -0.16879611690E+02 -0.10457749272E+02  0.20319110197E+02  0.28410421500E+02  0.00000000000E+00 0.  1.
<mgrwt>
<rscale>  2 0.19276941E+03</rscale>
<asrwt>0</asrwt>
<pdfrwt beam="1">  1       21 0.67191859E-02 0.19290059E+03</pdfrwt>
<pdfrwt beam="2">  1       21 0.31773188E+00 0.19290059E+03</pdfrwt>
<totfact> 0.43775745E+03</totfact>
</mgrwt>
</event>
<event>
12    1  0.1074575E-001  0.2403612E+03  0.7546771E-02  0.1119842E+00
         21   -1    0    0  501  502  0.00000000000E+00  0.00000000000E+00  0.13987952577E+03  0.13987952577E+03  0.00000000000E+00 0.  1.
         21   -1    0    0  502  503 -0.00000000000E+00 -0.00000000000E+00 -0.46833380079E+03  0.46833380079E+03  0.00000000000E+00 0.  1.
         -6    2    1    2    0  503  0.83022610235E+02 -0.14539836378E+03 -0.27099223587E+03  0.36107894765E+03  0.17002287063E+03 0.  0.
        -24    2    3    3    0    0  0.66990222151E+02 -0.42809553669E+02 -0.12846142956E+03  0.18467423634E+03  0.10621622726E+03 0.  0.
          6    2    1    2  501    0 -0.83022610235E+02  0.14539836378E+03 -0.57462039150E+02  0.24713437891E+03  0.17245311622E+03 0.  0.
         24    2    5    5    0    0 -0.11492315898E+03  0.11936545463E+03 -0.78092194967E+02  0.20084128334E+03  0.82361313419E+02 0.  0.
          5    1    5    5  501    0  0.31900548743E+02  0.26032909145E+02  0.20630155817E+02  0.46293095572E+02  0.47000000000E+01 0. -1.
        -13    1    6    6    0    0 -0.62783649194E+02  0.66813832265E+02 -0.86860075694E+02  0.12629547711E+03  0.00000000000E+00 0.  1.
         14    1    6    6    0    0 -0.52139509784E+02  0.52551622367E+02  0.87678807263E+01  0.74545806229E+02  0.00000000000E+00 0. -1.
         -5    1    3    3    0  503  0.16032388084E+02 -0.10258881011E+03 -0.14253080631E+03  0.17640471131E+03  0.47000000000E+01 0.  1.
         13    1    4    4    0    0 -0.15610505518E+02 -0.24621427468E+02  0.19703769937E+01  0.29219598878E+02  0.00000000000E+00 0. -1.
        -14    1    4    4    0    0  0.82600727670E+02 -0.18188126200E+02 -0.13043180656E+03  0.15545463746E+03  0.00000000000E+00 0.  1.
<mgrwt>
<rscale>  2 0.23992563E+03</rscale>
<asrwt>0</asrwt>
<pdfrwt beam="1">  1       21 0.21519927E-01 0.24036122E+03</pdfrwt>
<pdfrwt beam="2">  1       21 0.72051354E-01 0.24036122E+03</pdfrwt>
<totfact> 0.34149067E+04</totfact>
</mgrwt>
</event>
<event>
12    1  0.1074575E-001  0.1845375E+03  0.7546771E-02  0.1163484E+00
         21   -1    0    0  501  502  0.00000000000E+00  0.00000000000E+00  0.95941850433E+03  0.95941850433E+03  0.00000000000E+00 0.  1.
         21   -1    0    0  502  503 -0.00000000000E+00 -0.00000000000E+00 -0.65767627629E+02  0.65767627629E+02  0.00000000000E+00 0. -1.
         -6    2    1    2    0  503  0.64072863843E+02 -0.10204864361E+02  0.99043615156E+02  0.20943200888E+03  0.17275027497E+03 0.  0.
        -24    2    3    3    0    0  0.10507293206E+03 -0.23435399794E+02  0.96156843410E+02  0.16599842610E+03  0.81974385741E+02 0.  0.
          6    2    1    2  501    0 -0.64072863843E+02  0.10204864361E+02  0.79460726155E+03  0.81575412308E+03  0.17275594949E+03 0.  0.
         24    2    5    5    0    0 -0.10184359690E+03 -0.23227294875E+02  0.61809819833E+03  0.63211894958E+03  0.81347146171E+02 0.  0.
          5    1    5    5  501    0  0.37770733060E+02  0.33432159237E+02  0.17650906322E+03  0.18363517350E+03  0.47000000000E+01 0. -1.
        -13    1    6    6    0    0 -0.98799029026E+02 -0.12734712607E+02  0.61105146738E+03  0.61911817679E+03  0.00000000000E+00 0.  1.
         14    1    6    6    0    0 -0.30445678767E+01 -0.10492582268E+02  0.70467309432E+01  0.13000772792E+02  0.00000000000E+00 0. -1.
         -5    1    3    3    0  503 -0.41000068220E+02  0.13230535433E+02  0.28867717462E+01  0.43433582778E+02  0.47000000000E+01 0.  1.
         11    1    4    4    0    0  0.53048878645E+02  0.29163539564E+02  0.34392768620E+02  0.69624407349E+02  0.00000000000E+00 0. -1.
        -12    1    4    4    0    0  0.52024053418E+02 -0.52598939359E+02  0.61764074790E+02  0.96374018752E+02  0.00000000000E+00 0.  1.
<mgrwt>
<rscale>  2 0.18453617E+03</rscale>
<asrwt>0</asrwt>
<pdfrwt beam="1">  1       21 0.14760284E+00 0.18453750E+03</pdfrwt>
<pdfrwt beam="2">  1       21 0.10118097E-01 0.18453750E+03</pdfrwt>
<totfact> 0.24912327E+04</totfact>
</mgrwt>
</event>
<event>
12    1  0.1074575E-001  0.1781276E+03  0.7546771E-02  0.1169750E+00
         21   -1    0    0  503  502  0.00000000000E+00  0.00000000000E+00  0.23148293190E+03  0.23148293190E+03  0.00000000000E+00 0.  1.
         21   -1    0    0  501  503 -0.00000000000E+00 -0.00000000000E+00 -0.13812225920E+03  0.13812225920E+03  0.00000000000E+00 0.  1.
          6    2    1    2  501    0 -0.52255254103E+01 -0.36183201904E+02  0.27784956477E+02  0.17979048490E+03  0.17382774358E+03 0.  0.
         24    2    3    3    0    0 -0.22781964006E+02  0.27592501127E+02  0.60595813925E+02  0.10580257237E+03  0.79006124150E+02 0.  0.
         -6    2    1    2    0  502  0.52255254103E+01  0.36183201904E+02  0.65575716223E+02  0.18981470621E+03  0.17433564730E+03 0.  0.
        -24    2    5    5    0    0 -0.43753334387E+02 -0.23561805911E+02  0.24403730847E+02  0.10214705513E+03  0.85842680667E+02 0.  0.
          5    1    3    3  501    0  0.17556438595E+02 -0.63775703031E+02 -0.32810857448E+02  0.73987912525E+02  0.47000000000E+01 0. -1.
        -11    1    4    4    0    0 -0.49423506123E+01  0.14615937344E+02  0.76861165480E+02  0.78394459071E+02  0.00000000000E+00 0.  1.
         12    1    4    4    0    0 -0.17839613393E+02  0.12976563783E+02 -0.16265351555E+02  0.27408113303E+02  0.00000000000E+00 0. -1.
         -5    1    5    5    0  502  0.48978859797E+02  0.59745007815E+02  0.41171985376E+02  0.87667651079E+02  0.47000000000E+01 0.  1.
         11    1    6    6    0    0 -0.68879408856E+02 -0.23189066342E+02  0.25426300498E+02  0.76997418913E+02  0.00000000000E+00 0. -1.
        -12    1    6    6    0    0  0.25126074469E+02 -0.37273956944E+00 -0.10225696512E+01  0.25149636215E+02  0.00000000000E+00 0.  1.
<mgrwt>
<rscale>  2 0.17800322E+03</rscale>
<asrwt>0</asrwt>
<pdfrwt beam="1">  1       21 0.35612759E-01 0.17812762E+03</pdfrwt>
<pdfrwt beam="2">  1       21 0.21249578E-01 0.17812762E+03</pdfrwt>
<totfact> 0.15737876E+05</totfact>
</mgrwt>
</event>
<event>
12    1  0.1074575E-001  0.2167107E+03  0.7546771E-02  0.1137160E+00
         21   -1    0    0  501  502  0.00000000000E+00  0.00000000000E+00  0.57734910306E+02  0.57734910306E+02  0.00000000000E+00 0.  1.
         21   -1    0    0  502  503 -0.00000000000E+00 -0.00000000000E+00 -0.95849940347E+03  0.95849940347E+03  0.00000000000E+00 0.  1.
         -6    2    1    2    0  503 -0.81723705945E+02  0.91594547170E+02 -0.65474775640E+03  0.68838102241E+03  0.17350931478E+03 0.  0.
        -24    2    3    3    0    0 -0.13518636432E+02 -0.17678828131E+02 -0.30892691890E+03  0.31931904427E+03  0.77675712538E+02 0.  0.
          6    2    1    2  501    0  0.81723705945E+02 -0.91594547170E+02 -0.24601673676E+03  0.32785329137E+03  0.17859233104E+03 0.  0.
         24    2    5    5    0    0  0.90564037738E+02 -0.10383071819E+03 -0.26181233130E+03  0.30550455194E+03  0.76188394549E+02 0.  0.
          5    1    5    5  501    0 -0.88403317930E+01  0.12236171021E+02  0.15795594533E+02  0.22348739430E+02  0.47000000000E+01 0. -1.
        -11    1    6    6    0    0  0.21674290025E+02 -0.18909088277E+02 -0.91326297635E+01  0.30178359696E+02  0.00000000000E+00 0.  1.
         12    1    6    6    0    0  0.68889747713E+02 -0.84921629914E+02 -0.25267970153E+03  0.27532619224E+03  0.00000000000E+00 0. -1.
         -5    1    3    3    0  503 -0.68205069513E+02  0.10927337530E+03 -0.34582083750E+03  0.36906197814E+03  0.47000000000E+01 0.  1.
         13    1    4    4    0    0  0.21327688187E+02  0.16949030590E+02 -0.64717729568E+02  0.70217693224E+02  0.00000000000E+00 0. -1.
        -14    1    4    4    0    0 -0.34846324620E+02 -0.34627858721E+02 -0.24420918933E+03  0.24910135104E+03  0.00000000000E+00 0.  1.
<mgrwt>
<rscale>  2 0.21566078E+03</rscale>
<asrwt>0</asrwt>
<pdfrwt beam="1">  1       21 0.88822936E-02 0.21671074E+03</pdfrwt>
<pdfrwt beam="2">  1       21 0.14746145E+00 0.21671074E+03</pdfrwt>
<totfact> 0.30797113E+04</totfact>
</mgrwt>
</event>
<event>
12    1  0.1074575E-001  0.2087448E+03  0.7546771E-02  0.1142627E+00
         21   -1    0    0  503  502  0.00000000000E+00  0.00000000000E+00  0.41193780277E+03  0.41193780277E+03  0.00000000000E+00 0.  1.
         21   -1    0    0  501  503 -0.00000000000E+00 -0.00000000000E+00 -0.11486856432E+03  0.11486856432E+03  0.00000000000E+00 0.  1.
          6    2    1    2  501    0 -0.54311413661E+02  0.10361331390E+03  0.73897041398E+02  0.22143883425E+03  0.17288416965E+03 0.  0.
         24    2    3    3    0    0 -0.77154862333E+02  0.92839326370E+02  0.10270585189E+03  0.18283909959E+03  0.91157177574E+02 0.  0.
         -6    2    1    2    0  502  0.54311413661E+02 -0.10361331390E+03  0.22317219705E+03  0.30536753284E+03  0.17250522340E+03 0.  0.
        -24    2    5    5    0    0  0.37812578244E+02 -0.11221730441E+03  0.24030630866E+03  0.27963996002E+03  0.80180239312E+02 0.  0.
          5    1    3    3  501    0  0.22843448672E+02  0.10773987530E+02 -0.28808810488E+02  0.38599734665E+02  0.47000000000E+01 0. -1.
        -13    1    4    4    0    0 -0.86001083846E+01  0.81230604307E+02  0.57855569856E+02  0.10009815135E+03  0.00000000000E+00 0.  1.
         14    1    4    4    0    0 -0.68554753948E+02  0.11608722064E+02  0.44850282030E+02  0.82740948236E+02  0.00000000000E+00 0. -1.
         -5    1    5    5    0  502  0.16498835417E+02  0.86039905066E+01 -0.17134111603E+02  0.25727572819E+02  0.47000000000E+01 0.  1.
         11    1    6    6    0    0  0.13042431487E+02  0.18534469497E+01  0.79442879374E+00  0.13197401327E+02  0.00000000000E+00 0. -1.
        -12    1    6    6    0    0  0.24770146757E+02 -0.11407075136E+03  0.23951187986E+03  0.26644255869E+03  0.00000000000E+00 0.  1.
<mgrwt>
<rscale>  2 0.20866630E+03</rscale>
<asrwt>0</asrwt>
<pdfrwt beam="1">  1       21 0.63375046E-01 0.20874478E+03</pdfrwt>
<pdfrwt beam="2">  1       21 0.17672087E-01 0.20874478E+03</pdfrwt>
<totfact> 0.66394682E+04</totfact>
</mgrwt>
</event>
<event>
12    1  0.1074575E-001  0.1819863E+03  0.7546771E-02  0.1166564E+00
         21   -1    0    0  503  502  0.00000000000E+00  0.00000000000E+00  0.62758975556E+02  0.62758975556E+02  0.00000000000E+00 0.  1.
         21   -1    0    0  501  503 -0.00000000000E+00 -0.00000000000E+00 -0.66334484087E+03  0.66334484087E+03  0.00000000000E+00 0.  1.
          6    2    1    2  501    0 -0.16234939354E+02  0.41527105507E+02 -0.47106323986E+03  0.50499463337E+03  0.17643959319E+03 0.  0.
         24    2    3    3    0    0 -0.45105135407E+00  0.26096800004E+02 -0.47385397102E+03  0.48225472069E+03  0.85736709527E+02 0.  0.
         -6    2    1    2    0  502  0.16234939354E+02 -0.41527105507E+02 -0.12952262546E+03  0.22110918305E+03  0.17356579898E+03 0.  0.
        -24    2    5    5    0    0 -0.56523086350E+02 -0.70220825432E+01 -0.74583329905E+02  0.12351439267E+03  0.80305436697E+02 0.  0.
          5    1    3    3  501    0 -0.15783888000E+02  0.15430305503E+02  0.27907311647E+01  0.22739912681E+02  0.47000000000E+01 0. -1.
        -13    1    4    4    0    0 -0.15230677904E+02  0.49149798233E+02 -0.18245508961E+03  0.18957198089E+03  0.00000000000E+00 0.  1.
         14    1    4    4    0    0  0.14779626550E+02 -0.23052998229E+02 -0.29139888141E+03  0.29268273980E+03  0.00000000000E+00 0. -1.
         -5    1    5    5    0  502  0.72758025704E+02 -0.34505022964E+02 -0.54939295555E+02  0.97594790384E+02  0.47000000000E+01 0.  1.
         11    1    6    6    0    0 -0.32632571816E+02  0.35256446206E+02 -0.49018317545E+02  0.68634518992E+02  0.00000000000E+00 0. -1.
        -12    1    6    6    0    0 -0.23890514534E+02 -0.42278528749E+02 -0.25565012360E+02  0.54879873677E+02  0.00000000000E+00 0.  1.
<mgrwt>
<rscale>  2 0.18128604E+03</rscale>
<asrwt>0</asrwt>
<pdfrwt beam="1">  1       21 0.96552268E-02 0.18198627E+03</pdfrwt>
<pdfrwt beam="2">  1       21 0.10205306E+00 0.18198627E+03</pdfrwt>
<totfact> 0.67854367E+04</totfact>
</mgrwt>
</event>
<event>
12    1  0.1074575E-001  0.1766592E+03  0.7546771E-02  0.1173060E+00
         21   -1    0    0  503  502  0.00000000000E+00  0.00000000000E+00  0.82760964177E+03  0.82760964177E+03  0.00000000000E+00 0.  1.
         21   -1    0    0  501  503 -0.00000000000E+00 -0.00000000000E+00 -0.54501649467E+02  0.54501649467E+02  0.00000000000E+00 0.  1.
          6    2    1    2  501    0 -0.10665369360E+02  0.33348049553E+01  0.13582131973E+03  0.22283601368E+03  0.17630538015E+03 0.  0.
         24    2    3    3    0    0 -0.17785939762E+02  0.76904817740E+01 -0.34458453726E+01  0.83239782641E+02  0.80879567263E+02 0.  0.
         -6    2    1    2    0  502  0.10665369360E+02 -0.33348049553E+01  0.63728667257E+03  0.65927527756E+03  0.16847764699E+03 0.  0.
        -24    2    5    5    0    0  0.44752246994E+00 -0.66292678672E+02  0.36035711400E+03  0.37505675482E+03  0.80096193438E+02 0.  0.
          5    1    3    3  501    0  0.71205704019E+01 -0.43556768188E+01  0.13926716510E+03  0.13959623103E+03  0.47000000000E+01 0. -1.
        -13    1    4    4    0    0  0.19791519467E+02  0.32406985529E+02 -0.45817012415E+01  0.38247992629E+02  0.00000000000E+00 0.  1.
         14    1    4    4    0    0 -0.37577459229E+02 -0.24716503755E+02  0.11358558689E+01  0.44991790012E+02  0.00000000000E+00 0. -1.
         -5    1    5    5    0  502  0.10217846890E+02  0.62957873717E+02  0.27692955857E+03  0.28421852274E+03  0.47000000000E+01 0.  1.
         11    1    6    6    0    0 -0.33946890887E+01 -0.26170540044E+01 -0.35716763376E+01  0.55794047650E+01  0.00000000000E+00 0. -1.
        -12    1    6    6    0    0  0.38422115587E+01 -0.63675624668E+02  0.36392879034E+03  0.36947735005E+03  0.00000000000E+00 0.  1.
<mgrwt>
<rscale>  2 0.17467308E+03</rscale>
<asrwt>0</asrwt>
<pdfrwt beam="1">  1       21 0.12732455E+00 0.17665916E+03</pdfrwt>
<pdfrwt beam="2">  1       21 0.83848697E-02 0.17665916E+03</pdfrwt>
<totfact> 0.50789828E+04</totfact>
</mgrwt>
</event>
<event>
12    1  0.1074575E-001  0.1821492E+03  0.7546771E-02  0.1166055E+00
         21   -1    0    0  501  502  0.00000000000E+00  0.00000000000E+00  0.33029452644E+03  0.33029452644E+03  0.00000000000E+00 0.  1.
         21   -1    0    0  502  503 -0.00000000000E+00 -0.00000000000E+00 -0.10014704888E+03  0.10014704888E+03  0.00000000000E+00 0.  1.
         -6    2    1    2    0  503 -0.23888061898E+02  0.32968264130E+02  0.12863353390E+03  0.22191478032E+03  0.17618750733E+03 0.  0.
        -24    2    3    3    0    0  0.76446805339E+01  0.22560764224E+02  0.15721454983E+03  0.17785125378E+03  0.79669470765E+02 0.  0.
          6    2    1    2  501    0  0.23888061898E+02 -0.32968264130E+02  0.10151394367E+03  0.20852679499E+03  0.17754097423E+03 0.  0.
         24    2    5    5    0    0  0.82162271437E+02 -0.43966003225E+02  0.67574772477E+02  0.14003744470E+03  0.79752666137E+02 0.  0.
          5    1    5    5  501    0 -0.58274209539E+02  0.10997739095E+02  0.33939171188E+02  0.68489350293E+02  0.47000000000E+01 0. -1.
        -13    1    6    6    0    0  0.39862330864E+02  0.13052683602E+02  0.52950549592E+02  0.67551007936E+02  0.00000000000E+00 0.  1.
         14    1    6    6    0    0  0.42299940573E+02 -0.57018686827E+02  0.14624222885E+02  0.72486436765E+02  0.00000000000E+00 0. -1.
         -5    1    3    3    0  503 -0.31532742432E+02  0.10407499906E+02 -0.28581015928E+02  0.44063526539E+02  0.47000000000E+01 0.  1.
         11    1    4    4    0    0 -0.11893057624E+02  0.46736078377E+02  0.12021865402E+03  0.12953080952E+03  0.00000000000E+00 0. -1.
        -12    1    4    4    0    0  0.19537738158E+02 -0.24175314153E+02  0.36995895805E+02  0.48320444257E+02  0.00000000000E+00 0.  1.
<mgrwt>
<rscale>  2 0.18181859E+03</rscale>
<asrwt>0</asrwt>
<pdfrwt beam="1">  1       21 0.50814542E-01 0.18214923E+03</pdfrwt>
<pdfrwt beam="2">  1       21 0.15407238E-01 0.18214923E+03</pdfrwt>
<totfact> 0.13811710E+05</totfact>
</mgrwt>
</event>
<event>
12    1  0.1074575E-001  0.2072619E+03  0.7546771E-02  0.1143773E+00
         21   -1    0    0  503  502  0.00000000000E+00  0.00000000000E+00  0.98212669063E+02  0.98212669063E+02  0.00000000000E+00 0.  1.
         21   -1    0    0  501  503 -0.00000000000E+00 -0.00000000000E+00 -0.50688250594E+03  0.50688250594E+03  0.00000000000E+00 0.  1.
          6    2    1    2  501    0  0.74313404534E+02 -0.84893753244E+02 -0.92105591302E+02  0.22671649945E+03  0.17374550280E+03 0.  0.
         24    2    3    3    0    0  0.77415731253E+02 -0.11546703001E+03 -0.40927661978E+02  0.16683645158E+03  0.82664972004E+02 0.  0.
         -6    2    1    2    0  502 -0.74313404534E+02  0.84893753244E+02 -0.31656424558E+03  0.37837867555E+03  0.17386221298E+03 0.  0.
        -24    2    5    5    0    0 -0.13780511985E+02  0.85078212195E+02 -0.10372716563E+03  0.15705091474E+03  0.80482670371E+02 0.  0.
          5    1    3    3  501    0 -0.31023267190E+01  0.30573276766E+02 -0.51177929324E+02  0.59880047872E+02  0.47000000000E+01 0. -1.
        -11    1    4    4    0    0  0.39011017657E+02 -0.99205107662E+02 -0.58480597149E+02  0.12158738885E+03  0.00000000000E+00 0.  1.
         12    1    4    4    0    0  0.38404713596E+02 -0.16261922348E+02  0.17552935171E+02  0.45249062730E+02  0.00000000000E+00 0. -1.
         -5    1    5    5    0  502 -0.60532892549E+02 -0.18445895149E+00 -0.21283707995E+03  0.22132776081E+03  0.47000000000E+01 0.  1.
         13    1    6    6    0    0 -0.31193384346E+02  0.22492516103E+00 -0.30453964886E+02  0.43594974430E+02  0.00000000000E+00 0. -1.
        -14    1    6    6    0    0  0.17412872360E+02  0.84853287034E+02 -0.73273200744E+02  0.11345594031E+03  0.00000000000E+00 0.  1.
<mgrwt>
<rscale>  2 0.20723744E+03</rscale>
<asrwt>0</asrwt>
<pdfrwt beam="1">  1       21 0.15109641E-01 0.20726191E+03</pdfrwt>
<pdfrwt beam="2">  1       21 0.77981924E-01 0.20726191E+03</pdfrwt>
<totfact> 0.56002485E+04</totfact>
</mgrwt>
</event>
<event>
12    1  0.1074575E-001  0.1747265E+03  0.7546771E-02  0.1173470E+00
         21   -1    0    0  503  502  0.00000000000E+00  0.00000000000E+00  0.98004347003E+03  0.98004347003E+03  0.00000000000E+00 0.  1.
         21   -1    0    0  501  503 -0.00000000000E+00 -0.00000000000E+00 -0.11112933479E+03  0.11112933479E+03  0.00000000000E+00 0.  1.
          6    2    1    2  501    0  0.40266431335E+01  0.60210419897E+01 -0.28692230705E+02  0.17706664940E+03  0.17457630832E+03 0.  0.
         24    2    3    3    0    0 -0.61355023239E+02 -0.21191322759E+02 -0.78929306089E+01  0.10310736346E+03  0.79720254693E+02 0.  0.
         -6    2    1    2    0  502 -0.40266431335E+01 -0.60210419897E+01  0.89760636595E+03  0.91410615542E+03  0.17274376509E+03 0.  0.
        -24    2    5    5    0    0 -0.50576012154E+02 -0.42508122495E+02  0.58782431007E+03  0.59869346869E+03  0.92366533259E+02 0.  0.
          5    1    3    3  501    0  0.65381666372E+02  0.27212364749E+02 -0.20799300097E+02  0.73959285944E+02  0.47000000000E+01 0. -1.
        -11    1    4    4    0    0 -0.63539640520E+02  0.15776755022E+02 -0.12325405233E+01  0.65480616007E+02  0.00000000000E+00 0.  1.
         12    1    4    4    0    0  0.21846172819E+01 -0.36968077781E+02 -0.66603900856E+01  0.37626747449E+02  0.00000000000E+00 0. -1.
         -5    1    5    5    0  502  0.46549369020E+02  0.36487080505E+02  0.30978205588E+03  0.31541268672E+03  0.47000000000E+01 0.  1.
         13    1    6    6    0    0  0.27235473265E+02 -0.14478277983E+02  0.15586416742E+03  0.15888684723E+03  0.00000000000E+00 0. -1.
        -14    1    6    6    0    0 -0.77811485419E+02 -0.28029844512E+02  0.43196014265E+03  0.43980662147E+03  0.00000000000E+00 0.  1.
<mgrwt>
<rscale>  2 0.17426697E+03</rscale>
<asrwt>0</asrwt>
<pdfrwt beam="1">  1       21 0.15077591E+00 0.17472651E+03</pdfrwt>
<pdfrwt beam="2">  1       21 0.17096821E-01 0.17472651E+03</pdfrwt>
<totfact> 0.92330214E+03</totfact>
</mgrwt>
</event>
<event>
12    1  0.1074575E-001  0.2256744E+03  0.7546771E-02  0.1129767E+00
         21   -1    0    0  503  502  0.00000000000E+00  0.00000000000E+00  0.17307452932E+03  0.17307452932E+03  0.00000000000E+00 0.  1.
         21   -1    0    0  501  503 -0.00000000000E+00 -0.00000000000E+00 -0.39214179056E+03  0.39214179056E+03  0.00000000000E+00 0.  1.
          6    2    1    2  501    0  0.12052069678E+03  0.80488530108E+02  0.31941553140E+02  0.22767469339E+03  0.17266111711E+03 0.  0.
         24    2    3    3    0    0  0.88250660691E+02  0.87675217383E+02  0.84230817696E+02  0.16563228136E+03  0.69743093723E+02 0.  0.
         -6    2    1    2    0  502 -0.12052069678E+03 -0.80488530108E+02 -0.25100881438E+03  0.33754162649E+03  0.17298925656E+03 0.  0.
        -24    2    5    5    0    0 -0.79612099766E+02 -0.42653479763E+02 -0.51846190766E+02  0.13067731108E+03  0.78937483931E+02 0.  0.
          5    1    3    3  501    0  0.32270036088E+02 -0.71866872753E+01 -0.52289264556E+02  0.62042412034E+02  0.47000000000E+01 0. -1.
        -13    1    4    4    0    0  0.17954037613E+02 -0.10501800129E+02  0.56087542302E+01  0.21542827033E+02  0.00000000000E+00 0.  1.
         14    1    4    4    0    0  0.70296623077E+02  0.98177017512E+02  0.78622063466E+02  0.14408945432E+03  0.00000000000E+00 0. -1.
         -5    1    5    5    0  502 -0.40908597013E+02 -0.37835050345E+02 -0.19916262362E+03  0.20686431541E+03  0.47000000000E+01 0.  1.
         13    1    6    6    0    0 -0.37120129587E+02 -0.62080579811E+02 -0.39212007879E+02  0.82276873859E+02  0.00000000000E+00 0. -1.
        -14    1    6    6    0    0 -0.42491970179E+02  0.19427100048E+02 -0.12634182887E+02  0.48400437221E+02  0.00000000000E+00 0.  1.
<mgrwt>
<rscale>  2 0.22561149E+03</rscale>
<asrwt>0</asrwt>
<pdfrwt beam="1">  1       21 0.26626851E-01 0.22567438E+03</pdfrwt>
<pdfrwt beam="2">  1       21 0.60329506E-01 0.22567438E+03</pdfrwt>
<totfact> 0.33795905E+04</totfact>
</mgrwt>
</event>
<event>
12    1  0.1074575E-001  0.3276294E+03  0.7546771E-02  0.1072214E+00
         21   -1    0    0  503  502  0.00000000000E+00  0.00000000000E+00  0.34445084037E+03  0.34445084037E+03  0.00000000000E+00 0.  1.
         21   -1    0    0  501  503 -0.00000000000E+00 -0.00000000000E+00 -0.32108857283E+03  0.32108857283E+03  0.00000000000E+00 0. -1.
          6    2    1    2  501    0  0.24793902349E+03 -0.12677931176E+03  0.69380088454E+02  0.33469405293E+03  0.17222008922E+03 0.  0.
         24    2    3    3    0    0  0.13759975284E+03 -0.33357334687E+02 -0.22873560404E+02  0.16312702178E+03  0.77722723266E+02 0.  0.
         -6    2    1    2    0  502 -0.24793902349E+03  0.12677931176E+03 -0.46017820921E+02  0.33084536027E+03  0.17261013674E+03 0.  0.
        -24    2    5    5    0    0 -0.25205305176E+03  0.85835968241E+02 -0.63963381443E+02  0.28570761830E+03  0.81479903319E+02 0.  0.
          5    1    3    3  501    0  0.11033927066E+03 -0.93421977074E+02  0.92253648858E+02  0.17156703115E+03  0.47000000000E+01 0. -1.
        -13    1    4    4    0    0  0.12284695820E+03 -0.46702880273E+02  0.17940817019E+01  0.13143725839E+03  0.00000000000E+00 0.  1.
         14    1    4    4    0    0  0.14752794636E+02  0.13345545585E+02 -0.24667642106E+02  0.31689763389E+02  0.00000000000E+00 0. -1.
         -5    1    5    5    0  502  0.41140282645E+01  0.40943343520E+02  0.17945560523E+02  0.45137741964E+02  0.47000000000E+01 0.  1.
         13    1    6    6    0    0 -0.12424047619E+02  0.16258153729E+02 -0.26351650923E+02  0.33363063832E+02  0.00000000000E+00 0. -1.
        -14    1    6    6    0    0 -0.23962900414E+03  0.69577814512E+02 -0.37611730521E+02  0.25234455447E+03  0.00000000000E+00 0.  1.
<mgrwt>
<rscale>  2 0.32757804E+03</rscale>
<asrwt>0</asrwt>
<pdfrwt beam="1">  1       21 0.52992437E-01 0.32762938E+03</pdfrwt>
<pdfrwt beam="2">  1       21 0.49398242E-01 0.32762938E+03</pdfrwt>
<totfact> 0.12299279E+04</totfact>
</mgrwt>
</event>
<event>
12    1  0.1074575E-001  0.2432285E+03  0.7546771E-02  0.1117818E+00
         21   -1    0    0  501  502  0.00000000000E+00  0.00000000000E+00  0.67854780465E+03  0.67854780465E+03  0.00000000000E+00 0.  1.
         21   -1    0    0  502  503 -0.00000000000E+00 -0.00000000000E+00 -0.18749923394E+03  0.18749923394E+03  0.00000000000E+00 0.  1.
         -6    2    1    2    0  503  0.35458743597E+02  0.16747734689E+03 -0.71972845309E+02  0.25273371610E+03  0.17143003404E+03 0.  0.
        -24    2    3    3    0    0  0.39151709516E+02  0.18244234873E+02 -0.37576095715E+02  0.99471241553E+02  0.81344062247E+02 0.  0.
          6    2    1    2  501    0 -0.35458743597E+02 -0.16747734689E+03  0.56302141602E+03  0.61331332249E+03  0.17278348426E+03 0.  0.
         24    2    5    5    0    0  0.24273371916E+02 -0.27889699136E+02  0.16263709518E+03  0.18508168961E+03  0.80233254939E+02 0.  0.
          5    1    5    5  501    0 -0.59732115513E+02 -0.13958764776E+03  0.40038432083E+03  0.42823163288E+03  0.47000000000E+01 0. -1.
        -13    1    6    6    0    0 -0.27134981198E+02 -0.15112592092E+02  0.34470458016E+02  0.46399462499E+02  0.00000000000E+00 0.  1.
         14    1    6    6    0    0  0.51408353114E+02 -0.12777107044E+02  0.12816663717E+03  0.13868222711E+03  0.00000000000E+00 0. -1.
         -5    1    3    3    0  503 -0.36929659183E+01  0.14923311202E+03 -0.34396749594E+02  0.15326247454E+03  0.47000000000E+01 0.  1.
         13    1    4    4    0    0 -0.16446957331E+02 -0.16141448363E+02 -0.22866219258E+02  0.32464022299E+02  0.00000000000E+00 0. -1.
        -14    1    4    4    0    0  0.55598666847E+02  0.34385683236E+02 -0.14709876457E+02  0.67007219254E+02  0.00000000000E+00 0.  1.
<mgrwt>
<rscale>  2 0.24298828E+03</rscale>
<asrwt>0</asrwt>
<pdfrwt beam="1">  1       21 0.10439197E+00 0.24322853E+03</pdfrwt>
<pdfrwt beam="2">  1       21 0.28846036E-01 0.24322853E+03</pdfrwt>
<totfact> 0.82358056E+03</totfact>
</mgrwt>
</event>
<event>
12    1  0.1074575E-001  0.2415057E+03  0.7546771E-02  0.1118868E+00
         21   -1    0    0  501  502  0.00000000000E+00  0.00000000000E+00  0.39940488586E+03  0.39940488586E+03  0.00000000000E+00 0. -1.
         21   -1    0    0  502  503 -0.00000000000E+00 -0.00000000000E+00 -0.18950488609E+03  0.18950488609E+03  0.00000000000E+00 0.  1.
         -6    2    1    2    0  503  0.60782099637E+02 -0.15645303826E+03 -0.36447934642E+02  0.24424052507E+03  0.17364609218E+03 0.  0.
        -24    2    3    3    0    0 -0.30696963878E+01 -0.14866528617E+03  0.26200101053E+01  0.16883432344E+03  0.79921048352E+02 0.  0.
          6    2    1    2  501    0 -0.60782099637E+02  0.15645303826E+03  0.24634793441E+03  0.34466924687E+03  0.17302476162E+03 0.  0.
         24    2    5    5    0    0 -0.45724943753E+02  0.46080447249E+02  0.42442892041E+02  0.11227263955E+03  0.81176156641E+02 0.  0.
          5    1    5    5  501    0 -0.15057155884E+02  0.11037259101E+03  0.20390504237E+03  0.23239660732E+03  0.47000000000E+01 0. -1.
        -11    1    6    6    0    0 -0.17938681482E+02  0.66691240512E+02  0.32147291896E+02  0.76177202827E+02  0.00000000000E+00 0.  1.
         12    1    6    6    0    0 -0.27786262271E+02 -0.20610793263E+02  0.10295600144E+02  0.36095436723E+02  0.00000000000E+00 0. -1.
         -5    1    3    3    0  503  0.63851796024E+02 -0.77877520951E+01 -0.39067944747E+02  0.75406201635E+02  0.47000000000E+01 0.  1.
         11    1    4    4    0    0  0.32801188133E+02 -0.11360990884E+03  0.72040471321E+01  0.11846952192E+03  0.00000000000E+00 0. -1.
        -12    1    4    4    0    0 -0.35870884521E+02 -0.35055377327E+02 -0.45840370269E+01  0.50364801511E+02  0.00000000000E+00 0.  1.
<mgrwt>
<rscale>  2 0.24139399E+03</rscale>
<asrwt>0</asrwt>
<pdfrwt beam="1">  1       21 0.61446905E-01 0.24150566E+03</pdfrwt>
<pdfrwt beam="2">  1       21 0.29154598E-01 0.24150566E+03</pdfrwt>
<totfact> 0.27032500E+04</totfact>
</mgrwt>
</event>
<event>
12    1  0.1074575E-001  0.1762013E+03  0.7546771E-02  0.1171780E+00
         21   -1    0    0  501  502  0.00000000000E+00  0.00000000000E+00  0.20719963987E+03  0.20719963987E+03  0.00000000000E+00 0.  1.
         21   -1    0    0  502  503 -0.00000000000E+00 -0.00000000000E+00 -0.18647177064E+03  0.18647177064E+03  0.00000000000E+00 0.  1.
         -6    2    1    2    0  503 -0.32786044290E+02 -0.58750178390E+01 -0.77905810795E+02  0.19174200628E+03  0.17200651465E+03 0.  0.
        -24    2    3    3    0    0  0.11624552700E+02 -0.61816600842E+02 -0.67998185080E+02  0.11947851009E+03  0.75464818523E+02 0.  0.
          6    2    1    2  501    0  0.32786044290E+02  0.58750178390E+01  0.98633680023E+02  0.20192940423E+03  0.17302439402E+03 0.  0.
         24    2    5    5    0    0  0.31679877921E+02  0.53576708762E+01  0.13760473640E+03  0.16265696496E+03  0.80559949521E+02 0.  0.
          5    1    5    5  501    0  0.11061663694E+01  0.51734696284E+00 -0.38971056375E+02  0.39272439279E+02  0.47000000000E+01 0. -1.
        -13    1    6    6    0    0  0.28365914161E+02 -0.25100461998E+02  0.23646747383E+02  0.44652289309E+02  0.00000000000E+00 0.  1.
         14    1    6    6    0    0  0.33139637595E+01  0.30458132875E+02  0.11395798901E+03  0.11800467565E+03  0.00000000000E+00 0. -1.
         -5    1    3    3    0  503 -0.44410596990E+02  0.55941583003E+02 -0.99076257154E+01  0.72263496187E+02  0.47000000000E+01 0.  1.
         13    1    4    4    0    0  0.14979974188E+02 -0.41327315861E+02 -0.82960217210E+02  0.93886869703E+02  0.00000000000E+00 0. -1.
        -14    1    4    4    0    0 -0.33554214883E+01 -0.20489284981E+02  0.14962032131E+02  0.25591640391E+02  0.00000000000E+00 0.  1.
<mgrwt>
<rscale>  2 0.17595086E+03</rscale>
<asrwt>0</asrwt>
<pdfrwt beam="1">  1       21 0.31876867E-01 0.17620125E+03</pdfrwt>
<pdfrwt beam="2">  1       21 0.28687965E-01 0.17620125E+03</pdfrwt>
<totfact> 0.11066716E+05</totfact>
</mgrwt>
</event>
<event>
12    1  0.1074575E-001  0.1820195E+03  0.7546771E-02  0.1166002E+00
         21   -1    0    0  501  502  0.00000000000E+00  0.00000000000E+00  0.77308874844E+03  0.77308874844E+03  0.00000000000E+00 0.  1.
         21   -1    0    0  502  503 -0.00000000000E+00 -0.00000000000E+00 -0.43091675733E+02  0.43091675733E+02  0.00000000000E+00 0.  1.
         -6    2    1    2    0  503 -0.56236588858E+02 -0.10952976520E+02  0.40355743849E+03  0.44270724071E+03  0.17276739621E+03 0.  0.
        -24    2    3    3    0    0 -0.15206283149E+02 -0.61150720471E+02  0.32551415568E+03  0.34113882299E+03  0.80284427795E+02 0.  0.
          6    2    1    2  501    0  0.56236588858E+02  0.10952976520E+02  0.32643963422E+03  0.37347318347E+03  0.17215360107E+03 0.  0.
         24    2    5    5    0    0  0.73109666507E+02  0.62225882471E+02  0.24875558529E+03  0.27876039082E+03  0.81307628722E+02 0.  0.
          5    1    5    5  501    0 -0.16873077649E+02 -0.51272905951E+02  0.77684048926E+02  0.94712792650E+02  0.47000000000E+01 0.  1.
        -13    1    6    6    0    0  0.27848744092E+02  0.70082420855E+02  0.11673035279E+03  0.13897148457E+03  0.00000000000E+00 0.  1.
         14    1    6    6    0    0  0.45260922416E+02 -0.78565383845E+01  0.13202523250E+03  0.13978890625E+03  0.00000000000E+00 0. -1.
         -5    1    3    3    0  503 -0.41030305709E+02  0.50197743951E+02  0.78043282816E+02  0.10156841771E+03  0.47000000000E+01 0.  1.
         13    1    4    4    0    0 -0.25278583690E+02 -0.10077725086E+02  0.23619040746E+03  0.23775297245E+03  0.00000000000E+00 0. -1.
        -14    1    4    4    0    0  0.10072300541E+02 -0.51072995385E+02  0.89323748221E+02  0.10338585054E+03  0.00000000000E+00 0.  1.
<mgrwt>
<rscale>  2 0.18187369E+03</rscale>
<asrwt>0</asrwt>
<pdfrwt beam="1">  1       21 0.11893672E+00 0.18201949E+03</pdfrwt>
<pdfrwt beam="2">  1       21 0.66294892E-02 0.18201949E+03</pdfrwt>
<totfact> 0.90117892E+04</totfact>
</mgrwt>
</event>
<event>
12    1  0.1074575E-001  0.3603033E+03  0.7546771E-02  0.1058699E+00
         21   -1    0    0  503  502  0.00000000000E+00  0.00000000000E+00  0.21303651890E+04  0.21303651890E+04  0.00000000000E+00 0. -1.
         21   -1    0    0  501  503 -0.00000000000E+00 -0.00000000000E+00 -0.70412243511E+02  0.70412243511E+02  0.00000000000E+00 0.  1.
          6    2    1    2  501    0 -0.26305752125E+03 -0.17535984370E+03  0.61496312902E+03  0.71154472240E+03  0.16782701704E+03 0.  0.
         24    2    3    3    0    0 -0.14509035978E+03 -0.92506968713E+02  0.47042855543E+03  0.50735563591E+03  0.80609948279E+02 0.  0.
         -6    2    1    2    0  502  0.26305752125E+03  0.17535984370E+03  0.14449898164E+04  0.14892327101E+04  0.17282407499E+03 0.  0.
        -24    2    5    5    0    0  0.20846877196E+03  0.10835484116E+03  0.12693775248E+04  0.12934487248E+04  0.80562415239E+02 0.  0.
          5    1    3    3  501    0 -0.11796716147E+03 -0.82852874992E+02  0.14453457359E+03  0.20418908649E+03  0.47000000000E+01 0. -1.
        -11    1    4    4    0    0 -0.12400162802E+03 -0.44269814069E+02  0.27398827128E+03  0.30398321169E+03  0.00000000000E+00 0.  1.
         12    1    4    4    0    0 -0.21088731757E+02 -0.48237154644E+02  0.19644028415E+03  0.20337242422E+03  0.00000000000E+00 0. -1.
         -5    1    5    5    0  502  0.54588749288E+02  0.67005002544E+02  0.17561229160E+03  0.19578398524E+03  0.47000000000E+01 0. -1.
         13    1    6    6    0    0  0.96005364957E+02  0.34006703501E+02  0.74889985679E+03  0.75579394115E+03  0.00000000000E+00 0. -1.
        -14    1    6    6    0    0  0.11246340700E+03  0.74348137659E+02  0.52047766804E+03  0.53765478368E+03  0.00000000000E+00 0.  1.
<mgrwt>
<rscale>  2 0.35970936E+03</rscale>
<asrwt>0</asrwt>
<pdfrwt beam="1">  1       21 0.32774844E+00 0.36030334E+03</pdfrwt>
<pdfrwt beam="2">  1       21 0.10832654E-01 0.36030334E+03</pdfrwt>
<totfact> 0.14132311E+03</totfact>
</mgrwt>
</event>
<event>
12    1  0.1074575E-001  0.2625945E+03  0.7546771E-02  0.1105631E+00
         21   -1    0    0  503  502  0.00000000000E+00  0.00000000000E+00  0.31675689605E+03  0.31675689605E+03  0.00000000000E+00 0. -1.
         21   -1    0    0  501  503 -0.00000000000E+00 -0.00000000000E+00 -0.37171780979E+03  0.37171780979E+03  0.00000000000E+00 0. -1.
          6    2    1    2  501    0 -0.18539287862E+03  0.68290548084E+02 -0.24922354328E+03  0.36203350840E+03  0.17297909781E+03 0.  0.
         24    2    3    3    0    0 -0.12312331308E+03  0.10781147890E+03 -0.13949765969E+03  0.22974117191E+03  0.80862499370E+02 0.  0.
         -6    2    1    2    0  502  0.18539287862E+03 -0.68290548084E+02  0.19426262955E+03  0.32644119744E+03  0.17260291929E+03 0.  0.
        -24    2    5    5    0    0  0.90792151012E+02 -0.86167166968E+02  0.55681990394E+02  0.15763493359E+03  0.77976232831E+02 0.  0.
          5    1    3    3  501    0 -0.62269565541E+02 -0.39520930820E+02 -0.10972588359E+03  0.13229233649E+03  0.47000000000E+01 0. -1.
        -11    1    4    4    0    0 -0.37257985244E+02  0.45919020778E+02 -0.10114096647E+03  0.11715890505E+03  0.00000000000E+00 0.  1.
         12    1    4    4    0    0 -0.85865327834E+02  0.61892458126E+02 -0.38356693224E+02  0.11258226686E+03  0.00000000000E+00 0. -1.
         -5    1    5    5    0  502  0.94600727607E+02  0.17876618884E+02  0.13858063915E+03  0.16880626385E+03  0.47000000000E+01 0.  1.
         13    1    6    6    0    0  0.11878285375E+02  0.14336685230E+02  0.13760462494E+02  0.23151339808E+02  0.00000000000E+00 0. -1.
        -14    1    6    6    0    0  0.78913865637E+02 -0.10050385220E+03  0.41921527901E+02  0.13448359379E+03  0.00000000000E+00 0.  1.
<mgrwt>
<rscale>  2 0.26253260E+03</rscale>
<asrwt>0</asrwt>
<pdfrwt beam="1">  1       21 0.48731831E-01 0.26259453E+03</pdfrwt>
<pdfrwt beam="2">  1       21 0.57187355E-01 0.26259453E+03</pdfrwt>
<totfact> 0.11071942E+04</totfact>
</mgrwt>
</event>
<event>
12    1  0.1074575E-001  0.1842425E+03  0.7546771E-02  0.1163763E+00
         21   -1    0    0  503  502  0.00000000000E+00  0.00000000000E+00  0.16643700069E+03  0.16643700069E+03  0.00000000000E+00 0.  1.
         21   -1    0    0  501  503 -0.00000000000E+00 -0.00000000000E+00 -0.23227966726E+03  0.23227966726E+03  0.00000000000E+00 0.  1.
          6    2    1    2  501    0  0.27309000848E+02 -0.56572474655E+02  0.36717679367E+02  0.18786562550E+03  0.17320242160E+03 0.  0.
         24    2    3    3    0    0  0.79110553246E+02 -0.52312022439E+02  0.50175850520E+02  0.13396975687E+03  0.80220025275E+02 0.  0.
         -6    2    1    2    0  502 -0.27309000848E+02  0.56572474655E+02 -0.10256034593E+03  0.21085104245E+03  0.17318577057E+03 0.  0.
        -24    2    5    5    0    0 -0.22324201990E+02 -0.30470484251E+02 -0.20543337352E+02  0.91058702915E+02  0.80267292604E+02 0.  0.
          5    1    3    3  501    0 -0.51801552398E+02 -0.42604522156E+01 -0.13458171153E+02  0.53895868623E+02  0.47000000000E+01 0. -1.
        -11    1    4    4    0    0  0.43666259947E+02 -0.29808608996E+02  0.69850753254E+02  0.87603785067E+02  0.00000000000E+00 0.  1.
         12    1    4    4    0    0  0.35444293299E+02 -0.22503413443E+02 -0.19674902734E+02  0.46365971807E+02  0.00000000000E+00 0. -1.
         -5    1    5    5    0  502 -0.49847988583E+01  0.87042958906E+02 -0.82017008582E+02  0.11979233954E+03  0.47000000000E+01 0.  1.
         11    1    6    6    0    0  0.20782803958E+02  0.13580966463E+02  0.31535499751E+01  0.25026235592E+02  0.00000000000E+00 0. -1.
        -12    1    6    6    0    0 -0.43107005948E+02 -0.44051450715E+02 -0.23696887327E+02  0.66032467323E+02  0.00000000000E+00 0.  1.
<mgrwt>
<rscale>  2 0.18423860E+03</rscale>
<asrwt>0</asrwt>
<pdfrwt beam="1">  1       21 0.25605692E-01 0.18424252E+03</pdfrwt>
<pdfrwt beam="2">  1       21 0.35735334E-01 0.18424252E+03</pdfrwt>
<totfact> 0.10958790E+05</totfact>
</mgrwt>
</event>
<event>
12    1  0.1074575E-001  0.1886012E+03  0.7546771E-02  0.1160526E+00
         21   -1    0    0  503  502  0.00000000000E+00  0.00000000000E+00  0.16737902410E+03  0.16737902410E+03  0.00000000000E+00 0.  1.
         21   -1    0    0  501  503 -0.00000000000E+00 -0.00000000000E+00 -0.31237353181E+03  0.31237353181E+03  0.00000000000E+00 0.  1.
          6    2    1    2  501    0 -0.63807081240E+02  0.15586391075E+02 -0.21028569603E+03  0.28016959682E+03  0.17309144932E+03 0.  0.
         24    2    3    3    0    0 -0.24999064930E+02 -0.39464143058E+02 -0.18094832492E+03  0.20655305805E+03  0.87974414810E+02 0.  0.
         -6    2    1    2    0  502  0.63807081240E+02 -0.15586391075E+02  0.65291188325E+02  0.19958295908E+03  0.17679405839E+03 0.  0.
        -24    2    5    5    0    0  0.28815232430E+02  0.25200552416E+02  0.10120338320E+03  0.13477724959E+03  0.80357929123E+02 0.  0.
          5    1    3    3  501    0 -0.38808016310E+02  0.55050534133E+02 -0.29337371105E+02  0.73616538778E+02  0.47000000000E+01 0. -1.
        -13    1    4    4    0    0 -0.58052968475E+02 -0.21051647850E+02 -0.11421495964E+03  0.12983980911E+03  0.00000000000E+00 0.  1.
         14    1    4    4    0    0  0.33053903545E+02 -0.18412495208E+02 -0.66733365286E+02  0.76713248932E+02  0.00000000000E+00 0. -1.
         -5    1    5    5    0  502  0.34991848811E+02 -0.40786943490E+02 -0.35912194877E+02  0.64805709496E+02  0.47000000000E+01 0.  1.
         13    1    6    6    0    0  0.13964205823E+02 -0.61596538675E+01 -0.10026184808E+02  0.18261017547E+02  0.00000000000E+00 0. -1.
        -14    1    6    6    0    0  0.14851026607E+02  0.31360206283E+02  0.11122956801E+03  0.11651623204E+03  0.00000000000E+00 0.  1.
<mgrwt>
<rscale>  2 0.18772860E+03</rscale>
<asrwt>0</asrwt>
<pdfrwt beam="1">  1       21 0.25750620E-01 0.18860121E+03</pdfrwt>
<pdfrwt beam="2">  1       21 0.48057465E-01 0.18860121E+03</pdfrwt>
<totfact> 0.59332875E+04</totfact>
</mgrwt>
</event>
<event>
12    1  0.1074575E-001  0.1937500E+03  0.7546771E-02  0.1155245E+00
         21   -1    0    0  503  502  0.00000000000E+00  0.00000000000E+00  0.17068758076E+03  0.17068758076E+03  0.00000000000E+00 0.  1.
         21   -1    0    0  501  503 -0.00000000000E+00 -0.00000000000E+00 -0.64362659940E+03  0.64362659940E+03  0.00000000000E+00 0.  1.
          6    2    1    2  501    0 -0.66418390314E+02  0.48232122366E+02 -0.56718185074E+03  0.59936158080E+03  0.17550302713E+03 0.  0.
         24    2    3    3    0    0 -0.42207898141E+02 -0.33049218156E+02 -0.19645987299E+03  0.21903319764E+03  0.80655455419E+02 0.  0.
         -6    2    1    2    0  502  0.66418390314E+02 -0.48232122366E+02  0.94242832095E+02  0.21495259935E+03  0.17488615831E+03 0.  0.
        -24    2    5    5    0    0  0.97907027504E+02 -0.61237693901E+02  0.10805696576E+03  0.17789049672E+03  0.81442493719E+02 0.  0.
          5    1    3    3  501    0 -0.24210492173E+02  0.81281340522E+02 -0.37072197775E+03  0.38032838316E+03  0.47000000000E+01 0. -1.
        -13    1    4    4    0    0 -0.13154095676E+02  0.23073763105E+02 -0.10185911628E+03  0.10526494358E+03  0.00000000000E+00 0.  1.
         14    1    4    4    0    0 -0.29053802465E+02 -0.56122981261E+02 -0.94600756702E+02  0.11376825406E+03  0.00000000000E+00 0. -1.
         -5    1    5    5    0  502 -0.31488637189E+02  0.13005571535E+02 -0.13814133667E+02  0.37062102638E+02  0.47000000000E+01 0.  1.
         11    1    6    6    0    0  0.72905661997E+01 -0.20073960924E+01 -0.13278635861E+02  0.15280843069E+02  0.00000000000E+00 0. -1.
        -12    1    6    6    0    0  0.90616461304E+02 -0.59230297809E+02  0.12133560162E+03  0.16260965365E+03  0.00000000000E+00 0.  1.
<mgrwt>
<rscale>  2 0.19361017E+03</rscale>
<asrwt>0</asrwt>
<pdfrwt beam="1">  1       21 0.26259628E-01 0.19374997E+03</pdfrwt>
<pdfrwt beam="2">  1       21 0.99019475E-01 0.19374997E+03</pdfrwt>
<totfact> 0.11577219E+04</totfact>
</mgrwt>
</event>
<event>
12    1  0.1074575E-001  0.1775390E+03  0.7546771E-02  0.1171248E+00
         21   -1    0    0  503  502  0.00000000000E+00  0.00000000000E+00  0.45560108809E+03  0.45560108809E+03  0.00000000000E+00 0.  1.
         21   -1    0    0  501  503 -0.00000000000E+00 -0.00000000000E+00 -0.98471546696E+02  0.98471546696E+02  0.00000000000E+00 0.  1.
          6    2    1    2  501    0  0.38416880428E+02  0.13490383115E+02  0.21912970448E+02  0.17474394373E+03  0.16851534191E+03 0.  0.
         24    2    3    3    0    0  0.25241023577E+02  0.55599669087E+02 -0.31077664294E+02  0.10562887635E+03  0.80394065866E+02 0.  0.
         -6    2    1    2    0  502 -0.38416880428E+02 -0.13490383115E+02  0.33521657095E+03  0.37932869106E+03  0.17280700010E+03 0.  0.
        -24    2    5    5    0    0 -0.52370003617E+02  0.31662252343E+02  0.30770399549E+03  0.32444260955E+03  0.82680968453E+02 0.  0.
          5    1    3    3  501    0  0.13175856850E+02 -0.42109285973E+02  0.52990634742E+02  0.69115067382E+02  0.47000000000E+01 0. -1.
        -11    1    4    4    0    0  0.25393081787E+02  0.26584614361E+02  0.23630138962E+02  0.43702789279E+02  0.00000000000E+00 0.  1.
         12    1    4    4    0    0 -0.15205821016E+00  0.29015054726E+02 -0.54707803256E+02  0.61926087068E+02  0.00000000000E+00 0. -1.
         -5    1    5    5    0  502  0.13953123189E+02 -0.45152635458E+02  0.27512575454E+02  0.54886081511E+02  0.47000000000E+01 0.  1.
         11    1    6    6    0    0 -0.27139036451E+02  0.43563169612E+02  0.80084274091E+02  0.95119756112E+02  0.00000000000E+00 0. -1.
        -12    1    6    6    0    0 -0.25230967166E+02 -0.11900917269E+02  0.22761972140E+03  0.22932285343E+03  0.00000000000E+00 0.  1.
<mgrwt>
<rscale>  2 0.17648608E+03</rscale>
<asrwt>0</asrwt>
<pdfrwt beam="1">  1       21 0.70092474E-01 0.17753903E+03</pdfrwt>
<pdfrwt beam="2">  1       21 0.15149469E-01 0.17753903E+03</pdfrwt>
<totfact> 0.71645748E+04</totfact>
</mgrwt>
</event>
<event>
12    1  0.1074575E-001  0.1778736E+03  0.7546771E-02  0.1170305E+00
         21   -1    0    0  501  502  0.00000000000E+00  0.00000000000E+00  0.37873761876E+03  0.37873761876E+03  0.00000000000E+00 0.  1.
         21   -1    0    0  502  503 -0.00000000000E+00 -0.00000000000E+00 -0.11921358665E+03  0.11921358665E+03  0.00000000000E+00 0.  1.
         -6    2    1    2    0  503 -0.91495817843E+01  0.40536539299E+02 -0.75362739269E+01  0.17803319812E+03  0.17295114439E+03 0.  0.
        -24    2    3    3    0    0  0.55568783487E+01  0.57503234046E+02  0.53979163006E+02  0.11237965533E+03  0.79861981386E+02 0.  0.
          6    2    1    2  501    0  0.91495817843E+01 -0.40536539299E+02  0.26706030603E+03  0.31991800729E+03  0.17117067057E+03 0.  0.
         24    2    5    5    0    0  0.30625910769E+02 -0.81547525121E+01  0.26732151315E+03  0.28077760551E+03  0.79817454024E+02 0.  0.
          5    1    5    5  501    0 -0.21476328984E+02 -0.32381786787E+02 -0.26120711284E+00  0.39140401778E+02  0.47000000000E+01 0. -1.
        -11    1    6    6    0    0 -0.25896840305E+02 -0.32761528434E+01  0.12228435155E+03  0.12503936240E+03  0.00000000000E+00 0.  1.
         12    1    6    6    0    0  0.56522751074E+02 -0.48785996687E+01  0.14503716160E+03  0.15573824311E+03  0.00000000000E+00 0. -1.
         -5    1    3    3    0  503 -0.14706460133E+02 -0.16966694747E+02 -0.61515436933E+02  0.65653542793E+02  0.47000000000E+01 0.  1.
         13    1    4    4    0    0 -0.94646520624E+01  0.69739396337E+02  0.19832943669E+02  0.73119824225E+02  0.00000000000E+00 0. -1.
        -14    1    4    4    0    0  0.15021530411E+02 -0.12236162291E+02  0.34146219337E+02  0.39259831107E+02  0.00000000000E+00 0.  1.
<mgrwt>
<rscale>  2 0.17743935E+03</rscale>
<asrwt>0</asrwt>
<pdfrwt beam="1">  1       21 0.58267326E-01 0.17787362E+03</pdfrwt>
<pdfrwt beam="2">  1       21 0.18340552E-01 0.17787362E+03</pdfrwt>
<totfact> 0.75289064E+04</totfact>
</mgrwt>
</event>
<event>
12    1  0.1074575E-001  0.1892837E+03  0.7546771E-02  0.1159289E+00
         21   -1    0    0  501  502  0.00000000000E+00  0.00000000000E+00  0.48444024523E+03  0.48444024523E+03  0.00000000000E+00 0.  1.
         21   -1    0    0  502  503 -0.00000000000E+00 -0.00000000000E+00 -0.73650278575E+02  0.73650278575E+02  0.00000000000E+00 0. -1.
         -6    2    1    2    0  503 -0.34942160780E+02  0.66933387717E+02  0.20433720033E+03  0.27853549763E+03  0.17357217235E+03 0.  0.
        -24    2    3    3    0    0 -0.73066397633E+02 -0.21403036400E+01  0.12707105431E+03  0.16800595591E+03  0.82071121691E+02 0.  0.
          6    2    1    2  501    0  0.34942160780E+02 -0.66933387717E+02  0.20645276633E+03  0.27955502617E+03  0.17270563089E+03 0.  0.
         24    2    5    5    0    0 -0.10971582273E+02 -0.77978070150E+02  0.20188253102E+03  0.23187868128E+03  0.82524005354E+02 0.  0.
          5    1    5    5  501    0  0.45913743053E+02  0.11044682433E+02  0.45702353077E+01  0.47676344888E+02  0.47000000000E+01 0. -1.
        -11    1    6    6    0    0 -0.45909881506E+02 -0.32288799627E+02  0.10968160401E+03  0.12320851456E+03  0.00000000000E+00 0.  1.
         12    1    6    6    0    0  0.34938299233E+02 -0.45689270523E+02  0.92200927012E+02  0.10867016672E+03  0.00000000000E+00 0. -1.
         -5    1    3    3    0  503  0.38124236853E+02  0.69073691357E+02  0.77266146016E+02  0.11052954172E+03  0.47000000000E+01 0.  1.
         11    1    4    4    0    0 -0.19578375023E+02  0.13475541981E+02 -0.53296167234E+01  0.24357910720E+02  0.00000000000E+00 0. -1.
        -12    1    4    4    0    0 -0.53488022610E+02 -0.15615845621E+02  0.13240067103E+03  0.14364804519E+03  0.00000000000E+00 0.  1.
<mgrwt>
<rscale>  2 0.18908485E+03</rscale>
<asrwt>0</asrwt>
<pdfrwt beam="1">  1       21 0.74529266E-01 0.18928373E+03</pdfrwt>
<pdfrwt beam="2">  1       21 0.11330812E-01 0.18928373E+03</pdfrwt>
<totfact> 0.10496458E+05</totfact>
</mgrwt>
</event>
<event>
12    1  0.1074575E-001  0.2726283E+03  0.7546771E-02  0.1100347E+00
         21   -1    0    0  501  502  0.00000000000E+00  0.00000000000E+00  0.13793378707E+04  0.13793378707E+04  0.00000000000E+00 0. -1.
         21   -1    0    0  502  503 -0.00000000000E+00 -0.00000000000E+00 -0.58363919407E+02  0.58363919407E+02  0.00000000000E+00 0. -1.
         -6    2    1    2    0  503  0.10372061130E+03 -0.18230027095E+03  0.87181939663E+03  0.91228195154E+03  0.16792243676E+03 0.  0.
        -24    2    3    3    0    0  0.87673783809E+02 -0.73352883138E+02  0.64924720275E+03  0.66391225638E+03  0.78677926168E+02 0.  0.
          6    2    1    2  501    0 -0.10372061130E+03  0.18230027095E+03  0.44915455467E+03  0.52541983858E+03  0.17416899492E+03 0.  0.
         24    2    5    5    0    0 -0.79132152626E+02  0.16213772082E+03  0.22382643858E+03  0.29781058871E+03  0.77732451671E+02 0.  0.
          5    1    5    5  501    0 -0.24588458674E+02  0.20162550124E+02  0.22532811609E+03  0.22760924987E+03  0.47000000000E+01 0. -1.
        -13    1    6    6    0    0 -0.35769389786E+02  0.19870300589E+02  0.85098631416E+02  0.94424865158E+02  0.00000000000E+00 0.  1.
         14    1    6    6    0    0 -0.43362762840E+02  0.14226742024E+03  0.13872780717E+03  0.20338572355E+03  0.00000000000E+00 0. -1.
         -5    1    3    3    0  503  0.16046827491E+02 -0.10894738781E+03  0.22257219389E+03  0.24836969516E+03  0.47000000000E+01 0.  1.
         11    1    4    4    0    0  0.66764086454E+02 -0.89171971028E+02  0.55597181360E+03  0.56702181720E+03  0.00000000000E+00 0. -1.
        -12    1    4    4    0    0  0.20909697354E+02  0.15819087891E+02  0.93275389144E+02  0.96890439183E+02  0.00000000000E+00 0.  1.
<mgrwt>
<rscale>  2 0.27163599E+03</rscale>
<asrwt>0</asrwt>
<pdfrwt beam="1">  1       21 0.21220580E+00 0.27262831E+03</pdfrwt>
<pdfrwt beam="2">  1       21 0.89790655E-02 0.27262831E+03</pdfrwt>
<totfact> 0.10393507E+04</totfact>
</mgrwt>
</event>
<event>
12    1  0.1074575E-001  0.2521304E+03  0.7546771E-02  0.1112319E+00
         21   -1    0    0  503  502  0.00000000000E+00  0.00000000000E+00  0.66970106800E+02  0.66970106800E+02  0.00000000000E+00 0.  1.
         21   -1    0    0  501  503 -0.00000000000E+00 -0.00000000000E+00 -0.15786944074E+04  0.15786944074E+04  0.00000000000E+00 0. -1.
          6    2    1    2  501    0 -0.16300838622E+03 -0.77541962692E+02 -0.12809331153E+04  0.13055111667E+04  0.17602633482E+03 0.  0.
         24    2    3    3    0    0 -0.14325437123E+03 -0.88913043726E+02 -0.70065696046E+03  0.72476851417E+03  0.77083582370E+02 0.  0.
         -6    2    1    2    0  502  0.16300838622E+03  0.77541962692E+02 -0.23079118532E+03  0.34015334752E+03  0.17278668540E+03 0.  0.
        -24    2    5    5    0    0  0.14757231923E+02  0.47138735313E+02 -0.12106698384E+03  0.15316604481E+03  0.79767076192E+02 0.  0.
          5    1    3    3  501    0 -0.19754014994E+02  0.11371081034E+02 -0.58027615485E+03  0.58074265254E+03  0.47000000000E+01 0. -1.
        -13    1    4    4    0    0 -0.10462375831E+03 -0.20392837749E+02 -0.38930210792E+03  0.40363118049E+03  0.00000000000E+00 0.  1.
         14    1    4    4    0    0 -0.38630612914E+02 -0.68520205977E+02 -0.31135485255E+03  0.32113733368E+03  0.00000000000E+00 0. -1.
         -5    1    5    5    0  502  0.14825115430E+03  0.30403227379E+02 -0.10972420148E+03  0.18698730271E+03  0.47000000000E+01 0.  1.
         11    1    6    6    0    0  0.35076582925E+02 -0.44580463121E+01 -0.29188404673E+02  0.45849796227E+02  0.00000000000E+00 0. -1.
        -12    1    6    6    0    0 -0.20319351003E+02  0.51596781625E+02 -0.91878579171E+02  0.10731624858E+03  0.00000000000E+00 0.  1.
<mgrwt>
<rscale>  2 0.25156580E+03</rscale>
<asrwt>0</asrwt>
<pdfrwt beam="1">  1       21 0.10303094E-01 0.25213044E+03</pdfrwt>
<pdfrwt beam="2">  1       21 0.24287605E+00 0.25213044E+03</pdfrwt>
<totfact> 0.53456820E+03</totfact>
</mgrwt>
</event>
<event>
12    1  0.1074575E-001  0.2513376E+03  0.7546771E-02  0.1112595E+00
         21   -1    0    0  503  502  0.00000000000E+00  0.00000000000E+00  0.31223229507E+03  0.31223229507E+03  0.00000000000E+00 0. -1.
         21   -1    0    0  501  503 -0.00000000000E+00 -0.00000000000E+00 -0.22398920082E+03  0.22398920082E+03  0.00000000000E+00 0. -1.
          6    2    1    2  501    0 -0.18187889511E+03 -0.15813466595E+02 -0.40503108950E+02  0.25458020023E+03  0.17274425694E+03 0.  0.
         24    2    3    3    0    0 -0.19824340739E+03 -0.38607244343E+02 -0.53037287183E+02  0.22349082599E+03  0.79650659640E+02 0.  0.
         -6    2    1    2    0  502  0.18187889511E+03  0.15813466595E+02  0.12874620320E+03  0.28164129566E+03  0.17151162169E+03 0.  0.
        -24    2    5    5    0    0  0.12285933157E+03 -0.66858527023E+01  0.86862253475E+01  0.14589883167E+03  0.77922413927E+02 0.  0.
          5    1    3    3  501    0  0.16364512287E+02  0.22793777749E+02  0.12534178233E+02  0.31089374237E+02  0.47000000000E+01 0. -1.
        -11    1    4    4    0    0 -0.21772345183E+02 -0.23980367758E+02 -0.31375648090E+02  0.45094615484E+02  0.00000000000E+00 0.  1.
         12    1    4    4    0    0 -0.17647106221E+03 -0.14626876586E+02 -0.21661639093E+02  0.17839621051E+03  0.00000000000E+00 0. -1.
         -5    1    5    5    0  502  0.59019563538E+02  0.22499319297E+02  0.12005997785E+03  0.13574246399E+03  0.47000000000E+01 0.  1.
         11    1    6    6    0    0  0.60275439552E+02 -0.35008866995E+02  0.27086732789E+02  0.74782621475E+02  0.00000000000E+00 0. -1.
        -12    1    6    6    0    0  0.62583892017E+02  0.28323014292E+02 -0.18400507442E+02  0.71116210196E+02  0.00000000000E+00 0.  1.
<mgrwt>
<rscale>  2 0.25112591E+03</rscale>
<asrwt>0</asrwt>
<pdfrwt beam="1">  1       21 0.48035738E-01 0.25133757E+03</pdfrwt>
<pdfrwt beam="2">  1       21 0.34459877E-01 0.25133757E+03</pdfrwt>
<totfact> 0.32660221E+04</totfact>
</mgrwt>
</event>
<event>
12    1  0.1074575E-001  0.1790568E+03  0.7546771E-02  0.1169086E+00
         21   -1    0    0  501  502  0.00000000000E+00  0.00000000000E+00  0.34421101588E+03  0.34421101588E+03  0.00000000000E+00 0. -1.
         21   -1    0    0  502  503 -0.00000000000E+00 -0.00000000000E+00 -0.92365411824E+02  0.92365411824E+02  0.00000000000E+00 0. -1.
         -6    2    1    2    0  503  0.15251312172E+02 -0.44505972604E+02  0.12621395055E+03  0.21906914487E+03  0.17276557760E+03 0.  0.
        -24    2    3    3    0    0  0.68191505618E+02 -0.10595392200E+02  0.42871459415E+02  0.11456721966E+03  0.80779589091E+02 0.  0.
          6    2    1    2  501    0 -0.15251312172E+02  0.44505972604E+02  0.12563165351E+03  0.21750728283E+03  0.17120958384E+03 0.  0.
         24    2    5    5    0    0 -0.58813713790E+01  0.93852843949E+02  0.65092012171E+02  0.13870342712E+03  0.78477536905E+02 0.  0.
          5    1    5    5  501    0 -0.93699407934E+01 -0.49346871345E+02  0.60539641335E+02  0.78803855712E+02  0.47000000000E+01 0. -1.
        -13    1    6    6    0    0 -0.27748626039E+02  0.59968146998E+02  0.49104440164E+01  0.66259168135E+02  0.00000000000E+00 0.  1.
         14    1    6    6    0    0  0.21867254660E+02  0.33884696951E+02  0.60181568154E+02  0.72444258981E+02  0.00000000000E+00 0. -1.
         -5    1    3    3    0  503 -0.52940193446E+02 -0.33910580404E+02  0.83342491133E+02  0.10450192521E+03  0.47000000000E+01 0.  1.
         13    1    4    4    0    0  0.22553613958E+02  0.60497675529E+01  0.58942415677E+02  0.63399318260E+02  0.00000000000E+00 0. -1.
        -14    1    4    4    0    0  0.45637891660E+02 -0.16645159753E+02 -0.16070956262E+02  0.51167901398E+02  0.00000000000E+00 0.  1.
<mgrwt>
<rscale>  2 0.17868038E+03</rscale>
<asrwt>0</asrwt>
<pdfrwt beam="1">  1       21 0.52955540E-01 0.17905678E+03</pdfrwt>
<pdfrwt beam="2">  1       21 0.14210064E-01 0.17905678E+03</pdfrwt>
<totfact> 0.14688627E+05</totfact>
</mgrwt>
</event>
<event>
12    1  0.1074575E-001  0.2565707E+03  0.7546771E-02  0.1109940E+00
         21   -1    0    0  501  502  0.00000000000E+00  0.00000000000E+00  0.60692557556E+03  0.60692557556E+03  0.00000000000E+00 0. -1.
         21   -1    0    0  502  503 -0.00000000000E+00 -0.00000000000E+00 -0.12167925262E+03  0.12167925262E+03  0.00000000000E+00 0. -1.
         -6    2    1    2    0  503 -0.17302877446E+03 -0.74350524674E+02  0.36933671427E+03  0.44706698033E+03  0.16730905259E+03 0.  0.
        -24    2    3    3    0    0 -0.95009503436E+02 -0.10443095823E+03  0.28429683240E+03  0.32771158395E+03  0.81471237661E+02 0.  0.
          6    2    1    2  501    0  0.17302877446E+03  0.74350524674E+02  0.11590960867E+03  0.28153784785E+03  0.17424570319E+03 0.  0.
         24    2    5    5    0    0  0.13525413753E+03  0.24954706965E+02  0.14172932773E+03  0.21404253027E+03  0.82526258305E+02 0.  0.
          5    1    5    5  501    0  0.37774636935E+02  0.49395817708E+02 -0.25819719057E+02  0.67495317577E+02  0.47000000000E+01 0. -1.
        -13    1    6    6    0    0  0.10702121010E+01  0.17968911757E+02  0.45040731021E+02  0.48504583233E+02  0.00000000000E+00 0.  1.
         14    1    6    6    0    0  0.13418392542E+03  0.69857952078E+01  0.96688596708E+02  0.16553794704E+03  0.00000000000E+00 0. -1.
         -5    1    3    3    0  503 -0.78019271025E+02  0.30080433559E+02  0.85039881876E+02  0.11935539638E+03  0.47000000000E+01 0.  1.
         11    1    4    4    0    0 -0.60311098151E+02 -0.22226840691E+02  0.17612959489E+03  0.18749158702E+03  0.00000000000E+00 0. -1.
        -12    1    4    4    0    0 -0.34698405285E+02 -0.82204117541E+02  0.10816723751E+03  0.14021999693E+03  0.00000000000E+00 0.  1.
<mgrwt>
<rscale>  2 0.25539782E+03</rscale>
<asrwt>0</asrwt>
<pdfrwt beam="1">  1       21 0.93373164E-01 0.25657070E+03</pdfrwt>
<pdfrwt beam="2">  1       21 0.18719885E-01 0.25657070E+03</pdfrwt>
<totfact> 0.24341432E+04</totfact>
</mgrwt>
</event>
<event>
12    1  0.1074575E-001  0.1728351E+03  0.7546771E-02  0.1175081E+00
         21   -1    0    0  503  502  0.00000000000E+00  0.00000000000E+00  0.25524254103E+03  0.25524254103E+03  0.00000000000E+00 0. -1.
         21   -1    0    0  501  503 -0.00000000000E+00 -0.00000000000E+00 -0.12220633016E+03  0.12220633016E+03  0.00000000000E+00 0. -1.
          6    2    1    2  501    0  0.16629422285E+01 -0.72229673769E+01  0.10699316906E+03  0.20327198631E+03  0.17267607118E+03 0.  0.
         24    2    3    3    0    0  0.61914506994E+02  0.89679815681E+01  0.97147060302E+02  0.13993610594E+03  0.78934983062E+02 0.  0.
         -6    2    1    2    0  502 -0.16629422285E+01  0.72229673769E+01  0.26043041807E+02  0.17417688489E+03  0.17205932281E+03 0.  0.
        -24    2    5    5    0    0  0.31307451773E+02  0.35729626929E+02 -0.33587191631E+02  0.10016653926E+03  0.81538171240E+02 0.  0.
          5    1    3    3  501    0 -0.60251564766E+02 -0.16190948945E+02  0.98461087583E+01  0.63335880369E+02  0.47000000000E+01 0. -1.
        -13    1    4    4    0    0  0.32053498873E+02 -0.17568310984E+02  0.18436147903E+01  0.36598787635E+02  0.00000000000E+00 0.  1.
         14    1    4    4    0    0  0.29861008121E+02  0.26536292552E+02  0.95303445512E+02  0.10333731831E+03  0.00000000000E+00 0. -1.
         -5    1    5    5    0  502 -0.32970394001E+02 -0.28506659552E+02  0.59630233439E+02  0.74010345624E+02  0.47000000000E+01 0.  1.
         11    1    6    6    0    0  0.72609833571E+01 -0.30853011144E+01 -0.50770865600E+02  0.51380168898E+02  0.00000000000E+00 0. -1.
        -12    1    6    6    0    0  0.24046468415E+02  0.38814928043E+02  0.17183673968E+02  0.48786370364E+02  0.00000000000E+00 0.  1.
<mgrwt>
<rscale>  2 0.17268082E+03</rscale>
<asrwt>0</asrwt>
<pdfrwt beam="1">  1       21 0.39268083E-01 0.17283507E+03</pdfrwt>
<pdfrwt beam="2">  1       21 0.18800974E-01 0.17283507E+03</pdfrwt>
<totfact> 0.16294882E+05</totfact>
</mgrwt>
</event>
<event>
12    1  0.1074575E-001  0.2288268E+03  0.7546771E-02  0.1127568E+00
         21   -1    0    0  501  502  0.00000000000E+00  0.00000000000E+00  0.12307454237E+04  0.12307454237E+04  0.00000000000E+00 0.  1.
         21   -1    0    0  502  503 -0.00000000000E+00 -0.00000000000E+00 -0.11368164321E+03  0.11368164321E+03  0.00000000000E+00 0. -1.
         -6    2    1    2    0  503 -0.13625300119E+03  0.62023830123E+02  0.26129668532E+02  0.22975270209E+03  0.17231282223E+03 0.  0.
        -24    2    3    3    0    0 -0.13312136450E+03  0.89127098718E+02  0.52330245579E+02  0.19163506110E+03  0.91217348294E+02 0.  0.
          6    2    1    2  501    0  0.13625300119E+03 -0.62023830123E+02  0.10909341119E+04  0.11146743648E+04  0.17306029903E+03 0.  0.
         24    2    5    5    0    0  0.88657859586E+00 -0.19990937231E+02  0.31469885048E+03  0.32559001975E+03  0.81074477358E+02 0.  0.
          5    1    5    5  501    0  0.13536642259E+03 -0.42032892892E+02  0.77623526146E+03  0.78908434503E+03  0.47000000000E+01 0. -1.
        -11    1    6    6    0    0  0.17470976801E+02 -0.45546812764E+02  0.24018125531E+03  0.24508525574E+03  0.00000000000E+00 0.  1.
         12    1    6    6    0    0 -0.16584398205E+02  0.25555875532E+02  0.74517595171E+02  0.80504764008E+02  0.00000000000E+00 0. -1.
         -5    1    3    3    0  503 -0.31316366937E+01 -0.27103268595E+02 -0.26200577047E+02  0.38117640988E+02  0.47000000000E+01 0.  1.
         13    1    4    4    0    0 -0.51911713241E+02  0.19492445227E+02 -0.23791872729E+02  0.60339328804E+02  0.00000000000E+00 0. -1.
        -14    1    4    4    0    0 -0.81209651256E+02  0.69634653491E+02  0.76122118308E+02  0.13129573230E+03  0.00000000000E+00 0.  1.
<mgrwt>
<rscale>  2 0.22868547E+03</rscale>
<asrwt>0</asrwt>
<pdfrwt beam="1">  1       21 0.18934544E+00 0.22882680E+03</pdfrwt>
<pdfrwt beam="2">  1       21 0.17489484E-01 0.22882680E+03</pdfrwt>
<totfact> 0.45203662E+03</totfact>
</mgrwt>
</event>
<event>
12    1  0.1074575E-001  0.3340075E+03  0.7546771E-02  0.1070765E+00
         21   -1    0    0  503  502  0.00000000000E+00  0.00000000000E+00  0.62028726268E+03  0.62028726268E+03  0.00000000000E+00 0. -1.
         21   -1    0    0  501  503 -0.00000000000E+00 -0.00000000000E+00 -0.32644464352E+03  0.32644464352E+03  0.00000000000E+00 0. -1.
          6    2    1    2  501    0  0.26965300459E+03  0.31970013779E+02 -0.17886871602E+03  0.36792535442E+03  0.17216336484E+03 0.  0.
         24    2    3    3    0    0  0.16246079962E+03 -0.21791892591E+02 -0.44802915721E+02  0.18799136599E+03  0.80405562218E+02 0.  0.
         -6    2    1    2    0  502 -0.26965300459E+03 -0.31970013779E+02  0.47271133518E+03  0.57880655177E+03  0.19448957120E+03 0.  0.
        -24    2    5    5    0    0 -0.21359610652E+03 -0.96440164091E+02  0.37063459212E+03  0.44561297995E+03  0.79227047467E+02 0.  0.
          5    1    3    3  501    0  0.10719220497E+03  0.53761906369E+02 -0.13406580030E+03  0.17993398843E+03  0.47000000000E+01 0. -1.
        -11    1    4    4    0    0  0.51070791950E+02 -0.44486416053E+02 -0.27067750581E+02  0.72937851114E+02  0.00000000000E+00 0.  1.
         12    1    4    4    0    0  0.11139000767E+03  0.22694523462E+02 -0.17735165140E+02  0.11505351488E+03  0.00000000000E+00 0. -1.
         -5    1    5    5    0  502 -0.56056898071E+02  0.64470150313E+02  0.10207674305E+03  0.13319357182E+03  0.47000000000E+01 0.  1.
         13    1    6    6    0    0 -0.14041022229E+03 -0.10025888533E+03  0.23621800232E+03  0.29251635720E+03  0.00000000000E+00 0. -1.
        -14    1    6    6    0    0 -0.73185884226E+02  0.38187212355E+01  0.13441658980E+03  0.15309662274E+03  0.00000000000E+00 0.  1.
<mgrwt>
<rscale>  2 0.33084086E+03</rscale>
<asrwt>0</asrwt>
<pdfrwt beam="1">  1       21 0.95428809E-01 0.33400751E+03</pdfrwt>
<pdfrwt beam="2">  1       21 0.50222253E-01 0.33400751E+03</pdfrwt>
<totfact> 0.31590279E+03</totfact>
</mgrwt>
</event>
<event>
12    1  0.1074575E-001  0.1882204E+03  0.7546771E-02  0.1160959E+00
         21   -1    0    0  501  502  0.00000000000E+00  0.00000000000E+00  0.94122145963E+02  0.94122145963E+02  0.00000000000E+00 0. -1.
         21   -1    0    0  502  503 -0.00000000000E+00 -0.00000000000E+00 -0.42185028769E+03  0.42185028769E+03  0.00000000000E+00 0. -1.
         -6    2    1    2    0  503  0.60480891344E+02  0.43482558670E+02 -0.25683281014E+03  0.31841798863E+03  0.17285326722E+03 0.  0.
        -24    2    3    3    0    0  0.92304059829E+02  0.74324757328E+02 -0.18646051891E+03  0.23512150224E+03  0.80438713893E+02 0.  0.
          6    2    1    2  501    0 -0.60480891344E+02 -0.43482558670E+02 -0.70895331582E+02  0.19755444502E+03  0.16867999165E+03 0.  0.
         24    2    5    5    0    0 -0.39810773011E+02 -0.54349319013E+01  0.24436737967E+02  0.92744287217E+02  0.79936928365E+02 0.  0.
          5    1    5    5  501    0 -0.20670118333E+02 -0.38047626769E+02 -0.95332069548E+02  0.10481015780E+03  0.47000000000E+01 0. -1.
        -11    1    6    6    0    0 -0.86903698634E+00  0.32863009756E+02 -0.82399975328E-01  0.32874601522E+02  0.00000000000E+00 0.  1.
         12    1    6    6    0    0 -0.38941736025E+02 -0.38297941657E+02  0.24519137942E+02  0.59869685695E+02  0.00000000000E+00 0. -1.
         -5    1    3    3    0  503 -0.31823168485E+02 -0.30842198658E+02 -0.70372291239E+02  0.83296486389E+02  0.47000000000E+01 0.  1.
         11    1    4    4    0    0  0.70589103397E+00  0.24584602889E+02 -0.89309679857E+02  0.92634334335E+02  0.00000000000E+00 0. -1.
        -12    1    4    4    0    0  0.91598168795E+02  0.49740154439E+02 -0.97150839048E+02  0.14248716791E+03  0.00000000000E+00 0.  1.
<mgrwt>
<rscale>  2 0.18725675E+03</rscale>
<asrwt>0</asrwt>
<pdfrwt beam="1">  1       21 0.14480330E-01 0.18822041E+03</pdfrwt>
<pdfrwt beam="2">  1       21 0.64900044E-01 0.18822041E+03</pdfrwt>
<totfact> 0.91625783E+04</totfact>
</mgrwt>
</event>
<event>
12    1  0.1074575E-001  0.2055381E+03  0.7546771E-02  0.1145535E+00
         21   -1    0    0  503  502  0.00000000000E+00  0.00000000000E+00  0.33840113862E+03  0.33840113862E+03  0.00000000000E+00 0.  1.
         21   -1    0    0  501  503 -0.00000000000E+00 -0.00000000000E+00 -0.13863151813E+03  0.13863151813E+03  0.00000000000E+00 0.  1.
          6    2    1    2  501    0 -0.38949587236E+01 -0.11124378022E+03  0.17858427774E+03  0.27228343245E+03  0.17278765578E+03 0.  0.
         24    2    3    3    0    0 -0.49943292088E+02 -0.43342052167E+02  0.15514235970E+03  0.18682755378E+03  0.80389782718E+02 0.  0.
         -6    2    1    2    0  502  0.38949587236E+01  0.11124378022E+03  0.21185342749E+02  0.20474922430E+03  0.17053761099E+03 0.  0.
        -24    2    5    5    0    0 -0.17114907160E+02  0.61647137838E+01 -0.29132079531E+02  0.86271556981E+02  0.79140253619E+02 0.  0.
          5    1    3    3  501    0  0.46048333365E+02 -0.67901728055E+02  0.23441918033E+02  0.85455878672E+02  0.47000000000E+01 0. -1.
        -13    1    4    4    0    0 -0.21479144451E+02 -0.11855849825E+02  0.13942299218E+03  0.14156512837E+03  0.00000000000E+00 0.  1.
         14    1    4    4    0    0 -0.28464147637E+02 -0.31486202342E+02  0.15719367524E+02  0.45262425410E+02  0.00000000000E+00 0. -1.
         -5    1    5    5    0  502  0.21009865884E+02  0.10507906644E+03  0.50317422280E+02  0.11847766732E+03  0.47000000000E+01 0.  1.
         11    1    6    6    0    0 -0.10793646216E+02  0.36738727890E+02  0.65624516935E+01  0.38849745145E+02  0.00000000000E+00 0. -1.
        -12    1    6    6    0    0 -0.63212609440E+01 -0.30574014106E+02 -0.35694531224E+02  0.47421811836E+02  0.00000000000E+00 0.  1.
<mgrwt>
<rscale>  2 0.20506453E+03</rscale>
<asrwt>0</asrwt>
<pdfrwt beam="1">  1       21 0.52061713E-01 0.20553813E+03</pdfrwt>
<pdfrwt beam="2">  1       21 0.21327926E-01 0.20553813E+03</pdfrwt>
<totfact> 0.71246764E+04</totfact>
</mgrwt>
</event>
<event>
12    1  0.1074575E-001  0.1922368E+03  0.7546771E-02  0.1156585E+00
         21   -1    0    0  503  502  0.00000000000E+00  0.00000000000E+00  0.33121483255E+03  0.33121483255E+03  0.00000000000E+00 0.  1.
         21   -1    0    0  501  503 -0.00000000000E+00 -0.00000000000E+00 -0.11930129317E+04  0.11930129317E+04  0.00000000000E+00 0.  1.
          6    2    1    2  501    0 -0.67675374929E+02  0.50635634929E+02 -0.11566694813E+04  0.11725354028E+04  0.17265879028E+03 0.  0.
         24    2    3    3    0    0  0.22160183904E+02  0.35267990768E+02 -0.76810068557E+03  0.77339333390E+03  0.80147868524E+02 0.  0.
         -6    2    1    2    0  502  0.67675374929E+02 -0.50635634929E+02  0.29487138218E+03  0.35169236145E+03  0.17203040771E+03 0.  0.
        -24    2    5    5    0    0  0.12958821967E+02  0.36762814927E+02  0.16089001441E+03  0.18256079398E+03  0.76963700108E+02 0.  0.
          5    1    3    3  501    0 -0.89835558833E+02  0.15367644162E+02 -0.38856879575E+03  0.39914206888E+03  0.47000000000E+01 0. -1.
        -11    1    4    4    0    0  0.99944979574E+01  0.59489944770E+02 -0.43043878649E+03  0.43464524895E+03  0.00000000000E+00 0.  1.
         12    1    4    4    0    0  0.12165685947E+02 -0.24221954003E+02 -0.33766189908E+03  0.33874808495E+03  0.00000000000E+00 0. -1.
         -5    1    5    5    0  502  0.54716552962E+02 -0.87398449856E+02  0.13398136777E+03  0.16913156747E+03  0.47000000000E+01 0.  1.
         13    1    6    6    0    0  0.45313734695E+02  0.25594454285E+02  0.97545766567E+02  0.11056033293E+03  0.00000000000E+00 0. -1.
        -14    1    6    6    0    0 -0.32354912728E+02  0.11168360642E+02  0.63344247840E+02  0.72000461051E+02  0.00000000000E+00 0.  1.
<mgrwt>
<rscale>  2 0.19209558E+03</rscale>
<asrwt>0</asrwt>
<pdfrwt beam="1">  1       21 0.50956128E-01 0.19223679E+03</pdfrwt>
<pdfrwt beam="2">  1       21 0.18354045E+00 0.19223679E+03</pdfrwt>
<totfact> 0.63102993E+02</totfact>
</mgrwt>
</event>
<event>
12    1  0.1074575E-001  0.2080564E+03  0.7546771E-02  0.1144207E+00
         21   -1    0    0  503  502  0.00000000000E+00  0.00000000000E+00  0.38008691592E+03  0.38008691592E+03  0.00000000000E+00 0.  1.
         21   -1    0    0  501  503 -0.00000000000E+00 -0.00000000000E+00 -0.31501404153E+03  0.31501404153E+03  0.00000000000E+00 0.  1.
          6    2    1    2  501    0  0.11614054315E+03  0.54847429418E+01 -0.24732303617E+03  0.31976288035E+03  0.16601478024E+03 0.  0.
         24    2    3    3    0    0  0.94575587521E+02  0.63622369087E+02 -0.15805971928E+03  0.21097381551E+03  0.80837666777E+02 0.  0.
         -6    2    1    2    0  502 -0.11614054315E+03 -0.54847429418E+01  0.31239591056E+03  0.37533807710E+03  0.17253625420E+03 0.  0.
        -24    2    5    5    0    0 -0.36838321572E+01 -0.33326240159E+02  0.17599925153E+03  0.19631908534E+03  0.80257322566E+02 0.  0.
          5    1    3    3  501    0  0.21564955632E+02 -0.58137626145E+02 -0.89263316891E+02  0.10878906483E+03  0.47000000000E+01 0. -1.
        -13    1    4    4    0    0  0.81908777185E+02  0.27565394341E+02 -0.14811398374E+03  0.17148367538E+03  0.00000000000E+00 0.  1.
         14    1    4    4    0    0  0.12666810336E+02  0.36056974746E+02 -0.99457355448E+01  0.39490140129E+02  0.00000000000E+00 0. -1.
         -5    1    5    5    0  502 -0.11245671100E+03  0.27841497217E+02  0.13639665903E+03  0.17901899176E+03  0.47000000000E+01 0.  1.
         11    1    6    6    0    0  0.45834273728E+01 -0.58107316176E+02  0.97582274675E+02  0.11366515882E+03  0.00000000000E+00 0. -1.
        -12    1    6    6    0    0 -0.82672595301E+01  0.24781076017E+02  0.78416976859E+02  0.82653926515E+02  0.00000000000E+00 0.  1.
<mgrwt>
<rscale>  2 0.20669935E+03</rscale>
<asrwt>0</asrwt>
<pdfrwt beam="1">  1       21 0.58474910E-01 0.20805640E+03</pdfrwt>
<pdfrwt beam="2">  1       21 0.48463698E-01 0.20805640E+03</pdfrwt>
<totfact> 0.11018997E+04</totfact>
</mgrwt>
</event>
<event>
12    1  0.1074575E-001  0.2446282E+03  0.7546771E-02  0.1117241E+00
         21   -1    0    0  503  502  0.00000000000E+00  0.00000000000E+00  0.51590440471E+03  0.51590440471E+03  0.00000000000E+00 0.  1.
         21   -1    0    0  501  503 -0.00000000000E+00 -0.00000000000E+00 -0.12063575430E+03  0.12063575430E+03  0.00000000000E+00 0. -1.
          6    2    1    2  501    0  0.15901887667E+03 -0.60120793005E+02  0.12510126761E+03  0.27207704569E+03  0.17168016410E+03 0.  0.
         24    2    3    3    0    0  0.86124259174E+02 -0.47260150467E+02  0.14730421809E+03  0.19465558616E+03  0.80878641890E+02 0.  0.
         -6    2    1    2    0  502 -0.15901887667E+03  0.60120793005E+02  0.27016738281E+03  0.36446311332E+03  0.17590177188E+03 0.  0.
        -24    2    5    5    0    0 -0.34534454906E+02  0.27027961322E+02  0.36903442970E+02  0.97956711147E+02  0.79438742984E+02 0.  0.
          5    1    3    3  501    0  0.72894617495E+02 -0.12860642538E+02 -0.22202950481E+02  0.77421459533E+02  0.47000000000E+01 0. -1.
        -11    1    4    4    0    0  0.56882191351E+02 -0.68819741700E+02  0.89773279039E+02  0.12661351496E+03  0.00000000000E+00 0.  1.
         12    1    4    4    0    0  0.29242067824E+02  0.21559591233E+02  0.57530939055E+02  0.68042071201E+02  0.00000000000E+00 0. -1.
         -5    1    5    5    0  502 -0.12448442176E+03  0.33092831683E+02  0.23326393984E+03  0.26650640217E+03  0.47000000000E+01 0.  1.
         11    1    6    6    0    0 -0.17898359654E+02 -0.27057633609E+02  0.45082451984E+01  0.32753489731E+02  0.00000000000E+00 0. -1.
        -12    1    6    6    0    0 -0.16636095253E+02  0.54085594932E+02  0.32395197772E+02  0.65203221416E+02  0.00000000000E+00 0.  1.
<mgrwt>
<rscale>  2 0.24387022E+03</rscale>
<asrwt>0</asrwt>
<pdfrwt beam="1">  1       21 0.79369907E-01 0.24462818E+03</pdfrwt>
<pdfrwt beam="2">  1       21 0.18559347E-01 0.24462818E+03</pdfrwt>
<totfact> 0.36201747E+04</totfact>
</mgrwt>
</event>
<event>
12    1  0.1074575E-001  0.1737596E+03  0.7546771E-02  0.1173995E+00
         21   -1    0    0  501  502  0.00000000000E+00  0.00000000000E+00  0.33822853049E+03  0.33822853049E+03  0.00000000000E+00 0. -1.
         21   -1    0    0  502  503 -0.00000000000E+00 -0.00000000000E+00 -0.21396251016E+03  0.21396251016E+03  0.00000000000E+00 0. -1.
         -6    2    1    2    0  503 -0.10219762588E+02  0.38390088454E+01 -0.14866464862E+03  0.22864266155E+03  0.17336985723E+03 0.  0.
        -24    2    3    3    0    0  0.54271878956E+02  0.33444199094E+02 -0.92686957094E+02  0.13813724145E+03  0.80169034938E+02 0.  0.
          6    2    1    2  501    0  0.10219762588E+02 -0.38390088454E+01  0.27293066894E+03  0.32354837910E+03  0.17341632573E+03 0.  0.
         24    2    5    5    0    0  0.33486435700E+02  0.58812283391E+02  0.16215035000E+03  0.19408451711E+03  0.82436871132E+02 0.  0.
          5    1    5    5  501    0 -0.23266673112E+02 -0.62651292236E+02  0.11078031895E+03  0.12946386199E+03  0.47000000000E+01 0. -1.
        -11    1    6    6    0    0  0.20578614730E+02  0.34047151157E+02  0.12281134292E+02  0.41635491418E+02  0.00000000000E+00 0.  1.
         12    1    6    6    0    0  0.12907820970E+02  0.24765132234E+02  0.14986921571E+03  0.15244902569E+03  0.00000000000E+00 0. -1.
         -5    1    3    3    0  503 -0.64491641545E+02 -0.29605190249E+02 -0.55977691521E+02  0.90505420096E+02  0.47000000000E+01 0.  1.
         11    1    4    4    0    0  0.67998508780E+02  0.10779715076E+02 -0.41204153199E+02  0.80235788114E+02  0.00000000000E+00 0. -1.
        -12    1    4    4    0    0 -0.13726629823E+02  0.22664484018E+02 -0.51482803895E+02  0.57901453341E+02  0.00000000000E+00 0.  1.
<mgrwt>
<rscale>  2 0.17374802E+03</rscale>
<asrwt>0</asrwt>
<pdfrwt beam="1">  1       21 0.52035158E-01 0.17375961E+03</pdfrwt>
<pdfrwt beam="2">  1       21 0.32917309E-01 0.17375961E+03</pdfrwt>
<totfact> 0.31463879E+04</totfact>
</mgrwt>
</event>
<event>
12    1  0.1074575E-001  0.1863974E+03  0.7546771E-02  0.1162076E+00
         21   -1    0    0  503  502  0.00000000000E+00  0.00000000000E+00  0.60383076160E+03  0.60383076160E+03  0.00000000000E+00 0.  1.
         21   -1    0    0  501  503 -0.00000000000E+00 -0.00000000000E+00 -0.64616948592E+02  0.64616948592E+02  0.00000000000E+00 0.  1.
          6    2    1    2  501    0  0.58304927450E+02  0.36203650806E+02  0.15477419912E+03  0.24120325546E+03  0.17179577654E+03 0.  0.
         24    2    3    3    0    0  0.41059967594E+02 -0.39127889775E+02  0.12445873306E+03  0.15805671537E+03  0.79215126975E+02 0.  0.
         -6    2    1    2    0  502 -0.58304927450E+02 -0.36203650806E+02  0.38443961390E+03  0.42724445473E+03  0.17330273648E+03 0.  0.
        -24    2    5    5    0    0 -0.50045497345E+02  0.19044142064E+02  0.10516453945E+03  0.14239854199E+03  0.79690233094E+02 0.  0.
          5    1    3    3  501    0  0.17244959856E+02  0.75331540581E+02  0.30315466054E+02  0.83146540089E+02  0.47000000000E+01 0. -1.
        -13    1    4    4    0    0  0.50872606835E+02 -0.17934603449E+02  0.32054601978E+02  0.62746869524E+02  0.00000000000E+00 0.  1.
         14    1    4    4    0    0 -0.98126392411E+01 -0.21193286326E+02  0.92404131085E+02  0.95309845849E+02  0.00000000000E+00 0. -1.
         -5    1    5    5    0  502 -0.82594301046E+01 -0.55247792871E+02  0.27927507445E+03  0.28484591275E+03  0.47000000000E+01 0.  1.
         13    1    6    6    0    0  0.16761869349E+02  0.11348324838E+02  0.35572171160E+01  0.20552336468E+02  0.00000000000E+00 0. -1.
        -14    1    6    6    0    0 -0.66807366694E+02  0.76958172264E+01  0.10160732233E+03  0.12184620552E+03  0.00000000000E+00 0.  1.
<mgrwt>
<rscale>  2 0.18604639E+03</rscale>
<asrwt>0</asrwt>
<pdfrwt beam="1">  1       21 0.92897037E-01 0.18639744E+03</pdfrwt>
<pdfrwt beam="2">  1       21 0.99410694E-02 0.18639744E+03</pdfrwt>
<totfact> 0.80249778E+04</totfact>
</mgrwt>
</event>
<event>
12    1  0.1074575E-001  0.1941407E+03  0.7546771E-02  0.1155123E+00
         21   -1    0    0  503  502  0.00000000000E+00  0.00000000000E+00  0.13897755470E+04  0.13897755470E+04  0.00000000000E+00 0. -1.
         21   -1    0    0  501  503 -0.00000000000E+00 -0.00000000000E+00 -0.26905464994E+02  0.26905464994E+02  0.00000000000E+00 0. -1.
          6    2    1    2  501    0 -0.65995438948E+02 -0.51749613775E+02  0.69236877259E+03  0.71907239693E+03  0.17509190239E+03 0.  0.
         24    2    3    3    0    0  0.31214001222E+01  0.99623507948E+01  0.17993168701E+03  0.19830434809E+03  0.82705567585E+02 0.  0.
         -6    2    1    2    0  502  0.65995438948E+02  0.51749613775E+02  0.67050130947E+03  0.69760861511E+03  0.17335614612E+03 0.  0.
        -24    2    5    5    0    0  0.10797977280E+03  0.16645045089E+02  0.45916828562E+03  0.47925396780E+03  0.83139414713E+02 0.  0.
          5    1    3    3  501    0 -0.69116839070E+02 -0.61711964570E+02  0.51243708558E+03  0.52076804884E+03  0.47000000000E+01 0. -1.
        -13    1    4    4    0    0 -0.27729260113E+02  0.82081731634E+01  0.15746826270E+03  0.16010165437E+03  0.00000000000E+00 0.  1.
         14    1    4    4    0    0  0.30850660235E+02  0.17541776315E+01  0.22463424310E+02  0.38202693725E+02  0.00000000000E+00 0. -1.
         -5    1    5    5    0  502 -0.41984333856E+02  0.35104568686E+02  0.21133302385E+03  0.21835464731E+03  0.47000000000E+01 0.  1.
         11    1    6    6    0    0  0.31830177301E+02  0.14267996229E+02  0.39375889005E+02  0.52604149441E+02  0.00000000000E+00 0. -1.
        -12    1    6    6    0    0  0.76149595503E+02  0.23770488598E+01  0.41979239661E+03  0.42664981836E+03  0.00000000000E+00 0.  1.
<mgrwt>
<rscale>  2 0.19374847E+03</rscale>
<asrwt>0</asrwt>
<pdfrwt beam="1">  1       21 0.21381157E+00 0.19414066E+03</pdfrwt>
<pdfrwt beam="2">  1       21 0.41393034E-02 0.19414066E+03</pdfrwt>
<totfact> 0.40601210E+04</totfact>
</mgrwt>
</event>
<event>
12    1  0.1074575E-001  0.2295749E+03  0.7546771E-02  0.1127221E+00
         21   -1    0    0  503  502  0.00000000000E+00  0.00000000000E+00  0.26919015608E+03  0.26919015608E+03  0.00000000000E+00 0. -1.
         21   -1    0    0  501  503 -0.00000000000E+00 -0.00000000000E+00 -0.36226042615E+03  0.36226042615E+03  0.00000000000E+00 0. -1.
          6    2    1    2  501    0  0.13651556348E+03  0.70425205070E+02  0.16827407249E+03  0.28464150453E+03  0.17061188132E+03 0.  0.
         24    2    3    3    0    0  0.15861714419E+03  0.79115560467E+02  0.11719050717E+03  0.22811166469E+03  0.82961715616E+02 0.  0.
         -6    2    1    2    0  502 -0.13651556348E+03 -0.70425205070E+02 -0.26134434257E+03  0.34680907770E+03  0.16846205034E+03 0.  0.
        -24    2    5    5    0    0 -0.79995224032E+02 -0.10374644180E+03 -0.22234659576E+03  0.27033837845E+03  0.80512546615E+02 0.  0.
          5    1    3    3  501    0 -0.22101580709E+02 -0.86903553971E+01  0.51083565320E+02  0.56529839842E+02  0.47000000000E+01 0. -1.
        -13    1    4    4    0    0 -0.45407457041E+01 -0.79321721224E+01  0.12883995538E+02  0.15796678991E+02  0.00000000000E+00 0.  1.
         14    1    4    4    0    0  0.16315788989E+03  0.87047732589E+02  0.10430651163E+03  0.21231498570E+03  0.00000000000E+00 0. -1.
         -5    1    5    5    0  502 -0.56520339446E+02  0.33321236729E+02 -0.38997746803E+02  0.76470699251E+02  0.47000000000E+01 0.  1.
         11    1    6    6    0    0 -0.30366298894E+02 -0.63904706764E+02 -0.18127581532E+03  0.19459405149E+03  0.00000000000E+00 0. -1.
        -12    1    6    6    0    0 -0.49628925138E+02 -0.39841735035E+02 -0.41070780447E+02  0.75744326965E+02  0.00000000000E+00 0.  1.
<mgrwt>
<rscale>  2 0.22917555E+03</rscale>
<asrwt>0</asrwt>
<pdfrwt beam="1">  1       21 0.41413870E-01 0.22957487E+03</pdfrwt>
<pdfrwt beam="2">  1       21 0.55732373E-01 0.22957487E+03</pdfrwt>
<totfact> 0.16659773E+04</totfact>
</mgrwt>
</event>
<event>
12    1  0.1074575E-001  0.4304839E+03  0.7546771E-02  0.1033770E+00
         21   -1    0    0  503  502  0.00000000000E+00  0.00000000000E+00  0.15589000668E+03  0.15589000668E+03  0.00000000000E+00 0. -1.
         21   -1    0    0  501  503 -0.00000000000E+00 -0.00000000000E+00 -0.25310402313E+04  0.25310402313E+04  0.00000000000E+00 0.  1.
          6    2    1    2  501    0  0.14298023996E+03 -0.36725186801E+03 -0.21662162803E+04  0.22084223792E+04  0.17122835158E+03 0.  0.
         24    2    3    3    0    0  0.16714636297E+03 -0.25921278307E+03 -0.16257212479E+04  0.16566856527E+04  0.80675909016E+02 0.  0.
         -6    2    1    2    0  502 -0.14298023996E+03  0.36725186801E+03 -0.20893394430E+03  0.47850785874E+03  0.17320246597E+03 0.  0.
        -24    2    5    5    0    0 -0.20333390310E+02  0.74086528018E+02 -0.40159012990E+02  0.11865339685E+03  0.81016182734E+02 0.  0.
          5    1    3    3  501    0 -0.24166123008E+02 -0.10803908494E+03 -0.54049503242E+03  0.55173672657E+03  0.47000000000E+01 0. -1.
        -11    1    4    4    0    0  0.98644675838E+02 -0.21675940643E+03 -0.12292341622E+04  0.12520910661E+04  0.00000000000E+00 0.  1.
         12    1    4    4    0    0  0.68501687130E+02 -0.42453376643E+02 -0.39648708573E+03  0.40459458656E+03  0.00000000000E+00 0. -1.
         -5    1    5    5    0  502 -0.12264684965E+03  0.29316533999E+03 -0.16877493131E+03  0.35985446188E+03  0.47000000000E+01 0.  1.
         13    1    6    6    0    0 -0.50443988718E+02  0.57481246509E+02 -0.34113487260E+02  0.83740191730E+02  0.00000000000E+00 0. -1.
        -14    1    6    6    0    0  0.30110598408E+02  0.16605281509E+02 -0.60455257300E+01  0.34913205121E+02  0.00000000000E+00 0.  1.
<mgrwt>
<rscale>  2 0.43028613E+03</rscale>
<asrwt>0</asrwt>
<pdfrwt beam="1">  1       21 0.23983079E-01 0.43048389E+03</pdfrwt>
<pdfrwt beam="2">  1       21 0.38939079E+00 0.43048389E+03</pdfrwt>
<totfact> 0.12762475E+02</totfact>
</mgrwt>
</event>
<event>
12    1  0.1074575E-001  0.1993887E+03  0.7546771E-02  0.1150264E+00
         21   -1    0    0  501  502  0.00000000000E+00  0.00000000000E+00  0.52049038814E+03  0.52049038814E+03  0.00000000000E+00 0.  1.
         21   -1    0    0  502  503 -0.00000000000E+00 -0.00000000000E+00 -0.88212089807E+02  0.88212089807E+02  0.00000000000E+00 0.  1.
         -6    2    1    2    0  503  0.51122720218E+02  0.84069774483E+02  0.32768443403E+03  0.38357911407E+03  0.17342026680E+03 0.  0.
        -24    2    3    3    0    0 -0.32717262606E+02  0.26433065944E+02  0.13689830743E+03  0.16730944676E+03  0.86499584691E+02 0.  0.
          6    2    1    2  501    0 -0.51122720218E+02 -0.84069774483E+02  0.10459386430E+03  0.22512336388E+03  0.17337644884E+03 0.  0.
         24    2    5    5    0    0 -0.77896572254E+02 -0.10242903719E+03  0.47348382167E+02  0.15914581539E+03  0.80783275712E+02 0.  0.
          5    1    5    5  501    0  0.26773852036E+02  0.18359262704E+02  0.57245482137E+02  0.65977548492E+02  0.47000000000E+01 0. -1.
        -13    1    6    6    0    0 -0.14717118537E+02 -0.34539254411E+02 -0.21845708574E+02  0.43437180576E+02  0.00000000000E+00 0.  1.
         14    1    6    6    0    0 -0.63179453717E+02 -0.67889782776E+02  0.69194090741E+02  0.11570863481E+03  0.00000000000E+00 0. -1.
         -5    1    3    3    0  503  0.83839982824E+02  0.57636708539E+02  0.19078612660E+03  0.21626966730E+03  0.47000000000E+01 0.  1.
         13    1    4    4    0    0  0.88696111192E+01  0.13659107339E+02  0.11925742706E+03  0.12036434324E+03  0.00000000000E+00 0. -1.
        -14    1    4    4    0    0 -0.41586873725E+02  0.12773958604E+02  0.17640880370E+02  0.46945103524E+02  0.00000000000E+00 0.  1.
<mgrwt>
<rscale>  2 0.19937916E+03</rscale>
<asrwt>0</asrwt>
<pdfrwt beam="1">  1       21 0.80075443E-01 0.19938869E+03</pdfrwt>
<pdfrwt beam="2">  1       21 0.13571091E-01 0.19938869E+03</pdfrwt>
<totfact> 0.64352729E+04</totfact>
</mgrwt>
</event>
<event>
12    1  0.1074575E-001  0.2137974E+03  0.7546771E-02  0.1139740E+00
         21   -1    0    0  503  502  0.00000000000E+00  0.00000000000E+00  0.35276466628E+02  0.35276466628E+02  0.00000000000E+00 0.  1.
         21   -1    0    0  501  503 -0.00000000000E+00 -0.00000000000E+00 -0.13671050167E+04  0.13671050167E+04  0.00000000000E+00 0. -1.
          6    2    1    2  501    0  0.24527990171E+02 -0.10781741088E+03 -0.87013037798E+03  0.89601127893E+03  0.18298393617E+03 0.  0.
         24    2    3    3    0    0 -0.54060264237E+02 -0.38183636503E+02 -0.52944168621E+03  0.53947817953E+03  0.79672484777E+02 0.  0.
         -6    2    1    2    0  502 -0.24527990171E+02  0.10781741088E+03 -0.46169817210E+03  0.50637020440E+03  0.17612315406E+03 0.  0.
        -24    2    5    5    0    0 -0.85611455849E-01  0.94962680415E+02 -0.46183927769E+03  0.47835620998E+03  0.80692175650E+02 0.  0.
          5    1    3    3  501    0  0.78588254408E+02 -0.69633774381E+02 -0.34068869177E+03  0.35653309940E+03  0.47000000000E+01 0. -1.
        -11    1    4    4    0    0 -0.30246860130E+02  0.18717443723E+02 -0.11224431973E+03  0.11774549910E+03  0.00000000000E+00 0.  1.
         12    1    4    4    0    0 -0.23813404107E+02 -0.56901080226E+02 -0.41719736648E+03  0.42173268043E+03  0.00000000000E+00 0. -1.
         -5    1    5    5    0  502 -0.24442378715E+02  0.12854730469E+02  0.14110558963E+00  0.28013994422E+02  0.47000000000E+01 0.  1.
         13    1    6    6    0    0  0.15952798282E+02  0.90113289401E+02 -0.25653665875E+03  0.27237098594E+03  0.00000000000E+00 0. -1.
        -14    1    6    6    0    0 -0.16038409738E+02  0.48493910146E+01 -0.20530261894E+03  0.20598522405E+03  0.00000000000E+00 0.  1.
<mgrwt>
<rscale>  2 0.21232179E+03</rscale>
<asrwt>0</asrwt>
<pdfrwt beam="1">  1       21 0.54271498E-02 0.21379742E+03</pdfrwt>
<pdfrwt beam="2">  1       21 0.21032381E+00 0.21379742E+03</pdfrwt>
<totfact> 0.26615042E+04</totfact>
</mgrwt>
</event>
<event>
12    1  0.1074575E-001  0.1796989E+03  0.7546771E-02  0.1168101E+00
         21   -1    0    0  503  502  0.00000000000E+00  0.00000000000E+00  0.10945779535E+03  0.10945779535E+03  0.00000000000E+00 0.  1.
         21   -1    0    0  501  503 -0.00000000000E+00 -0.00000000000E+00 -0.30775455500E+03  0.30775455500E+03  0.00000000000E+00 0.  1.
          6    2    1    2  501    0  0.52291799785E+02 -0.80758929531E+01 -0.56643110090E+02  0.18841477769E+03  0.17173244935E+03 0.  0.
         24    2    3    3    0    0  0.89661175687E+01 -0.61070917690E+02 -0.62425293982E+02  0.11955905144E+03  0.81162806760E+02 0.  0.
         -6    2    1    2    0  502 -0.52291799785E+02  0.80758929531E+01 -0.14165364956E+03  0.22879757266E+03  0.17170591268E+03 0.  0.
        -24    2    5    5    0    0 -0.21258095665E+02 -0.30097762877E+02 -0.15283337811E+03  0.17812810333E+03  0.83748419512E+02 0.  0.
          5    1    3    3  501    0  0.43325682216E+02  0.52995024737E+02  0.57821838922E+01  0.68855726247E+02  0.47000000000E+01 0. -1.
        -13    1    4    4    0    0  0.19953370725E+02  0.26170512385E+01 -0.49794851531E+02  0.53707664253E+02  0.00000000000E+00 0.  1.
         14    1    4    4    0    0 -0.10987253157E+02 -0.63687968929E+02 -0.12630442451E+02  0.65851387189E+02  0.00000000000E+00 0. -1.
         -5    1    5    5    0  502 -0.31033704120E+02  0.38173655831E+02  0.11179728557E+02  0.50669469323E+02  0.47000000000E+01 0.  1.
         13    1    6    6    0    0  0.88751678508E+01  0.22741140597E+02 -0.18386031121E+02  0.30560991810E+02  0.00000000000E+00 0. -1.
        -14    1    6    6    0    0 -0.30133263515E+02 -0.52838903475E+02 -0.13444734699E+03  0.14756711152E+03  0.00000000000E+00 0.  1.
<mgrwt>
<rscale>  2 0.17969254E+03</rscale>
<asrwt>0</asrwt>
<pdfrwt beam="1">  1       21 0.16839661E-01 0.17969888E+03</pdfrwt>
<pdfrwt beam="2">  1       21 0.47346854E-01 0.17969888E+03</pdfrwt>
<totfact> 0.13605993E+05</totfact>
</mgrwt>
</event>
<event>
12    1  0.1074575E-001  0.1898497E+03  0.7546771E-02  0.1159072E+00
         21   -1    0    0  503  502  0.00000000000E+00  0.00000000000E+00  0.14088849187E+03  0.14088849187E+03  0.00000000000E+00 0.  1.
         21   -1    0    0  501  503 -0.00000000000E+00 -0.00000000000E+00 -0.41196760044E+03  0.41196760044E+03  0.00000000000E+00 0.  1.
          6    2    1    2  501    0 -0.48852394638E+02 -0.62145640241E+02 -0.30678189417E+03  0.35967846395E+03  0.17030804378E+03 0.  0.
         24    2    3    3    0    0 -0.86423513861E+02 -0.81356219974E+02 -0.24909803191E+03  0.28805337520E+03  0.82686511502E+02 0.  0.
         -6    2    1    2    0  502  0.48852394638E+02  0.62145640241E+02  0.35702785600E+02  0.19317762836E+03  0.17261016811E+03 0.  0.
        -24    2    5    5    0    0  0.42242962252E+02 -0.10238514801E+02  0.47894786892E+02  0.11932720254E+03  0.10027849027E+03 0.  0.
          5    1    3    3  501    0  0.37571119223E+02  0.19210579734E+02 -0.57683862257E+02  0.71625088749E+02  0.47000000000E+01 0. -1.
        -11    1    4    4    0    0 -0.42260720017E+02 -0.54245731801E+02 -0.57703789297E+02  0.89768007521E+02  0.00000000000E+00 0.  1.
         12    1    4    4    0    0 -0.44162793844E+02 -0.27110488173E+02 -0.19139424261E+03  0.19828536768E+03  0.00000000000E+00 0. -1.
         -5    1    5    5    0  502  0.66094323861E+01  0.72384155041E+02 -0.12192001292E+02  0.73850425815E+02  0.47000000000E+01 0.  1.
         13    1    6    6    0    0  0.26012073877E+02 -0.54204065851E+01 -0.29732396150E+02  0.39875107220E+02  0.00000000000E+00 0. -1.
        -14    1    6    6    0    0  0.16230888375E+02 -0.48181082155E+01  0.77627183042E+02  0.79452095323E+02  0.00000000000E+00 0.  1.
<mgrwt>
<rscale>  2 0.18932487E+03</rscale>
<asrwt>0</asrwt>
<pdfrwt beam="1">  1       21 0.21675153E-01 0.18984970E+03</pdfrwt>
<pdfrwt beam="2">  1       21 0.63379631E-01 0.18984970E+03</pdfrwt>
<totfact> 0.45767951E+04</totfact>
</mgrwt>
</event>
<event>
12    1  0.1074575E-001  0.2231373E+03  0.7546771E-02  0.1132425E+00
         21   -1    0    0  501  502  0.00000000000E+00  0.00000000000E+00  0.58991783048E+03  0.58991783048E+03  0.00000000000E+00 0.  1.
         21   -1    0    0  502  503 -0.00000000000E+00 -0.00000000000E+00 -0.11232525755E+03  0.11232525755E+03  0.00000000000E+00 0. -1.
         -6    2    1    2    0  503  0.10806524797E+02 -0.14016254694E+03  0.56493282884E+02  0.22567737263E+03  0.16726166614E+03 0.  0.
        -24    2    3    3    0    0  0.56426465290E+02 -0.11281676543E+03  0.74126174668E+02  0.16944589025E+03  0.85473103405E+02 0.  0.
          6    2    1    2  501    0 -0.10806524797E+02  0.14016254694E+03  0.42109929005E+03  0.47656571540E+03  0.17328574226E+03 0.  0.
         24    2    5    5    0    0  0.21429143401E+02  0.13840053895E+03  0.41406153735E+03  0.44319113017E+03  0.73194970954E+02 0.  0.
          5    1    5    5  501    0 -0.32235668198E+02  0.17620079871E+01  0.70377526948E+01  0.33374585231E+02  0.47000000000E+01 0. -1.
        -11    1    6    6    0    0  0.27797432112E+02  0.14545671329E+03  0.39594524613E+03  0.42273276500E+03  0.00000000000E+00 0.  1.
         12    1    6    6    0    0 -0.63682887109E+01 -0.70561743413E+01  0.18116291225E+02  0.20458365164E+02  0.00000000000E+00 0. -1.
         -5    1    3    3    0  503 -0.45619940493E+02 -0.27345781509E+02 -0.17632891785E+02  0.56231482371E+02  0.47000000000E+01 0.  1.
         11    1    4    4    0    0  0.45110234689E+02 -0.86727038409E+02  0.87450759490E+01  0.98147790695E+02  0.00000000000E+00 0. -1.
        -12    1    4    4    0    0  0.11316230600E+02 -0.26089727023E+02  0.65381098719E+02  0.71298099560E+02  0.00000000000E+00 0.  1.
<mgrwt>
<rscale>  2 0.22196684E+03</rscale>
<asrwt>0</asrwt>
<pdfrwt beam="1">  1       21 0.90756588E-01 0.22313733E+03</pdfrwt>
<pdfrwt beam="2">  1       21 0.17280809E-01 0.22313733E+03</pdfrwt>
<totfact> 0.30677783E+04</totfact>
</mgrwt>
</event>
<event>
12    1  0.1074575E-001  0.3143501E+03  0.7546771E-02  0.1078323E+00
         21   -1    0    0  503  502  0.00000000000E+00  0.00000000000E+00  0.29223313573E+03  0.29223313573E+03  0.00000000000E+00 0.  1.
         21   -1    0    0  501  503 -0.00000000000E+00 -0.00000000000E+00 -0.38276788123E+03  0.38276788123E+03  0.00000000000E+00 0. -1.
          6    2    1    2  501    0 -0.25064905393E+03  0.77804198522E+02 -0.16099662960E+03  0.35285060139E+03  0.17235193824E+03 0.  0.
         24    2    3    3    0    0 -0.16957573494E+03 -0.17952941720E+02 -0.94803512531E+02  0.21091423640E+03  0.80117857753E+02 0.  0.
         -6    2    1    2    0  502  0.25064905393E+03 -0.77804198522E+02  0.70461884104E+02  0.32215041557E+03  0.17302477163E+03 0.  0.
        -24    2    5    5    0    0  0.26441763948E+03 -0.77609741372E+02  0.42743488845E+02  0.29084528504E+03  0.82607590254E+02 0.  0.
          5    1    3    3  501    0 -0.81073318984E+02  0.95757140242E+02 -0.66193117073E+02  0.14193636499E+03  0.47000000000E+01 0. -1.
        -13    1    4    4    0    0 -0.25026871838E+02 -0.47100278789E+01  0.14411863710E+02  0.29261416442E+02  0.00000000000E+00 0.  1.
         14    1    4    4    0    0 -0.14454886310E+03 -0.13242913841E+02 -0.10921537624E+03  0.18165281996E+03  0.00000000000E+00 0. -1.
         -5    1    5    5    0  502 -0.13768585552E+02 -0.19445714966E+00  0.27718395259E+02  0.31305130529E+02  0.47000000000E+01 0.  1.
         13    1    6    6    0    0  0.82874716502E+02 -0.14774898410E+02 -0.23893735951E+02  0.87506724747E+02  0.00000000000E+00 0. -1.
        -14    1    6    6    0    0  0.18154292298E+03 -0.62834842962E+02  0.66637224796E+02  0.20333856029E+03  0.00000000000E+00 0.  1.
<mgrwt>
<rscale>  2 0.31425764E+03</rscale>
<asrwt>0</asrwt>
<pdfrwt beam="1">  1       21 0.44958944E-01 0.31435014E+03</pdfrwt>
<pdfrwt beam="2">  1       21 0.58887366E-01 0.31435014E+03</pdfrwt>
<totfact> 0.12006544E+04</totfact>
</mgrwt>
</event>
<event>
12    1  0.1074575E-001  0.2016122E+03  0.7546771E-02  0.1148500E+00
         21   -1    0    0  501  502  0.00000000000E+00  0.00000000000E+00  0.37316711688E+03  0.37316711688E+03  0.00000000000E+00 0. -1.
         21   -1    0    0  502  503 -0.00000000000E+00 -0.00000000000E+00 -0.20768468574E+03  0.20768468574E+03  0.00000000000E+00 0. -1.
         -6    2    1    2    0  503  0.95237298677E+02 -0.39541643544E+02 -0.11788898702E+03  0.23307766044E+03  0.17260851051E+03 0.  0.
        -24    2    3    3    0    0  0.29595852366E+02 -0.26472178547E+02  0.93056063339E+01  0.89271662760E+02  0.79411238174E+02 0.  0.
          6    2    1    2  501    0 -0.95237298677E+02  0.39541643544E+02  0.28337141817E+03  0.34777414218E+03  0.17324493847E+03 0.  0.
         24    2    5    5    0    0  0.16602156253E+02  0.39257264599E+01  0.14310436683E+03  0.16481651616E+03  0.79966125785E+02 0.  0.
          5    1    5    5  501    0 -0.11183945493E+03  0.35615917084E+02  0.14026705133E+03  0.18295762602E+03  0.47000000000E+01 0. -1.
        -11    1    6    6    0    0  0.71855055460E+01 -0.21960425986E+02  0.45491056666E+01  0.23549653114E+02  0.00000000000E+00 0.  1.
         12    1    6    6    0    0  0.94166507068E+01  0.25886152445E+02  0.13855526117E+03  0.14126686305E+03  0.00000000000E+00 0. -1.
         -5    1    3    3    0  503  0.65641446311E+02 -0.13069464997E+02 -0.12719459336E+03  0.14380599768E+03  0.47000000000E+01 0.  1.
         11    1    4    4    0    0  0.70930659353E+01  0.22783145119E+02 -0.16773069597E+02  0.29167090181E+02  0.00000000000E+00 0. -1.
        -12    1    4    4    0    0  0.22502786431E+02 -0.49255323666E+02  0.26078675931E+02  0.60104572579E+02  0.00000000000E+00 0.  1.
<mgrwt>
<rscale>  2 0.20147544E+03</rscale>
<asrwt>0</asrwt>
<pdfrwt beam="1">  1       21 0.57410326E-01 0.20161224E+03</pdfrwt>
<pdfrwt beam="2">  1       21 0.31951490E-01 0.20161224E+03</pdfrwt>
<totfact> 0.26690293E+04</totfact>
</mgrwt>
</event>
<event>
12    1  0.1074575E-001  0.1901657E+03  0.7546771E-02  0.1158644E+00
         21   -1    0    0  501  502  0.00000000000E+00  0.00000000000E+00  0.61525333522E+02  0.61525333522E+02  0.00000000000E+00 0. -1.
         21   -1    0    0  502  503 -0.00000000000E+00 -0.00000000000E+00 -0.58798205911E+03  0.58798205911E+03  0.00000000000E+00 0. -1.
         -6    2    1    2    0  503 -0.23172738213E+02 -0.75582502305E+02 -0.23509616065E+03  0.30237925507E+03  0.17295467237E+03 0.  0.
        -24    2    3    3    0    0  0.52768203184E+02 -0.53369799584E+02 -0.15728093688E+03  0.19130392121E+03  0.78911839350E+02 0.  0.
          6    2    1    2  501    0  0.23172738213E+02  0.75582502305E+02 -0.29136056493E+03  0.34712813756E+03  0.17133964700E+03 0.  0.
         24    2    5    5    0    0  0.37914180894E+02 -0.15188333902E+02 -0.96780870106E+02  0.13186085607E+03  0.79703061085E+02 0.  0.
          5    1    5    5  501    0 -0.14741442681E+02  0.90770836207E+02 -0.19457969483E+03  0.21526728148E+03  0.47000000000E+01 0. -1.
        -11    1    6    6    0    0  0.23945537681E+02  0.18620199170E+02 -0.21540888134E+01  0.30409549332E+02  0.00000000000E+00 0.  1.
         12    1    6    6    0    0  0.13968643213E+02 -0.33808533072E+02 -0.94626781293E+02  0.10145130674E+03  0.00000000000E+00 0. -1.
         -5    1    3    3    0  503 -0.75940941397E+02 -0.22212702721E+02 -0.77815223775E+02  0.11107533387E+03  0.47000000000E+01 0.  1.
         13    1    4    4    0    0  0.36943376204E+02  0.13843289822E+02 -0.49458867494E+02  0.63266336169E+02  0.00000000000E+00 0. -1.
        -14    1    4    4    0    0  0.15824826980E+02 -0.67213089406E+02 -0.10782206938E+03  0.12803758504E+03  0.00000000000E+00 0.  1.
<mgrwt>
<rscale>  2 0.18979776E+03</rscale>
<asrwt>0</asrwt>
<pdfrwt beam="1">  1       21 0.94654358E-02 0.19016574E+03</pdfrwt>
<pdfrwt beam="2">  1       21 0.90458780E-01 0.19016574E+03</pdfrwt>
<totfact> 0.92919307E+04</totfact>
</mgrwt>
</event>
<event>
12    1  0.1074575E-001  0.1861304E+03  0.7546771E-02  0.1163409E+00
         21   -1    0    0  501  502  0.00000000000E+00  0.00000000000E+00  0.38562006254E+03  0.38562006254E+03  0.00000000000E+00 0. -1.
         21   -1    0    0  502  503 -0.00000000000E+00 -0.00000000000E+00 -0.25148317715E+03  0.25148317715E+03  0.00000000000E+00 0. -1.
         -6    2    1    2    0  503 -0.40786496386E+02 -0.29506469139E+02 -0.19018329283E+03  0.26610936352E+03  0.17919357822E+03 0.  0.
        -24    2    3    3    0    0  0.45088668073E+02 -0.41359615502E+02 -0.95657628580E+02  0.13776516945E+03  0.78008039495E+02 0.  0.
          6    2    1    2  501    0  0.40786496386E+02  0.29506469139E+02  0.32432017822E+03  0.37099387617E+03  0.17297025221E+03 0.  0.
         24    2    5    5    0    0 -0.22132421508E+01  0.59901795447E+02  0.11725866689E+03  0.15728984521E+03  0.86008004905E+02 0.  0.
          5    1    5    5  501    0  0.42999738537E+02 -0.30395326308E+02  0.20706151133E+03  0.21370403096E+03  0.47000000000E+01 0. -1.
        -13    1    6    6    0    0 -0.42319496136E+02  0.24952977959E+02  0.73502232287E+02  0.88409100286E+02  0.00000000000E+00 0.  1.
         14    1    6    6    0    0  0.40106253985E+02  0.34948817488E+02  0.43756434601E+02  0.68880744926E+02  0.00000000000E+00 0. -1.
         -5    1    3    3    0  503 -0.85875164459E+02  0.11853146363E+02 -0.94525664249E+02  0.12834419407E+03  0.47000000000E+01 0.  1.
         11    1    4    4    0    0 -0.92055061459E+01  0.20536055559E+01 -0.57886619928E+02  0.58649973622E+02  0.00000000000E+00 0. -1.
        -12    1    4    4    0    0  0.54294174219E+02 -0.43413221058E+02 -0.37771008651E+02  0.79115195831E+02  0.00000000000E+00 0.  1.
<mgrwt>
<rscale>  2 0.18461609E+03</rscale>
<asrwt>0</asrwt>
<pdfrwt beam="1">  1       21 0.59326164E-01 0.18613035E+03</pdfrwt>
<pdfrwt beam="2">  1       21 0.38689719E-01 0.18613035E+03</pdfrwt>
<totfact> 0.17169633E+04</totfact>
</mgrwt>
</event>
<event>
12    1  0.1074575E-001  0.2267497E+03  0.7546771E-02  0.1129197E+00
         21   -1    0    0  503  502  0.00000000000E+00  0.00000000000E+00  0.37169876659E+03  0.37169876659E+03  0.00000000000E+00 0.  1.
         21   -1    0    0  501  503 -0.00000000000E+00 -0.00000000000E+00 -0.14078289515E+03  0.14078289515E+03  0.00000000000E+00 0. -1.
          6    2    1    2  501    0  0.14482575221E+03 -0.56764437073E+01  0.15502547545E+03  0.27467860354E+03  0.17438095276E+03 0.  0.
         24    2    3    3    0    0  0.10233410271E+03 -0.67416617004E+02  0.62264366715E+02  0.15532994385E+03  0.72341352403E+02 0.  0.
         -6    2    1    2    0  502 -0.14482575221E+03  0.56764437073E+01  0.75890395984E+02  0.23780305820E+03  0.17258105854E+03 0.  0.
        -24    2    5    5    0    0 -0.82897712113E+02 -0.60974280859E+02  0.25172896521E+02  0.13353534513E+03  0.81290344326E+02 0.  0.
          5    1    3    3  501    0  0.42491649500E+02  0.61740173297E+02  0.92761108738E+02  0.11934865969E+03  0.47000000000E+01 0. -1.
        -13    1    4    4    0    0  0.30667403913E+02  0.21181302378E+01  0.44222481465E+02  0.53857255828E+02  0.00000000000E+00 0.  1.
         14    1    4    4    0    0  0.71666698800E+02 -0.69534747242E+02  0.18041885251E+02  0.10147268802E+03  0.00000000000E+00 0. -1.
         -5    1    5    5    0  502 -0.61928040101E+02  0.66650724566E+02  0.50717499463E+02  0.10426771306E+03  0.47000000000E+01 0.  1.
         13    1    6    6    0    0 -0.96144011250E+02 -0.49723774681E+02  0.71176534807E+01  0.10847481578E+03  0.00000000000E+00 0. -1.
        -14    1    6    6    0    0  0.13246299137E+02 -0.11250506178E+02  0.18055243040E+02  0.25060529351E+02  0.00000000000E+00 0.  1.
<mgrwt>
<rscale>  2 0.22640362E+03</rscale>
<asrwt>0</asrwt>
<pdfrwt beam="1">  1       21 0.57184425E-01 0.22674972E+03</pdfrwt>
<pdfrwt beam="2">  1       21 0.21658907E-01 0.22674972E+03</pdfrwt>
<totfact> 0.56208037E+04</totfact>
</mgrwt>
</event>
<event>
12    1  0.1074575E-001  0.1881230E+03  0.7546771E-02  0.1160368E+00
         21   -1    0    0  501  502  0.00000000000E+00  0.00000000000E+00  0.52946495002E+03  0.52946495002E+03  0.00000000000E+00 0.  1.
         21   -1    0    0  502  503 -0.00000000000E+00 -0.00000000000E+00 -0.14819262095E+03  0.14819262095E+03  0.00000000000E+00 0. -1.
         -6    2    1    2    0  503 -0.51409479247E+02  0.51343717875E+02 -0.60689237136E+02  0.19767000984E+03  0.17352561011E+03 0.  0.
        -24    2    3    3    0    0 -0.72397299061E+02 -0.23097613792E+02 -0.36745294556E+02  0.11656882102E+03  0.80394058791E+02 0.  0.
          6    2    1    2  501    0  0.51409479247E+02 -0.51343717875E+02  0.44196156620E+03  0.47998756113E+03  0.17256570029E+03 0.  0.
         24    2    5    5    0    0  0.10604456668E+02  0.34775234728E+02  0.28158868637E+03  0.29337814429E+03  0.73869992606E+02 0.  0.
          5    1    5    5  501    0  0.40805022579E+02 -0.86118952603E+02  0.16037287984E+03  0.18660941684E+03  0.47000000000E+01 0. -1.
        -11    1    6    6    0    0  0.22385852831E+02  0.23836723935E+02  0.27337714303E+03  0.27532594892E+03  0.00000000000E+00 0.  1.
         12    1    6    6    0    0 -0.11781396163E+02  0.10938510793E+02  0.82115433333E+01  0.18052195375E+02  0.00000000000E+00 0. -1.
         -5    1    3    3    0  503  0.20987819814E+02  0.74441331667E+02 -0.23943942579E+02  0.81101188815E+02  0.47000000000E+01 0.  1.
         11    1    4    4    0    0 -0.35043375647E+02 -0.76433969868E+01 -0.60021708469E+02  0.69921850532E+02  0.00000000000E+00 0. -1.
        -12    1    4    4    0    0 -0.37353923414E+02 -0.15454216806E+02  0.23276413913E+02  0.46646970493E+02  0.00000000000E+00 0.  1.
<mgrwt>
<rscale>  2 0.18790131E+03</rscale>
<asrwt>0</asrwt>
<pdfrwt beam="1">  1       21 0.81456145E-01 0.18812296E+03</pdfrwt>
<pdfrwt beam="2">  1       21 0.22798865E-01 0.18812296E+03</pdfrwt>
<totfact> 0.23888913E+04</totfact>
</mgrwt>
</event>
<event>
12    1  0.1074575E-001  0.1846251E+03  0.7546771E-02  0.1163799E+00
         21   -1    0    0  503  502  0.00000000000E+00  0.00000000000E+00  0.41333031380E+03  0.41333031380E+03  0.00000000000E+00 0. -1.
         21   -1    0    0  501  503 -0.00000000000E+00 -0.00000000000E+00 -0.86873445833E+03  0.86873445833E+03  0.00000000000E+00 0. -1.
          6    2    1    2  501    0  0.34277852730E+02  0.50002178757E+02 -0.83794111467E+03  0.85803947396E+03  0.17438818239E+03 0.  0.
         24    2    3    3    0    0  0.17276082207E+02 -0.41329666220E+02 -0.40913001695E+03  0.41925522899E+03  0.79880986109E+02 0.  0.
         -6    2    1    2    0  502 -0.34277852730E+02 -0.50002178757E+02  0.38253697014E+03  0.42402529817E+03  0.17259122486E+03 0.  0.
        -24    2    5    5    0    0 -0.58295375110E+02 -0.29141082702E+02  0.37779130103E+03  0.39151932818E+03  0.79457936933E+02 0.  0.
          5    1    3    3  501    0  0.17001770522E+02  0.91331844977E+02 -0.42881109772E+03  0.43878424497E+03  0.47000000000E+01 0. -1.
        -11    1    4    4    0    0 -0.25223896413E+02 -0.21045221085E+01 -0.56455053152E+02  0.61869596653E+02  0.00000000000E+00 0.  1.
         12    1    4    4    0    0  0.42499978620E+02 -0.39225144112E+02 -0.35267496379E+03  0.35738563234E+03  0.00000000000E+00 0. -1.
         -5    1    5    5    0  502  0.24017522380E+02 -0.20861096055E+02  0.47456691040E+01  0.32505969992E+02  0.47000000000E+01 0.  1.
         11    1    6    6    0    0  0.14546086659E+02 -0.25810486850E+02  0.97818257830E+02  0.10220656258E+03  0.00000000000E+00 0. -1.
        -12    1    6    6    0    0 -0.72841461769E+02 -0.33305958527E+01  0.27997304320E+03  0.28931276560E+03  0.00000000000E+00 0.  1.
<mgrwt>
<rscale>  2 0.18419954E+03</rscale>
<asrwt>0</asrwt>
<pdfrwt beam="1">  1       21 0.63589280E-01 0.18462510E+03</pdfrwt>
<pdfrwt beam="2">  1       21 0.13365145E+00 0.18462510E+03</pdfrwt>
<totfact> 0.92907126E+02</totfact>
</mgrwt>
</event>
<event>
12    1  0.1074575E-001  0.1834632E+03  0.7546771E-02  0.1164555E+00
         21   -1    0    0  503  502  0.00000000000E+00  0.00000000000E+00  0.29239240675E+03  0.29239240675E+03  0.00000000000E+00 0. -1.
         21   -1    0    0  501  503 -0.00000000000E+00 -0.00000000000E+00 -0.34318940245E+03  0.34318940245E+03  0.00000000000E+00 0. -1.
          6    2    1    2  501    0 -0.56250463187E+02 -0.25485222712E+02 -0.28456579246E+03  0.33858002565E+03  0.17275743789E+03 0.  0.
         24    2    3    3    0    0 -0.90321661883E+01  0.45452488132E+02 -0.11790894594E+03  0.15134135208E+03  0.82789954774E+02 0.  0.
         -6    2    1    2    0  502  0.56250463187E+02  0.25485222712E+02  0.23376879675E+03  0.29700178356E+03  0.17247781862E+03 0.  0.
        -24    2    5    5    0    0 -0.28665448085E+02 -0.45296876166E+01  0.17054767986E+03  0.18686275119E+03  0.70632504506E+02 0.  0.
          5    1    3    3  501    0 -0.47218296999E+02 -0.70937710843E+02 -0.16665684652E+03  0.18723867357E+03  0.47000000000E+01 0. -1.
        -13    1    4    4    0    0  0.90232036846E+01 -0.17708205967E+02 -0.46510822169E+01  0.20411548914E+02  0.00000000000E+00 0.  1.
         14    1    4    4    0    0 -0.18055369873E+02  0.63160694098E+02 -0.11325786373E+03  0.13092980316E+03  0.00000000000E+00 0. -1.
         -5    1    5    5    0  502  0.84915911272E+02  0.30014910328E+02  0.63221116890E+02  0.11013903236E+03  0.47000000000E+01 0.  1.
         13    1    6    6    0    0  0.39950033688E+00  0.25801862516E+02  0.27229346990E+02  0.37514437852E+02  0.00000000000E+00 0. -1.
        -14    1    6    6    0    0 -0.29064948421E+02 -0.30331550133E+02  0.14331833287E+03  0.14934831334E+03  0.00000000000E+00 0.  1.
<mgrwt>
<rscale>  2 0.18339734E+03</rscale>
<asrwt>0</asrwt>
<pdfrwt beam="1">  1       21 0.44983447E-01 0.18346319E+03</pdfrwt>
<pdfrwt beam="2">  1       21 0.52798369E-01 0.18346319E+03</pdfrwt>
<totfact> 0.16215157E+04</totfact>
</mgrwt>
</event>
<event>
12    1  0.1074575E-001  0.1749015E+03  0.7546771E-02  0.1173035E+00
         21   -1    0    0  501  502  0.00000000000E+00  0.00000000000E+00  0.35505853824E+02  0.35505853824E+02  0.00000000000E+00 0. -1.
         21   -1    0    0  502  503 -0.00000000000E+00 -0.00000000000E+00 -0.14360064030E+04  0.14360064030E+04  0.00000000000E+00 0. -1.
         -6    2    1    2    0  503  0.96215323656E+01 -0.17958183699E+02 -0.11662414166E+04  0.11791633639E+04  0.17289339721E+03 0.  0.
        -24    2    3    3    0    0 -0.33347012977E+01 -0.47475450276E+02 -0.11123963819E+04  0.11162307747E+04  0.79248933580E+02 0.  0.
          6    2    1    2  501    0 -0.96215323656E+01  0.17958183699E+02 -0.23425913261E+03  0.29234889293E+03  0.17371086246E+03 0.  0.
         24    2    5    5    0    0 -0.68474767956E+02 -0.14203540914E+02 -0.12633542413E+03  0.16519663490E+03  0.80241849249E+02 0.  0.
          5    1    5    5  501    0  0.58853235591E+02  0.32161724613E+02 -0.10792370848E+03  0.12715225803E+03  0.47000000000E+01 0. -1.
        -13    1    6    6    0    0 -0.16285721557E+02 -0.32823472812E+02 -0.12715679412E+02  0.38785223951E+02  0.00000000000E+00 0.  1.
         14    1    6    6    0    0 -0.52189046399E+02  0.18619931898E+02 -0.11361974472E+03  0.12641141095E+03  0.00000000000E+00 0. -1.
         -5    1    3    3    0  503  0.12956233663E+02  0.29517266577E+02 -0.53845034731E+02  0.62932589189E+02  0.47000000000E+01 0.  1.
         13    1    4    4    0    0  0.22198169174E+02 -0.49776867132E+02 -0.97105065747E+03  0.97257898115E+03  0.00000000000E+00 0. -1.
        -14    1    4    4    0    0 -0.25532870472E+02  0.23014168553E+01 -0.14134572439E+03  0.14365179357E+03  0.00000000000E+00 0.  1.
<mgrwt>
<rscale>  2 0.17469818E+03</rscale>
<asrwt>0</asrwt>
<pdfrwt beam="1">  1       21 0.54624385E-02 0.17490150E+03</pdfrwt>
<pdfrwt beam="2">  1       21 0.22092408E+00 0.17490150E+03</pdfrwt>
<totfact> 0.23314584E+04</totfact>
</mgrwt>
</event>
<event>
12    1  0.1074575E-001  0.1800715E+03  0.7546771E-02  0.1168048E+00
         21   -1    0    0  503  502  0.00000000000E+00  0.00000000000E+00  0.43723250100E+03  0.43723250100E+03  0.00000000000E+00 0. -1.
         21   -1    0    0  501  503 -0.00000000000E+00 -0.00000000000E+00 -0.82097143725E+02  0.82097143725E+02  0.00000000000E+00 0. -1.
          6    2    1    2  501    0 -0.38580228965E+02 -0.34355601724E+02  0.94746390734E+02  0.20347631050E+03  0.17250214185E+03 0.  0.
         24    2    3    3    0    0 -0.28342637754E+02  0.40130156746E+02  0.22778139639E+02  0.99291591592E+02  0.83224046526E+02 0.  0.
         -6    2    1    2    0  502  0.38580228965E+02  0.34355601724E+02  0.26038896654E+03  0.31585333422E+03  0.17114956443E+03 0.  0.
        -24    2    5    5    0    0  0.88933282223E+01  0.66676615564E+01  0.40408568584E+02  0.92109284934E+02  0.82022673442E+02 0.  0.
          5    1    3    3  501    0 -0.10237591211E+02 -0.74485758470E+02  0.71968251095E+02  0.10418471891E+03  0.47000000000E+01 0. -1.
        -13    1    4    4    0    0  0.13309081579E+02 -0.63759683268E+01  0.32887634514E+02  0.36046929530E+02  0.00000000000E+00 0.  1.
         14    1    4    4    0    0 -0.41651719333E+02  0.46506125073E+02 -0.10109494875E+02  0.63244662062E+02  0.00000000000E+00 0. -1.
         -5    1    5    5    0  502  0.29686900743E+02  0.27687940168E+02  0.21998039796E+03  0.22374404929E+03  0.47000000000E+01 0.  1.
         13    1    6    6    0    0  0.28251118259E+02 -0.28602901921E+02  0.93322780873E+01  0.41271577333E+02  0.00000000000E+00 0. -1.
        -14    1    6    6    0    0 -0.19357790037E+02  0.35270563477E+02  0.31076290496E+02  0.50837707601E+02  0.00000000000E+00 0.  1.
<mgrwt>
<rscale>  2 0.17974676E+03</rscale>
<asrwt>0</asrwt>
<pdfrwt beam="1">  1       21 0.67266537E-01 0.18007146E+03</pdfrwt>
<pdfrwt beam="2">  1       21 0.12630330E-01 0.18007146E+03</pdfrwt>
<totfact> 0.10878452E+05</totfact>
</mgrwt>
</event>
<event>
12    1  0.1074575E-001  0.2242545E+03  0.7546771E-02  0.1131035E+00
         21   -1    0    0  503  502  0.00000000000E+00  0.00000000000E+00  0.37339801145E+03  0.37339801145E+03  0.00000000000E+00 0. -1.
         21   -1    0    0  501  503 -0.00000000000E+00 -0.00000000000E+00 -0.15025183840E+03  0.15025183840E+03  0.00000000000E+00 0.  1.
          6    2    1    2  501    0  0.14040432945E+03 -0.21151969451E+02  0.25143338750E+02  0.22565963075E+03  0.17357793617E+03 0.  0.
         24    2    3    3    0    0  0.15478870348E+03 -0.57822532525E+02  0.14408522718E+02  0.18456259086E+03  0.80949097745E+02 0.  0.
         -6    2    1    2    0  502 -0.14040432945E+03  0.21151969451E+02  0.19800283430E+03  0.29799021910E+03  0.17155834794E+03 0.  0.
        -24    2    5    5    0    0 -0.20679403129E+02 -0.96842359234E+01  0.13599620346E+03  0.15960003949E+03  0.80347888024E+02 0.  0.
          5    1    3    3  501    0 -0.14384374028E+02  0.36670563075E+02  0.10734816032E+02  0.41097039889E+02  0.47000000000E+01 0. -1.
        -13    1    4    4    0    0  0.11300915555E+03 -0.75890578321E+02 -0.20988682301E+01  0.13614277199E+03  0.00000000000E+00 0.  1.
         14    1    4    4    0    0  0.41779547923E+02  0.18068045795E+02  0.16507390948E+02  0.48419818870E+02  0.00000000000E+00 0. -1.
         -5    1    5    5    0  502 -0.11972492632E+03  0.30836205374E+02  0.62006630840E+02  0.13839017961E+03  0.47000000000E+01 0.  1.
         11    1    6    6    0    0 -0.32450428813E+02  0.18416262315E+02  0.26037699158E+02  0.45498910155E+02  0.00000000000E+00 0. -1.
        -12    1    6    6    0    0  0.11771025684E+02 -0.28100498239E+02  0.10995850430E+03  0.11410112933E+03  0.00000000000E+00 0.  1.
<mgrwt>
<rscale>  2 0.22386360E+03</rscale>
<asrwt>0</asrwt>
<pdfrwt beam="1">  1       21 0.57445848E-01 0.22425450E+03</pdfrwt>
<pdfrwt beam="2">  1       21 0.23115668E-01 0.22425450E+03</pdfrwt>
<totfact> 0.49255760E+04</totfact>
</mgrwt>
</event>
<event>
12    1  0.1074575E-001  0.2478014E+03  0.7546771E-02  0.1114760E+00
         21   -1    0    0  501  502  0.00000000000E+00  0.00000000000E+00  0.12782958096E+04  0.12782958096E+04  0.00000000000E+00 0. -1.
         21   -1    0    0  502  503 -0.00000000000E+00 -0.00000000000E+00 -0.84538851001E+02  0.84538851001E+02  0.00000000000E+00 0. -1.
         -6    2    1    2    0  503  0.42174726534E+02  0.17153642744E+03  0.14844147912E+03  0.28854884793E+03  0.17326889917E+03 0.  0.
        -24    2    3    3    0    0  0.20844478761E+02  0.19589127026E+03  0.11636050593E+03  0.24272945597E+03  0.81055162673E+02 0.  0.
          6    2    1    2  501    0 -0.42174726534E+02 -0.17153642744E+03  0.10453154795E+04  0.10742858127E+04  0.17378752021E+03 0.  0.
         24    2    5    5    0    0 -0.42833235731E+02 -0.11056913158E+03  0.33141429913E+03  0.35777033475E+03  0.64062124679E+02 0.  0.
          5    1    5    5  501    0  0.65850919699E+00 -0.60967295852E+02  0.71390118037E+03  0.71651547794E+03  0.47000000000E+01 0. -1.
        -11    1    6    6    0    0 -0.27943259501E+02 -0.45053220204E+02  0.69708868379E+02  0.87578220654E+02  0.00000000000E+00 0.  1.
         12    1    6    6    0    0 -0.14889976230E+02 -0.65515911379E+02  0.26170543075E+03  0.27019211410E+03  0.00000000000E+00 0. -1.
         -5    1    3    3    0  503  0.21330247773E+02 -0.24354842821E+02  0.32080973185E+02  0.45819391958E+02  0.47000000000E+01 0.  1.
         11    1    4    4    0    0  0.11217011552E+02  0.16016474852E+03  0.52497226691E+02  0.16892165885E+03  0.00000000000E+00 0. -1.
        -12    1    4    4    0    0  0.96274672094E+01  0.35726521732E+02  0.63863279242E+02  0.73807797119E+02  0.00000000000E+00 0.  1.
<mgrwt>
<rscale>  2 0.24771053E+03</rscale>
<asrwt>0</asrwt>
<pdfrwt beam="1">  1       21 0.19666088E+00 0.24780144E+03</pdfrwt>
<pdfrwt beam="2">  1       21 0.13005978E-01 0.24780144E+03</pdfrwt>
<totfact> 0.68590200E+03</totfact>
</mgrwt>
</event>
<event>
12    1  0.1074575E-001  0.2003468E+03  0.7546771E-02  0.1152895E+00
         21   -1    0    0  503  502  0.00000000000E+00  0.00000000000E+00  0.27916848717E+03  0.27916848717E+03  0.00000000000E+00 0. -1.
         21   -1    0    0  501  503 -0.00000000000E+00 -0.00000000000E+00 -0.22149591175E+03  0.22149591175E+03  0.00000000000E+00 0. -1.
          6    2    1    2  501    0  0.19358072518E+02  0.43551291187E+02 -0.12884403116E+03  0.23820080464E+03  0.19459544966E+03 0.  0.
         24    2    3    3    0    0 -0.65392372618E+02  0.31347120032E+02 -0.10183973001E+03  0.14829584357E+03  0.79759151696E+02 0.  0.
         -6    2    1    2    0  502 -0.19358072518E+02 -0.43551291187E+02  0.18651660659E+03  0.26246359428E+03  0.17840191662E+03 0.  0.
        -24    2    5    5    0    0 -0.35566689268E+02  0.15222116115E+00  0.19783774803E+02  0.89273977263E+02  0.79457112420E+02 0.  0.
          5    1    3    3  501    0  0.84750445137E+02  0.12204171155E+02 -0.27004301150E+02  0.89904961070E+02  0.47000000000E+01 0. -1.
        -13    1    4    4    0    0 -0.62331564018E+02 -0.11697404835E+02 -0.49437609352E+02  0.80412252619E+02  0.00000000000E+00 0.  1.
         14    1    4    4    0    0 -0.30608086003E+01  0.43044524867E+02 -0.52402120659E+02  0.67883590947E+02  0.00000000000E+00 0. -1.
         -5    1    5    5    0  502  0.16208616749E+02 -0.43703512348E+02  0.16673283179E+03  0.17318961702E+03  0.47000000000E+01 0.  1.
         13    1    6    6    0    0  0.70268231313E+01 -0.13487197373E+02  0.38040008941E+02  0.40967340852E+02  0.00000000000E+00 0. -1.
        -14    1    6    6    0    0 -0.42593512399E+02  0.13639418534E+02 -0.18256234138E+02  0.48306636411E+02  0.00000000000E+00 0.  1.
<mgrwt>
<rscale>  2 0.19630394E+03</rscale>
<asrwt>0</asrwt>
<pdfrwt beam="1">  1       21 0.42948998E-01 0.20034680E+03</pdfrwt>
<pdfrwt beam="2">  1       21 0.34076294E-01 0.20034680E+03</pdfrwt>
<totfact> 0.43091516E+04</totfact>
</mgrwt>
</event>
<event>
12    1  0.1074575E-001  0.1790978E+03  0.7546771E-02  0.1169022E+00
         21   -1    0    0  501  502  0.00000000000E+00  0.00000000000E+00  0.34019725217E+03  0.34019725217E+03  0.00000000000E+00 0. -1.
         21   -1    0    0  502  503 -0.00000000000E+00 -0.00000000000E+00 -0.10628239520E+03  0.10628239520E+03  0.00000000000E+00 0. -1.
         -6    2    1    2    0  503  0.32641168875E+02  0.25148530663E+02  0.19381948198E+03  0.26294853913E+03  0.17285267755E+03 0.  0.
        -24    2    3    3    0    0  0.49063709584E+02 -0.39173123220E+02  0.15604013194E+03  0.18642178374E+03  0.80391401873E+02 0.  0.
          6    2    1    2  501    0 -0.32641168875E+02 -0.25148530663E+02  0.40095374998E+02  0.18353110824E+03  0.17429324168E+03 0.  0.
         24    2    5    5    0    0 -0.18144312621E+02 -0.81907161735E+02  0.10680602955E+02  0.11781185796E+03  0.82021700624E+02 0.  0.
          5    1    5    5  501    0 -0.14496856254E+02  0.56758631072E+02  0.29414772043E+02  0.65719250276E+02  0.47000000000E+01 0. -1.
        -11    1    6    6    0    0  0.27892069284E+02 -0.77941623181E+01  0.97559414581E+01  0.30559693862E+02  0.00000000000E+00 0.  1.
         12    1    6    6    0    0 -0.46036381906E+02 -0.74112999417E+02  0.92466149696E+00  0.87252164102E+02  0.00000000000E+00 0. -1.
         -5    1    3    3    0  503 -0.16422540709E+02  0.64321653882E+02  0.37779350042E+02  0.76526755394E+02  0.47000000000E+01 0.  1.
         13    1    4    4    0    0  0.11879712491E+02 -0.41016036983E+02  0.23477008790E+02  0.48729998978E+02  0.00000000000E+00 0. -1.
        -14    1    4    4    0    0  0.37183997093E+02  0.18429137637E+01  0.13256312315E+03  0.13769178476E+03  0.00000000000E+00 0.  1.
<mgrwt>
<rscale>  2 0.17874638E+03</rscale>
<asrwt>0</asrwt>
<pdfrwt beam="1">  1       21 0.52338038E-01 0.17909782E+03</pdfrwt>
<pdfrwt beam="2">  1       21 0.16351138E-01 0.17909782E+03</pdfrwt>
<totfact> 0.11660642E+05</totfact>
</mgrwt>
</event>
<event>
12    1  0.1074575E-001  0.3037841E+03  0.7546771E-02  0.1083976E+00
         21   -1    0    0  501  502  0.00000000000E+00  0.00000000000E+00  0.76904423075E+03  0.76904423075E+03  0.00000000000E+00 0.  1.
         21   -1    0    0  502  503 -0.00000000000E+00 -0.00000000000E+00 -0.94809982638E+03  0.94809982638E+03  0.00000000000E+00 0.  1.
         -6    2    1    2    0  503 -0.21701639594E+03 -0.11145257197E+03 -0.89277313809E+03  0.94146531743E+03  0.17261308155E+03 0.  0.
        -24    2    3    3    0    0 -0.15111229893E+03 -0.13337350411E+03 -0.77360990212E+03  0.80345863615E+03  0.80312395539E+02 0.  0.
          6    2    1    2  501    0  0.21701639594E+03  0.11145257197E+03  0.71371754246E+03  0.77567873970E+03  0.18101653211E+03 0.  0.
         24    2    5    5    0    0  0.32548222883E+02  0.70786975591E+02  0.30941446404E+03  0.32939938008E+03  0.81831890573E+02 0.  0.
          5    1    5    5  501    0  0.18446817305E+03  0.40665596381E+02  0.40430307842E+03  0.44627935962E+03  0.47000000000E+01 0. -1.
        -13    1    6    6    0    0  0.54781781671E+02  0.26099831982E+02  0.20271975395E+03  0.21160704968E+03  0.00000000000E+00 0.  1.
         14    1    6    6    0    0 -0.22233558788E+02  0.44687143609E+02  0.10669471009E+03  0.11779233040E+03  0.00000000000E+00 0. -1.
         -5    1    3    3    0  503 -0.65904097008E+02  0.21920932133E+02 -0.11916323597E+03  0.13800668127E+03  0.47000000000E+01 0. -1.
         11    1    4    4    0    0 -0.61894091369E+02 -0.10662606774E+03 -0.46833033074E+03  0.48428637763E+03  0.00000000000E+00 0. -1.
        -12    1    4    4    0    0 -0.89218207558E+02 -0.26747436362E+02 -0.30527957138E+03  0.31917225852E+03  0.00000000000E+00 0.  1.
<mgrwt>
<rscale>  2 0.30254373E+03</rscale>
<asrwt>0</asrwt>
<pdfrwt beam="1">  1       21 0.11831450E+00 0.30378410E+03</pdfrwt>
<pdfrwt beam="2">  1       21 0.14586151E+00 0.30378410E+03</pdfrwt>
<totfact> 0.15680841E+02</totfact>
</mgrwt>
</event>
<event>
12    1  0.1074575E-001  0.2303941E+03  0.7546771E-02  0.1126644E+00
         21   -1    0    0  501  502  0.00000000000E+00  0.00000000000E+00  0.60452497996E+02  0.60452497996E+02  0.00000000000E+00 0.  1.
         21   -1    0    0  502  503 -0.00000000000E+00 -0.00000000000E+00 -0.13562390880E+04  0.13562390880E+04  0.00000000000E+00 0. -1.
         -6    2    1    2    0  503 -0.88142280230E+02  0.11939056718E+03 -0.10726082441E+04  0.10970733321E+04  0.17623359963E+03 0.  0.
        -24    2    3    3    0    0 -0.11524424669E+03  0.11000361103E+03 -0.66897193993E+03  0.69239199134E+03  0.80629910228E+02 0.  0.
          6    2    1    2  501    0  0.88142280230E+02 -0.11939056718E+03 -0.22317834589E+03  0.31961825386E+03  0.17413812056E+03 0.  0.
         24    2    5    5    0    0  0.85257946947E+02 -0.15587403755E+02 -0.65259417157E+02  0.13055769698E+03  0.72626689581E+02 0.  0.
          5    1    5    5  501    0  0.28843332836E+01 -0.10380316343E+03 -0.15791892873E+03  0.18906055688E+03  0.47000000000E+01 0. -1.
        -11    1    6    6    0    0  0.62660347297E+02 -0.25298851579E+02 -0.77604328922E+01  0.68018933638E+02  0.00000000000E+00 0.  1.
         12    1    6    6    0    0  0.22597599649E+02  0.97114478236E+01 -0.57498984264E+02  0.62538763341E+02  0.00000000000E+00 0. -1.
         -5    1    3    3    0  503  0.27101966458E+02  0.93869561591E+01 -0.40363630417E+03  0.40468134078E+03  0.47000000000E+01 0. -1.
         11    1    4    4    0    0  0.40071887591E-01  0.18297825957E+02 -0.19982688445E+03  0.20066289092E+03  0.00000000000E+00 0. -1.
        -12    1    4    4    0    0 -0.11528431858E+03  0.91705785068E+02 -0.46914505547E+03  0.49172910042E+03  0.00000000000E+00 0.  1.
<mgrwt>
<rscale>  2 0.22999335E+03</rscale>
<asrwt>0</asrwt>
<pdfrwt beam="1">  1       21 0.93003848E-02 0.23039412E+03</pdfrwt>
<pdfrwt beam="2">  1       21 0.20865216E+00 0.23039412E+03</pdfrwt>
<totfact> 0.10584497E+04</totfact>
</mgrwt>
</event>
<event>
12    1  0.1074575E-001  0.2292008E+03  0.7546771E-02  0.1127260E+00
         21   -1    0    0  503  502  0.00000000000E+00  0.00000000000E+00  0.20319578783E+03  0.20319578783E+03  0.00000000000E+00 0. -1.
         21   -1    0    0  501  503 -0.00000000000E+00 -0.00000000000E+00 -0.45729796286E+03  0.45729796286E+03  0.00000000000E+00 0. -1.
          6    2    1    2  501    0 -0.11672569497E+03  0.93929639480E+02 -0.34492410941E+03  0.41395443874E+03  0.17302592599E+03 0.  0.
         24    2    3    3    0    0 -0.51045421650E+02  0.11605480023E+03 -0.22220643646E+03  0.27293976470E+03  0.95110793404E+02 0.  0.
         -6    2    1    2    0  502  0.11672569497E+03 -0.93929639480E+02  0.90821934380E+02  0.24653931194E+03  0.17345127134E+03 0.  0.
        -24    2    5    5    0    0  0.46069085638E+02 -0.10722797479E+03  0.10045665326E+03  0.17384735935E+03  0.80691795993E+02 0.  0.
          5    1    3    3  501    0 -0.65680273318E+02 -0.22125160754E+02 -0.12271767294E+03  0.14101467404E+03  0.47000000000E+01 0. -1.
        -13    1    4    4    0    0 -0.15484431232E+02 -0.36764336351E+01  0.22492540463E+01  0.16073049449E+02  0.00000000000E+00 0.  1.
         14    1    4    4    0    0 -0.35560990418E+02  0.11973123387E+03 -0.22445569051E+03  0.25686671526E+03  0.00000000000E+00 0. -1.
         -5    1    5    5    0  502  0.70656609329E+02  0.13298335305E+02 -0.96347188799E+01  0.72691952593E+02  0.47000000000E+01 0.  1.
         13    1    6    6    0    0  0.22121628470E+02 -0.61175531455E+02  0.10306199168E+03  0.12187528964E+03  0.00000000000E+00 0. -1.
        -14    1    6    6    0    0  0.23947457168E+02 -0.46052443330E+02 -0.26053384252E+01  0.51972069709E+02  0.00000000000E+00 0.  1.
<mgrwt>
<rscale>  2 0.22912033E+03</rscale>
<asrwt>0</asrwt>
<pdfrwt beam="1">  1       21 0.31260891E-01 0.22920080E+03</pdfrwt>
<pdfrwt beam="2">  1       21 0.70353532E-01 0.22920080E+03</pdfrwt>
<totfact> 0.17633432E+04</totfact>
</mgrwt>
</event>
<event>
12    1  0.1074575E-001  0.1760570E+03  0.7546771E-02  0.1172173E+00
         21   -1    0    0  501  502  0.00000000000E+00  0.00000000000E+00  0.46342302157E+03  0.46342302157E+03  0.00000000000E+00 0. -1.
         21   -1    0    0  502  503 -0.00000000000E+00 -0.00000000000E+00 -0.13206785600E+03  0.13206785600E+03  0.00000000000E+00 0. -1.
         -6    2    1    2    0  503 -0.25819529263E+02  0.15469734998E+02 -0.45173468312E+02  0.17983493266E+03  0.17144678467E+03 0.  0.
        -24    2    3    3    0    0 -0.64980999002E+02 -0.28503512161E+02 -0.54393253066E+02  0.12004896768E+03  0.80113346109E+02 0.  0.
          6    2    1    2  501    0  0.25819529263E+02 -0.15469734998E+02  0.37652863388E+03  0.41565594492E+03  0.17346495790E+03 0.  0.
         24    2    5    5    0    0  0.23234467116E+02 -0.75203408940E+02  0.21137041281E+03  0.23994560846E+03  0.81859943990E+02 0.  0.
          5    1    5    5  501    0  0.25850621468E+01  0.59733673942E+02  0.16515822107E+03  0.17571033646E+03  0.47000000000E+01 0. -1.
        -13    1    6    6    0    0 -0.18705143465E+02 -0.22485990863E+02  0.13490218404E+03  0.13803659455E+03  0.00000000000E+00 0.  1.
         14    1    6    6    0    0  0.41939610581E+02 -0.52717418077E+02  0.76468228769E+02  0.10190901391E+03  0.00000000000E+00 0. -1.
         -5    1    3    3    0  503  0.39161469740E+02  0.43973247159E+02  0.92197847545E+01  0.59785964982E+02  0.47000000000E+01 0.  1.
         13    1    4    4    0    0 -0.22991046709E+02 -0.13308628707E+02 -0.68295565203E+02  0.73280229620E+02  0.00000000000E+00 0. -1.
        -14    1    4    4    0    0 -0.41989952294E+02 -0.15194883453E+02  0.13902312137E+02  0.46768738058E+02  0.00000000000E+00 0.  1.
<mgrwt>
<rscale>  2 0.17555781E+03</rscale>
<asrwt>0</asrwt>
<pdfrwt beam="1">  1       21 0.71295849E-01 0.17605696E+03</pdfrwt>
<pdfrwt beam="2">  1       21 0.20318132E-01 0.17605696E+03</pdfrwt>
<totfact> 0.40219374E+04</totfact>
</mgrwt>
</event>
<event>
12    1  0.1074575E-001  0.2006128E+03  0.7546771E-02  0.1150305E+00
         21   -1    0    0  503  502  0.00000000000E+00  0.00000000000E+00  0.96695443307E+03  0.96695443307E+03  0.00000000000E+00 0.  1.
         21   -1    0    0  501  503 -0.00000000000E+00 -0.00000000000E+00 -0.98236988021E+02  0.98236988021E+02  0.00000000000E+00 0.  1.
          6    2    1    2  501    0  0.89988398802E+02 -0.94270986111E+01  0.24025946728E+02  0.19700411042E+03  0.17333952607E+03 0.  0.
         24    2    3    3    0    0 -0.18593441342E+02  0.12508105857E+02  0.13811244082E+02  0.85659602901E+02  0.81514712371E+02 0.  0.
         -6    2    1    2    0  502 -0.89988398802E+02  0.94270986111E+01  0.84469149833E+03  0.86818731068E+03  0.17904942605E+03 0.  0.
        -24    2    5    5    0    0 -0.33272916565E+02 -0.63825888845E+02  0.48696323367E+03  0.49862777903E+03  0.79471001077E+02 0.  0.
          5    1    3    3  501    0  0.10858184014E+03 -0.21935204468E+02  0.10214702646E+02  0.11134450752E+03  0.47000000000E+01 0. -1.
        -11    1    4    4    0    0 -0.31144171112E+02 -0.17125038307E+02 -0.18489669014E+02  0.40063626789E+02  0.00000000000E+00 0.  1.
         12    1    4    4    0    0  0.12550729770E+02  0.29633144163E+02  0.32300913096E+02  0.45595976112E+02  0.00000000000E+00 0. -1.
         -5    1    5    5    0  502 -0.56715482237E+02  0.73252987456E+02  0.35772826465E+03  0.36955953164E+03  0.47000000000E+01 0.  1.
         11    1    6    6    0    0 -0.32795378475E+02 -0.48510342977E+02  0.14577957010E+03  0.15710020141E+03  0.00000000000E+00 0. -1.
        -12    1    6    6    0    0 -0.47753809078E+00 -0.15315545868E+02  0.34118366357E+03  0.34152757762E+03  0.00000000000E+00 0.  1.
<mgrwt>
<rscale>  2 0.19933072E+03</rscale>
<asrwt>0</asrwt>
<pdfrwt beam="1">  1       21 0.14876221E+00 0.20061276E+03</pdfrwt>
<pdfrwt beam="2">  1       21 0.15113383E-01 0.20061276E+03</pdfrwt>
<totfact> 0.11751290E+04</totfact>
</mgrwt>
</event>
<event>
12    1  0.1074575E-001  0.3125787E+03  0.7546771E-02  0.1079383E+00
         21   -1    0    0  503  502  0.00000000000E+00  0.00000000000E+00  0.31014897989E+03  0.31014897989E+03  0.00000000000E+00 0. -1.
         21   -1    0    0  501  503 -0.00000000000E+00 -0.00000000000E+00 -0.36668887276E+03  0.36668887276E+03  0.00000000000E+00 0.  1.
          6    2    1    2  501    0  0.23973212790E+03  0.94622075063E+02 -0.15794345339E+03  0.34822240202E+03  0.17288110528E+03 0.  0.
         24    2    3    3    0    0  0.12017849446E+03  0.45473585984E+01 -0.13378311195E+03  0.19652422169E+03  0.79122055527E+02 0.  0.
         -6    2    1    2    0  502 -0.23973212790E+03 -0.94622075063E+02  0.10140356052E+03  0.32861545063E+03  0.17686322984E+03 0.  0.
        -24    2    5    5    0    0 -0.17031392053E+03 -0.20063656312E+02  0.12078468711E+03  0.22481003945E+03  0.80877879352E+02 0.  0.
          5    1    3    3  501    0  0.11955363344E+03  0.90074716464E+02 -0.24160341444E+02  0.15169818032E+03  0.47000000000E+01 0. -1.
        -11    1    4    4    0    0  0.65967790860E+02  0.41725532484E+02 -0.67893707245E+02  0.10345204191E+03  0.00000000000E+00 0.  1.
         12    1    4    4    0    0  0.54210703597E+02 -0.37178173886E+02 -0.65889404700E+02  0.93072179784E+02  0.00000000000E+00 0. -1.
         -5    1    5    5    0  502 -0.69418207366E+02 -0.74558418751E+02 -0.19381126590E+02  0.10380541117E+03  0.47000000000E+01 0.  1.
         11    1    6    6    0    0 -0.43414125393E+02  0.22012571954E+02  0.68531238484E+01  0.49155924507E+02  0.00000000000E+00 0. -1.
        -12    1    6    6    0    0 -0.12689979514E+03 -0.42076228266E+02  0.11393156326E+03  0.17565411495E+03  0.00000000000E+00 0.  1.
<mgrwt>
<rscale>  2 0.31201823E+03</rscale>
<asrwt>0</asrwt>
<pdfrwt beam="1">  1       21 0.47715228E-01 0.31257868E+03</pdfrwt>
<pdfrwt beam="2">  1       21 0.56413673E-01 0.31257868E+03</pdfrwt>
<totfact> 0.11642676E+04</totfact>
</mgrwt>
</event>
<event>
12    1  0.1074575E-001  0.1960599E+03  0.7546771E-02  0.1153561E+00
         21   -1    0    0  501  502  0.00000000000E+00  0.00000000000E+00  0.12998026452E+03  0.12998026452E+03  0.00000000000E+00 0.  1.
         21   -1    0    0  502  503 -0.00000000000E+00 -0.00000000000E+00 -0.29888070257E+03  0.29888070257E+03  0.00000000000E+00 0. -1.
         -6    2    1    2    0  503  0.44481666980E+02 -0.76030524673E+02 -0.11600132798E+03  0.22780645990E+03  0.17515768811E+03 0.  0.
        -24    2    3    3    0    0 -0.23164892044E+02 -0.19777346111E+02 -0.10930426419E+03  0.13944686671E+03  0.81057083728E+02 0.  0.
          6    2    1    2  501    0 -0.44481666980E+02  0.76030524673E+02 -0.52899110072E+02  0.20105450719E+03  0.17281591257E+03 0.  0.
         24    2    5    5    0    0 -0.49517752625E+02  0.77854309595E+02  0.22602814483E+02  0.12521705627E+03  0.81578934855E+02 0.  0.
          5    1    5    5  501    0  0.50360856458E+01 -0.18237849218E+01 -0.75501924554E+02  0.75837450916E+02  0.47000000000E+01 0. -1.
        -13    1    6    6    0    0  0.31480795545E+01  0.58706001656E+02  0.34166693951E+02  0.67997558860E+02  0.00000000000E+00 0.  1.
         14    1    6    6    0    0 -0.52665832180E+02  0.19148307939E+02 -0.11563879468E+02  0.57219497415E+02  0.00000000000E+00 0. -1.
         -5    1    3    3    0  503  0.67646559023E+02 -0.56253178562E+02 -0.66970637854E+01  0.88359593193E+02  0.47000000000E+01 0.  1.
         13    1    4    4    0    0 -0.41677262411E+02 -0.40363852599E+02 -0.64284022665E+02  0.86594863409E+02  0.00000000000E+00 0. -1.
        -14    1    4    4    0    0  0.18512370368E+02  0.20586506488E+02 -0.45020241525E+02  0.52852003301E+02  0.00000000000E+00 0.  1.
<mgrwt>
<rscale>  2 0.19553546E+03</rscale>
<asrwt>0</asrwt>
<pdfrwt beam="1">  1       21 0.19996964E-01 0.19605988E+03</pdfrwt>
<pdfrwt beam="2">  1       21 0.45981646E-01 0.19605988E+03</pdfrwt>
<totfact> 0.10452512E+05</totfact>
</mgrwt>
</event>
<event>
12    1  0.1074575E-001  0.1792044E+03  0.7546771E-02  0.1168577E+00
         21   -1    0    0  501  502  0.00000000000E+00  0.00000000000E+00  0.16887124491E+03  0.16887124491E+03  0.00000000000E+00 0. -1.
         21   -1    0    0  502  503 -0.00000000000E+00 -0.00000000000E+00 -0.19140774693E+03  0.19140774693E+03  0.00000000000E+00 0. -1.
         -6    2    1    2    0  503 -0.36622482836E+02 -0.25191429540E+02  0.32525796366E+01  0.17923392965E+03  0.17360417014E+03 0.  0.
        -24    2    3    3    0    0 -0.77982492417E+02 -0.55751700196E+02  0.14901730775E+02  0.12629648300E+03  0.80865436625E+02 0.  0.
          6    2    1    2  501    0  0.36622482836E+02  0.25191429540E+02 -0.25789081653E+02  0.18104506219E+03  0.17359845460E+03 0.  0.
         24    2    5    5    0    0  0.27207598263E+02 -0.76745313091E+01 -0.80042335088E+02  0.11674640791E+03  0.80148590248E+02 0.  0.
          5    1    5    5  501    0  0.94148845726E+01  0.32865960849E+02  0.54253253434E+02  0.64298654280E+02  0.47000000000E+01 0. -1.
        -13    1    6    6    0    0  0.70507233214E+01 -0.41929971875E+02 -0.55936043299E+02  0.70261484334E+02  0.00000000000E+00 0.  1.
         14    1    6    6    0    0  0.20156874942E+02  0.34255440566E+02 -0.24106291789E+02  0.46484923573E+02  0.00000000000E+00 0. -1.
         -5    1    3    3    0  503  0.41360009581E+02  0.30560270656E+02 -0.11649151139E+02  0.52937446646E+02  0.47000000000E+01 0.  1.
         13    1    4    4    0    0 -0.14049700578E+02  0.17683296864E+02  0.18001102967E+02  0.28881357003E+02  0.00000000000E+00 0. -1.
        -14    1    4    4    0    0 -0.63932791839E+02 -0.73434997060E+02 -0.30993721919E+01  0.97415125999E+02  0.00000000000E+00 0.  1.
<mgrwt>
<rscale>  2 0.17920303E+03</rscale>
<asrwt>0</asrwt>
<pdfrwt beam="1">  1       21 0.25980192E-01 0.17920441E+03</pdfrwt>
<pdfrwt beam="2">  1       21 0.29447345E-01 0.17920441E+03</pdfrwt>
<totfact> 0.15614757E+05</totfact>
</mgrwt>
</event>
<event>
12    1  0.1074575E-001  0.2017103E+03  0.7546771E-02  0.1148470E+00
         21   -1    0    0  501  502  0.00000000000E+00  0.00000000000E+00  0.26891555683E+03  0.26891555683E+03  0.00000000000E+00 0.  1.
         21   -1    0    0  502  503 -0.00000000000E+00 -0.00000000000E+00 -0.15434545436E+03  0.15434545436E+03  0.00000000000E+00 0.  1.
         -6    2    1    2    0  503 -0.63928216914E+02  0.82319786711E+02  0.89669521769E+02  0.22001955752E+03  0.17176908440E+03 0.  0.
        -24    2    3    3    0    0 -0.51172318086E+02  0.13965423744E+02  0.11058199194E+03  0.14725656349E+03  0.81501407055E+02 0.  0.
          6    2    1    2  501    0  0.63928216914E+02 -0.82319786711E+02  0.24900580696E+02  0.20324145367E+03  0.17269535422E+03 0.  0.
         24    2    5    5    0    0 -0.21100452730E+02 -0.30018379550E+01  0.29391948473E+02  0.86779124822E+02  0.78819348725E+02 0.  0.
          5    1    5    5  501    0  0.85028669644E+02 -0.79317948756E+02 -0.44913677767E+01  0.11646232885E+03  0.47000000000E+01 0. -1.
        -13    1    6    6    0    0  0.47463263928E+01 -0.32670441646E+02  0.33724008862E+02  0.47193157823E+02  0.00000000000E+00 0.  1.
         14    1    6    6    0    0 -0.25846779123E+02  0.29668603691E+02 -0.43320603894E+01  0.39585966999E+02  0.00000000000E+00 0. -1.
         -5    1    3    3    0  503 -0.12755898828E+02  0.68354362967E+02 -0.20912470170E+02  0.72762994030E+02  0.47000000000E+01 0.  1.
         13    1    4    4    0    0 -0.52411816624E+02  0.16332369074E+02  0.22816309724E+02  0.59450221116E+02  0.00000000000E+00 0. -1.
        -14    1    4    4    0    0  0.12394985379E+01 -0.23669453300E+01  0.87765682215E+02  0.87806342377E+02  0.00000000000E+00 0.  1.
<mgrwt>
<rscale>  2 0.20151190E+03</rscale>
<asrwt>0</asrwt>
<pdfrwt beam="1">  1       21 0.41371624E-01 0.20171031E+03</pdfrwt>
<pdfrwt beam="2">  1       21 0.23745454E-01 0.20171031E+03</pdfrwt>
<totfact> 0.93642144E+04</totfact>
</mgrwt>
</event>
<event>
12    1  0.1074575E-001  0.2209141E+03  0.7546771E-02  0.1133352E+00
         21   -1    0    0  503  502  0.00000000000E+00  0.00000000000E+00  0.10958838242E+04  0.10958838242E+04  0.00000000000E+00 0.  1.
         21   -1    0    0  501  503 -0.00000000000E+00 -0.00000000000E+00 -0.10580796490E+03  0.10580796490E+03  0.00000000000E+00 0.  1.
          6    2    1    2  501    0  0.73676043537E+02 -0.11328829526E+03  0.37572342870E+02  0.22408645445E+03  0.17475886496E+03 0.  0.
         24    2    3    3    0    0  0.11255318281E+03 -0.11346789616E+03  0.44712452990E+02  0.18428023148E+03  0.80105042539E+02 0.  0.
         -6    2    1    2    0  502 -0.73676043537E+02  0.11328829526E+03  0.95250351641E+03  0.97760533463E+03  0.17374361652E+03 0.  0.
        -24    2    5    5    0    0 -0.89000501102E+02  0.73312554363E+02  0.41489437094E+03  0.43827372777E+03  0.81551833783E+02 0.  0.
          5    1    3    3  501    0 -0.38877139274E+02  0.17960089674E+00 -0.71401101207E+01  0.39806222970E+02  0.47000000000E+01 0. -1.
        -11    1    4    4    0    0  0.44779511151E+02 -0.49786500811E+02 -0.21262979569E+02  0.70256776058E+02  0.00000000000E+00 0.  1.
         12    1    4    4    0    0  0.67773671660E+02 -0.63681395348E+02  0.65975432559E+02  0.11402345542E+03  0.00000000000E+00 0. -1.
         -5    1    5    5    0  502  0.15324457565E+02  0.39975740900E+02  0.53760914547E+03  0.53933160685E+03  0.47000000000E+01 0.  1.
         13    1    6    6    0    0 -0.51432872497E+02  0.87149896698E+02  0.29835778996E+03  0.31505208411E+03  0.00000000000E+00 0. -1.
        -14    1    6    6    0    0 -0.37567628605E+02 -0.13837342335E+02  0.11653658098E+03  0.12322164367E+03  0.00000000000E+00 0.  1.
<mgrwt>
<rscale>  2 0.22071330E+03</rscale>
<asrwt>0</asrwt>
<pdfrwt beam="1">  1       21 0.16859750E+00 0.22091414E+03</pdfrwt>
<pdfrwt beam="2">  1       21 0.16278149E-01 0.22091414E+03</pdfrwt>
<totfact> 0.72115383E+03</totfact>
</mgrwt>
</event>
<event>
12    1  0.1074575E-001  0.4230707E+03  0.7546771E-02  0.1036076E+00
         21   -1    0    0  503  502  0.00000000000E+00  0.00000000000E+00  0.30035686688E+03  0.30035686688E+03  0.00000000000E+00 0. -1.
         21   -1    0    0  501  503 -0.00000000000E+00 -0.00000000000E+00 -0.88609262824E+03  0.88609262824E+03  0.00000000000E+00 0.  1.
          6    2    1    2  501    0 -0.38180594571E+03 -0.56468004112E+02  0.46640912036E+02  0.42563391853E+03  0.17327562512E+03 0.  0.
         24    2    3    3    0    0 -0.15720628964E+03 -0.29926656171E+02  0.79872774622E+02  0.19699469323E+03  0.82570132502E+02 0.  0.
         -6    2    1    2    0  502  0.38180594571E+03  0.56468004112E+02 -0.63237667340E+03  0.76081557658E+03  0.17313482854E+03 0.  0.
        -24    2    5    5    0    0  0.20751527138E+03  0.86249580883E+02 -0.28871839301E+03  0.37430906286E+03  0.79040407518E+02 0.  0.
          5    1    3    3  501    0 -0.22459965607E+03 -0.26541347941E+02 -0.33231862587E+02  0.22863922530E+03  0.47000000000E+01 0. -1.
        -11    1    4    4    0    0 -0.30914093730E+02 -0.43104887609E+02  0.21358624200E+02  0.57183068776E+02  0.00000000000E+00 0.  1.
         12    1    4    4    0    0 -0.12629219591E+03  0.13178231439E+02  0.58514150422E+02  0.13981162445E+03  0.00000000000E+00 0. -1.
         -5    1    5    5    0  502  0.17429067433E+03 -0.29781576771E+02 -0.34365828038E+03  0.38650651372E+03  0.47000000000E+01 0.  1.
         11    1    6    6    0    0 -0.40674071918E-01  0.20141466110E+02 -0.19911570441E+02  0.28322269487E+02  0.00000000000E+00 0. -1.
        -12    1    6    6    0    0  0.20755594545E+03  0.66108114773E+02 -0.26880682257E+03  0.34598679338E+03  0.00000000000E+00 0.  1.
<mgrwt>
<rscale>  2 0.42305634E+03</rscale>
<asrwt>0</asrwt>
<pdfrwt beam="1">  1       21 0.46208750E-01 0.42307075E+03</pdfrwt>
<pdfrwt beam="2">  1       21 0.13632194E+00 0.42307075E+03</pdfrwt>
<totfact> 0.14836477E+03</totfact>
</mgrwt>
</event>
<event>
12    1  0.1074575E-001  0.1892082E+03  0.7546771E-02  0.1159244E+00
         21   -1    0    0  501  502  0.00000000000E+00  0.00000000000E+00  0.44103176038E+02  0.44103176038E+02  0.00000000000E+00 0. -1.
         21   -1    0    0  502  503 -0.00000000000E+00 -0.00000000000E+00 -0.10161996292E+04  0.10161996292E+04  0.00000000000E+00 0. -1.
         -6    2    1    2    0  503 -0.49216597320E+02  0.60143437713E+02 -0.72428772456E+03  0.74851935647E+03  0.17218888612E+03 0.  0.
        -24    2    3    3    0    0 -0.44535340645E+02  0.50722178172E+02 -0.72865797065E+03  0.73619607175E+03  0.80536215065E+02 0.  0.
          6    2    1    2  501    0  0.49216597320E+02 -0.60143437713E+02 -0.24780872857E+03  0.31178344874E+03  0.17251158338E+03 0.  0.
         24    2    5    5    0    0 -0.23190405162E+02 -0.77633707610E+02 -0.14925154451E+03  0.18815379179E+03  0.81000236881E+02 0.  0.
          5    1    5    5  501    0  0.72407002482E+02  0.17490269897E+02 -0.98557184059E+02  0.12362965696E+03  0.47000000000E+01 0. -1.
        -13    1    6    6    0    0 -0.46170154658E+02 -0.57481797207E+02 -0.13629131893E+03  0.15495536069E+03  0.00000000000E+00 0.  1.
         14    1    6    6    0    0  0.22979749496E+02 -0.20151910403E+02 -0.12960225579E+02  0.33198431091E+02  0.00000000000E+00 0. -1.
         -5    1    3    3    0  503 -0.46812566752E+01  0.94212595409E+01  0.43702460904E+01  0.12323284720E+02  0.47000000000E+01 0.  1.
         13    1    4    4    0    0 -0.42950747065E+02 -0.93113480038E+01 -0.25706714928E+03  0.26079683110E+03  0.00000000000E+00 0. -1.
        -14    1    4    4    0    0 -0.15845935804E+01  0.60033526176E+02 -0.47159082137E+03  0.47539924064E+03  0.00000000000E+00 0.  1.
<mgrwt>
<rscale>  2 0.18913464E+03</rscale>
<asrwt>0</asrwt>
<pdfrwt beam="1">  1       21 0.67851044E-02 0.18920823E+03</pdfrwt>
<pdfrwt beam="2">  1       21 0.15633840E+00 0.18920823E+03</pdfrwt>
<totfact> 0.42843213E+04</totfact>
</mgrwt>
</event>
<event>
12    1  0.1074575E-001  0.2174317E+03  0.7546771E-02  0.1136793E+00
         21   -1    0    0  503  502  0.00000000000E+00  0.00000000000E+00  0.29278650167E+02  0.29278650167E+02  0.00000000000E+00 0.  1.
         21   -1    0    0  501  503 -0.00000000000E+00 -0.00000000000E+00 -0.17806493823E+04  0.17806493823E+04  0.00000000000E+00 0. -1.
          6    2    1    2  501    0  0.44725511327E+02  0.11655013159E+03 -0.56039030616E+03  0.59926254225E+03  0.17173815761E+03 0.  0.
         24    2    3    3    0    0 -0.36219388529E+02  0.86765673716E+02 -0.29962206120E+03  0.32456023371E+03  0.82011215735E+02 0.  0.
         -6    2    1    2    0  502 -0.44725511327E+02 -0.11655013159E+03 -0.11909804260E+04  0.12106654902E+04  0.17802317150E+03 0.  0.
        -24    2    5    5    0    0 -0.27932877308E+02 -0.15055994459E+03 -0.84074175232E+03  0.85834762455E+03  0.80407760394E+02 0.  0.
          5    1    3    3  501    0  0.80944899857E+02  0.29784457872E+02 -0.26076824496E+03  0.27470230855E+03  0.47000000000E+01 0. -1.
        -13    1    4    4    0    0  0.25902783525E+02  0.21307615597E+02 -0.64181918829E+02  0.72417452187E+02  0.00000000000E+00 0.  1.
         14    1    4    4    0    0 -0.62122172054E+02  0.65458058119E+02 -0.23544014237E+03  0.25214278152E+03  0.00000000000E+00 0. -1.
         -5    1    5    5    0  502 -0.16792634020E+02  0.34009812999E+02 -0.35023867369E+03  0.35231786569E+03  0.47000000000E+01 0.  1.
         11    1    6    6    0    0  0.56231614846E+01 -0.37941719577E+02 -0.41238119284E+03  0.41416113076E+03  0.00000000000E+00 0. -1.
        -12    1    6    6    0    0 -0.33556038792E+02 -0.11261822501E+03 -0.42836055948E+03  0.44418649379E+03  0.00000000000E+00 0.  1.
<mgrwt>
<rscale>  2 0.21614148E+03</rscale>
<asrwt>0</asrwt>
<pdfrwt beam="1">  1       21 0.45044083E-02 0.21743172E+03</pdfrwt>
<pdfrwt beam="2">  1       21 0.27394602E+00 0.21743172E+03</pdfrwt>
<totfact> 0.15127708E+04</totfact>
</mgrwt>
</event>
<event>
12    1  0.1074575E-001  0.1756056E+03  0.7546771E-02  0.1173332E+00
         21   -1    0    0  503  502  0.00000000000E+00  0.00000000000E+00  0.23810434200E+04  0.23810434200E+04  0.00000000000E+00 0.  1.
         21   -1    0    0  501  503 -0.00000000000E+00 -0.00000000000E+00 -0.12735260485E+02  0.12735260485E+02  0.00000000000E+00 0.  1.
          6    2    1    2  501    0  0.28241160703E+02  0.12911581205E+02  0.10459293855E+04  0.10597910623E+04  0.16800161928E+03 0.  0.
         24    2    3    3    0    0  0.29772268679E+02  0.66954865176E+02  0.81854623183E+03  0.82602149749E+03  0.83212010673E+02 0.  0.
         -6    2    1    2    0  502 -0.28241160703E+02 -0.12911581205E+02  0.13223787740E+04  0.13339876182E+04  0.17283828152E+03 0.  0.
        -24    2    5    5    0    0 -0.22152433831E+02 -0.65059845380E+01  0.30375373816E+03  0.31531340244E+03  0.81382738659E+02 0.  0.
          5    1    3    3  501    0 -0.15311079761E+01 -0.54043283971E+02  0.22738315368E+03  0.23376956477E+03  0.47000000000E+01 0. -1.
        -13    1    4    4    0    0 -0.36311675521E+01  0.11198718153E+02  0.53466619853E+03  0.53479579328E+03  0.00000000000E+00 0.  1.
         14    1    4    4    0    0  0.33403436231E+02  0.55756147023E+02  0.28388003330E+03  0.29122570421E+03  0.00000000000E+00 0. -1.
         -5    1    5    5    0  502 -0.60887268717E+01 -0.64055966668E+01  0.10186250358E+04  0.10186742158E+04  0.47000000000E+01 0.  1.
         13    1    6    6    0    0 -0.43163163831E+02 -0.42552028749E+01  0.28073764498E+03  0.28406828541E+03  0.00000000000E+00 0. -1.
        -14    1    6    6    0    0  0.21010729999E+02 -0.22507816631E+01  0.23016093178E+02  0.31245117033E+02  0.00000000000E+00 0.  1.
<mgrwt>
<rscale>  2 0.17440379E+03</rscale>
<asrwt>0</asrwt>
<pdfrwt beam="1">  1       21 0.36631402E+00 0.17560565E+03</pdfrwt>
<pdfrwt beam="2">  1       21 0.19592727E-02 0.17560565E+03</pdfrwt>
<totfact> 0.18175244E+04</totfact>
</mgrwt>
</event>
<event>
12    1  0.1074575E-001  0.2667123E+03  0.7546771E-02  0.1103941E+00
         21   -1    0    0  503  502  0.00000000000E+00  0.00000000000E+00  0.85045751114E+03  0.85045751114E+03  0.00000000000E+00 0.  1.
         21   -1    0    0  501  503 -0.00000000000E+00 -0.00000000000E+00 -0.86216179245E+02  0.86216179245E+02  0.00000000000E+00 0. -1.
          6    2    1    2  501    0 -0.10756057542E+03 -0.17206770623E+03  0.27521080179E+03  0.37964018978E+03  0.16495185771E+03 0.  0.
         24    2    3    3    0    0 -0.53459394480E+02 -0.29166155243E+02  0.15516025132E+03  0.18526422490E+03  0.80867533468E+02 0.  0.
         -6    2    1    2    0  502  0.10756057542E+03  0.17206770623E+03  0.48903053011E+03  0.55703350061E+03  0.17308636142E+03 0.  0.
        -24    2    5    5    0    0  0.12536154350E+02  0.85572586108E+02  0.13125134250E+03  0.17685054006E+03  0.81051686920E+02 0.  0.
          5    1    3    3  501    0 -0.54101180942E+02 -0.14290155099E+03  0.12005055047E+03  0.19437596488E+03  0.47000000000E+01 0. -1.
        -11    1    4    4    0    0 -0.12416326087E+01 -0.40399253952E+02  0.10283336459E+03  0.11049136728E+03  0.00000000000E+00 0.  1.
         12    1    4    4    0    0 -0.52217761872E+02  0.11233098709E+02  0.52326886726E+02  0.74772857615E+02  0.00000000000E+00 0. -1.
         -5    1    5    5    0  502  0.95024421072E+02  0.86495120121E+02  0.35777918761E+03  0.38018296055E+03  0.47000000000E+01 0.  1.
         11    1    6    6    0    0  0.33850200465E+02  0.48034823013E+02  0.28315557435E+02  0.65229986098E+02  0.00000000000E+00 0. -1.
        -12    1    6    6    0    0 -0.21314046115E+02  0.37537763096E+02  0.10293578507E+03  0.11162055397E+03  0.00000000000E+00 0.  1.
<mgrwt>
<rscale>  2 0.26540125E+03</rscale>
<asrwt>0</asrwt>
<pdfrwt beam="1">  1       21 0.13083961E+00 0.26671232E+03</pdfrwt>
<pdfrwt beam="2">  1       21 0.13264028E-01 0.26671232E+03</pdfrwt>
<totfact> 0.19987507E+04</totfact>
</mgrwt>
</event>
<event>
12    1  0.1074575E-001  0.2020179E+03  0.7546771E-02  0.1148096E+00
         21   -1    0    0  503  502  0.00000000000E+00  0.00000000000E+00  0.72431931665E+03  0.72431931665E+03  0.00000000000E+00 0.  1.
         21   -1    0    0  501  503 -0.00000000000E+00 -0.00000000000E+00 -0.91091781429E+02  0.91091781429E+02  0.00000000000E+00 0.  1.
          6    2    1    2  501    0 -0.88405667811E+02 -0.54127128916E+02  0.64461037439E+02  0.21183296079E+03  0.17312616713E+03 0.  0.
         24    2    3    3    0    0 -0.91856798018E+02 -0.99384663209E+02  0.52655288869E+02  0.16469889233E+03  0.77705617989E+02 0.  0.
         -6    2    1    2    0  502  0.88405667811E+02  0.54127128916E+02  0.56876649778E+03  0.60357813729E+03  0.17339530163E+03 0.  0.
        -24    2    5    5    0    0  0.88613859020E+02  0.45026873666E+02  0.21797844706E+03  0.25264052956E+03  0.80204728232E+02 0.  0.
          5    1    3    3  501    0  0.34511302072E+01  0.45257534293E+02  0.11805748570E+02  0.47134068457E+02  0.47000000000E+01 0. -1.
        -11    1    4    4    0    0 -0.91835146586E+02 -0.49647150748E+02  0.23368865593E+02  0.10697961303E+03  0.00000000000E+00 0.  1.
         12    1    4    4    0    0 -0.21651431598E-01 -0.49737512461E+02  0.29286423276E+02  0.57719279300E+02  0.00000000000E+00 0. -1.
         -5    1    5    5    0  502 -0.20819120947E+00  0.91002552503E+01  0.35078805072E+03  0.35093760773E+03  0.47000000000E+01 0.  1.
         13    1    6    6    0    0  0.33779116585E+02  0.56197845665E+02  0.15553295047E+03  0.16878899625E+03  0.00000000000E+00 0. -1.
        -14    1    6    6    0    0  0.54834742435E+02 -0.11170971999E+02  0.62445496593E+02  0.83851533307E+02  0.00000000000E+00 0.  1.
<mgrwt>
<rscale>  2 0.20196015E+03</rscale>
<asrwt>0</asrwt>
<pdfrwt beam="1">  1       21 0.11143374E+00 0.20201792E+03</pdfrwt>
<pdfrwt beam="2">  1       21 0.14014121E-01 0.20201792E+03</pdfrwt>
<totfact> 0.27936179E+04</totfact>
</mgrwt>
</event>
<event>
12    1  0.1074575E-001  0.1847695E+03  0.7546771E-02  0.1165170E+00
         21   -1    0    0  501  502  0.00000000000E+00  0.00000000000E+00  0.81865000837E+02  0.81865000837E+02  0.00000000000E+00 0.  1.
         21   -1    0    0  502  503 -0.00000000000E+00 -0.00000000000E+00 -0.47979410947E+03  0.47979410947E+03  0.00000000000E+00 0.  1.
         -6    2    1    2    0  503 -0.36580968293E+02 -0.18367406278E+02 -0.31034997682E+03  0.35718444704E+03  0.17201189564E+03 0.  0.
        -24    2    3    3    0    0 -0.58843340199E+02 -0.62331293299E+02 -0.26654214765E+03  0.29108110022E+03  0.79597497560E+02 0.  0.
          6    2    1    2  501    0  0.36580968293E+02  0.18367406278E+02 -0.87579131813E+02  0.20447466327E+03  0.18017839697E+03 0.  0.
         24    2    5    5    0    0  0.81233949705E+02  0.19183727228E+02 -0.11007899443E+02  0.11570643271E+03  0.79371498324E+02 0.  0.
          5    1    5    5  501    0 -0.44652981412E+02 -0.81632095027E+00 -0.76571232370E+02  0.88768230553E+02  0.47000000000E+01 0. -1.
        -13    1    6    6    0    0  0.61394606787E+02 -0.87332312253E+01 -0.37445238801E+02  0.72441100068E+02  0.00000000000E+00 0.  1.
         14    1    6    6    0    0  0.19839342918E+02  0.27916958453E+02  0.26437339358E+02  0.43265332647E+02  0.00000000000E+00 0. -1.
         -5    1    3    3    0  503  0.22262371906E+02  0.43963887021E+02 -0.43807829166E+02  0.66103346822E+02  0.47000000000E+01 0.  1.
         11    1    4    4    0    0 -0.71170555081E+01 -0.58544037305E+02 -0.94512448618E+02  0.11140314056E+03  0.00000000000E+00 0. -1.
        -12    1    4    4    0    0 -0.51726284691E+02 -0.37872559936E+01 -0.17202969904E+03  0.17967795966E+03  0.00000000000E+00 0.  1.
<mgrwt>
<rscale>  2 0.18274803E+03</rscale>
<asrwt>0</asrwt>
<pdfrwt beam="1">  1       21 0.12594616E-01 0.18476954E+03</pdfrwt>
<pdfrwt beam="2">  1       21 0.73814478E-01 0.18476954E+03</pdfrwt>
<totfact> 0.88929458E+04</totfact>
</mgrwt>
</event>
<event>
12    1  0.1074575E-001  0.2047346E+03  0.7546771E-02  0.1145957E+00
         21   -1    0    0  501  502  0.00000000000E+00  0.00000000000E+00  0.73263059293E+02  0.73263059293E+02  0.00000000000E+00 0.  1.
         21   -1    0    0  502  503 -0.00000000000E+00 -0.00000000000E+00 -0.60464131404E+03  0.60464131404E+03  0.00000000000E+00 0. -1.
         -6    2    1    2    0  503 -0.87714915362E+02 -0.64795289850E+02 -0.34720613578E+03  0.40307361683E+03  0.17327407163E+03 0.  0.
        -24    2    3    3    0    0 -0.11265320803E+03 -0.27117744700E+02 -0.31063967396E+03  0.34475799303E+03  0.94524861072E+02 0.  0.
          6    2    1    2  501    0  0.87714915362E+02  0.64795289850E+02 -0.18417211897E+03  0.27483075650E+03  0.17239558971E+03 0.  0.
         24    2    5    5    0    0  0.19933748676E+02  0.75858678802E+02 -0.50127384140E+02  0.12414311246E+03  0.82139297806E+02 0.  0.
          5    1    5    5  501    0  0.67781166686E+02 -0.11063388952E+02 -0.13404473482E+03  0.15068764404E+03  0.47000000000E+01 0. -1.
        -13    1    6    6    0    0  0.43027832150E+02  0.11773456935E+02 -0.27302696084E+02  0.52301489856E+02  0.00000000000E+00 0.  1.
         14    1    6    6    0    0 -0.23094083473E+02  0.64085221868E+02 -0.22824688057E+02  0.71841622603E+02  0.00000000000E+00 0. -1.
         -5    1    3    3    0  503  0.24938292666E+02 -0.37677545150E+02 -0.36566461817E+02  0.58315623802E+02  0.47000000000E+01 0.  1.
         11    1    4    4    0    0 -0.25484443427E+02 -0.70414997027E+01 -0.20339092979E+03  0.20510219379E+03  0.00000000000E+00 0. -1.
        -12    1    4    4    0    0 -0.87168764602E+02 -0.20076244997E+02 -0.10724874417E+03  0.13965579924E+03  0.00000000000E+00 0.  1.
<mgrwt>
<rscale>  2 0.20454857E+03</rscale>
<asrwt>0</asrwt>
<pdfrwt beam="1">  1       21 0.11271240E-01 0.20473456E+03</pdfrwt>
<pdfrwt beam="2">  1       21 0.93021738E-01 0.20473456E+03</pdfrwt>
<totfact> 0.63486473E+04</totfact>
</mgrwt>
</event>
<event>
12    1  0.1074575E-001  0.2188470E+03  0.7546771E-02  0.1134916E+00
         21   -1    0    0  501  502  0.00000000000E+00  0.00000000000E+00  0.25342286182E+03  0.25342286182E+03  0.00000000000E+00 0.  1.
         21   -1    0    0  502  503 -0.00000000000E+00 -0.00000000000E+00 -0.93728801330E+03  0.93728801330E+03  0.00000000000E+00 0.  1.
         -6    2    1    2    0  503  0.29370657065E+02 -0.12941890871E+03 -0.87402626255E+03  0.90078805245E+03  0.17287370641E+03 0.  0.
        -24    2    3    3    0    0 -0.45374548487E+02 -0.50897446876E+02 -0.52166242847E+03  0.53209464690E+03  0.79646872103E+02 0.  0.
          6    2    1    2  501    0 -0.29370657065E+02  0.12941890871E+03  0.19016111108E+03  0.28992282267E+03  0.17401754369E+03 0.  0.
         24    2    5    5    0    0  0.46501942878E+02  0.96532809404E+02  0.10786087189E+03  0.17315995905E+03  0.82881781779E+02 0.  0.
          5    1    5    5  501    0 -0.75872599944E+02  0.32886099304E+02  0.82300239193E+02  0.11676286362E+03  0.47000000000E+01 0. -1.
        -13    1    6    6    0    0  0.26240699495E+02 -0.83889066778E+01  0.31342045859E+02  0.41728550224E+02  0.00000000000E+00 0.  1.
         14    1    6    6    0    0  0.20261243383E+02  0.10492171608E+03  0.76518826027E+02  0.13143140882E+03  0.00000000000E+00 0. -1.
         -5    1    3    3    0  503  0.74745205552E+02 -0.78521461832E+02 -0.35236383408E+03  0.36869340554E+03  0.47000000000E+01 0.  1.
         11    1    4    4    0    0  0.19756855501E+02  0.31037658918E+01 -0.86246072420E+02  0.88534466226E+02  0.00000000000E+00 0. -1.
        -12    1    4    4    0    0 -0.65131403988E+02 -0.54001212768E+02 -0.43541635605E+03  0.44356018068E+03  0.00000000000E+00 0.  1.
<mgrwt>
<rscale>  2 0.21861951E+03</rscale>
<asrwt>0</asrwt>
<pdfrwt beam="1">  1       21 0.38988133E-01 0.21884697E+03</pdfrwt>
<pdfrwt beam="2">  1       21 0.14419816E+00 0.21884697E+03</pdfrwt>
<totfact> 0.20526834E+03</totfact>
</mgrwt>
</event>
<event>
12    1  0.1074575E-001  0.1764281E+03  0.7546771E-02  0.1171441E+00
         21   -1    0    0  503  502  0.00000000000E+00  0.00000000000E+00  0.23132203053E+02  0.23132203053E+02  0.00000000000E+00 0.  1.
         21   -1    0    0  501  503 -0.00000000000E+00 -0.00000000000E+00 -0.13872099571E+04  0.13872099571E+04  0.00000000000E+00 0.  1.
          6    2    1    2  501    0 -0.11632145082E+02  0.33067626539E+02 -0.81113683838E+03  0.83010232003E+03  0.17291071803E+03 0.  0.
         24    2    3    3    0    0 -0.70552752186E+02  0.24078576384E+02 -0.62396944271E+03  0.63361780418E+03  0.81093696793E+02 0.  0.
         -6    2    1    2    0  502  0.11632145082E+02 -0.33067626539E+02 -0.55294091569E+03  0.58023984015E+03  0.17235382540E+03 0.  0.
        -24    2    5    5    0    0  0.56558150009E+02 -0.65329611206E+02 -0.32594421393E+03  0.34655463697E+03  0.79960636448E+02 0.  0.
          5    1    3    3  501    0  0.58920607103E+02  0.89890501551E+01 -0.18716739567E+03  0.19648451585E+03  0.47000000000E+01 0. -1.
        -11    1    4    4    0    0 -0.39721660755E+02 -0.63131593267E+01 -0.98883859399E+02  0.10675056891E+03  0.00000000000E+00 0.  1.
         12    1    4    4    0    0 -0.30831091430E+02  0.30391735711E+02 -0.52508558331E+03  0.52686723527E+03  0.00000000000E+00 0. -1.
         -5    1    5    5    0  502 -0.44926004927E+02  0.32261984667E+02 -0.22699670176E+03  0.23368520318E+03  0.47000000000E+01 0.  1.
         13    1    6    6    0    0  0.24114094664E+02 -0.16792918033E+02 -0.21114189764E+02  0.36184259933E+02  0.00000000000E+00 0. -1.
        -14    1    6    6    0    0  0.32444055345E+02 -0.48536693173E+02 -0.30483002416E+03  0.31037037704E+03  0.00000000000E+00 0.  1.
<mgrwt>
<rscale>  2 0.17629155E+03</rscale>
<asrwt>0</asrwt>
<pdfrwt beam="1">  1       21 0.35588003E-02 0.17642815E+03</pdfrwt>
<pdfrwt beam="2">  1       21 0.21341693E+00 0.17642815E+03</pdfrwt>
<totfact> 0.53223697E+04</totfact>
</mgrwt>
</event>
<event>
12    1  0.1074575E-001  0.1834468E+03  0.7546771E-02  0.1164724E+00
         21   -1    0    0  501  502  0.00000000000E+00  0.00000000000E+00  0.86159796393E+03  0.86159796393E+03  0.00000000000E+00 0.  1.
         21   -1    0    0  502  503 -0.00000000000E+00 -0.00000000000E+00 -0.68802415798E+02  0.68802415798E+02  0.00000000000E+00 0.  1.
         -6    2    1    2    0  503 -0.11119285760E+02  0.59977560163E+02  0.70381894217E+03  0.72733336632E+03  0.17300802342E+03 0.  0.
        -24    2    3    3    0    0  0.46841731335E+02  0.60582083772E+02  0.30504406299E+03  0.32434038969E+03  0.79249424907E+02 0.  0.
          6    2    1    2  501    0  0.11119285760E+02 -0.59977560163E+02  0.88976605956E+02  0.20306701340E+03  0.17204194048E+03 0.  0.
         24    2    5    5    0    0  0.27117761737E+02  0.14069020740E+02  0.24988889643E+01  0.88004713264E+02  0.82494089269E+02 0.  0.
          5    1    5    5  501    0 -0.15998475977E+02 -0.74046580903E+02  0.86477716992E+02  0.11506230014E+03  0.47000000000E+01 0. -1.
        -11    1    6    6    0    0 -0.83108601836E+01  0.42016043616E+02  0.41584826786E+00  0.42832128687E+02  0.00000000000E+00 0.  1.
         12    1    6    6    0    0  0.35428621920E+02 -0.27947022876E+02  0.20830406965E+01  0.45172584576E+02  0.00000000000E+00 0. -1.
         -5    1    3    3    0  503 -0.57961017095E+02 -0.60452360968E+00  0.39877487918E+03  0.40299297664E+03  0.47000000000E+01 0.  1.
         13    1    4    4    0    0 -0.19497941766E+02 -0.12184316629E+01  0.54804065785E+02  0.58181955411E+02  0.00000000000E+00 0. -1.
        -14    1    4    4    0    0  0.66339673101E+02  0.61800515435E+02  0.25023999720E+03  0.26615843427E+03  0.00000000000E+00 0.  1.
<mgrwt>
<rscale>  2 0.18321865E+03</rscale>
<asrwt>0</asrwt>
<pdfrwt beam="1">  1       21 0.13255353E+00 0.18344678E+03</pdfrwt>
<pdfrwt beam="2">  1       21 0.10584988E-01 0.18344678E+03</pdfrwt>
<totfact> 0.30361247E+04</totfact>
</mgrwt>
</event>
<event>
12    1  0.1074575E-001  0.1981536E+03  0.7546771E-02  0.1151450E+00
         21   -1    0    0  501  502  0.00000000000E+00  0.00000000000E+00  0.89608836112E+02  0.89608836112E+02  0.00000000000E+00 0. -1.
         21   -1    0    0  502  503 -0.00000000000E+00 -0.00000000000E+00 -0.45857676147E+03  0.45857676147E+03  0.00000000000E+00 0. -1.
         -6    2    1    2    0  503 -0.10448103349E+02  0.92906577566E+02 -0.24406117874E+03  0.31394955091E+03  0.17394730964E+03 0.  0.
        -24    2    3    3    0    0 -0.59881276554E+01  0.89100988562E+02 -0.69460516358E+02  0.13918726895E+03  0.81077053908E+02 0.  0.
          6    2    1    2  501    0  0.10448103349E+02 -0.92906577566E+02 -0.12490674662E+03  0.23423604667E+03  0.17471129096E+03 0.  0.
         24    2    5    5    0    0 -0.27577577617E+02 -0.10955570502E+03 -0.49087238756E+02  0.14766911516E+03  0.81447131780E+02 0.  0.
          5    1    5    5  501    0  0.38025680966E+02  0.16649127453E+02 -0.75819507860E+02  0.86566931504E+02  0.47000000000E+01 0. -1.
        -13    1    6    6    0    0 -0.80782494849E+01  0.85732856832E+01  0.87788278624E+01  0.14691057170E+02  0.00000000000E+00 0.  1.
         14    1    6    6    0    0 -0.19499328132E+02 -0.11812899070E+03 -0.57866066619E+02  0.13297805799E+03  0.00000000000E+00 0. -1.
         -5    1    3    3    0  503 -0.44599756938E+01  0.38055890039E+01 -0.17460066238E+03  0.17476228196E+03  0.47000000000E+01 0.  1.
         11    1    4    4    0    0  0.30632363374E+02  0.65836117423E+02 -0.24321328113E+02  0.76578476378E+02  0.00000000000E+00 0. -1.
        -12    1    4    4    0    0 -0.36620491029E+02  0.23264871139E+02 -0.45139188245E+02  0.62608792575E+02  0.00000000000E+00 0.  1.
<mgrwt>
<rscale>  2 0.19798502E+03</rscale>
<asrwt>0</asrwt>
<pdfrwt beam="1">  1       21 0.13785975E-01 0.19815355E+03</pdfrwt>
<pdfrwt beam="2">  1       21 0.70550271E-01 0.19815355E+03</pdfrwt>
<totfact> 0.83068275E+04</totfact>
</mgrwt>
</event>
<event>
12    1  0.1074575E-001  0.2735097E+03  0.7546771E-02  0.1099473E+00
         21   -1    0    0  501  502  0.00000000000E+00  0.00000000000E+00  0.65692828595E+03  0.65692828595E+03  0.00000000000E+00 0.  1.
         21   -1    0    0  502  503 -0.00000000000E+00 -0.00000000000E+00 -0.21525950291E+03  0.21525950291E+03  0.00000000000E+00 0.  1.
         -6    2    1    2    0  503 -0.20328751007E+03 -0.61863070332E+02 -0.78976257169E+02  0.28468368521E+03  0.17220540121E+03 0.  0.
        -24    2    3    3    0    0 -0.63462446917E+02  0.12504458975E-01 -0.80919810912E+02  0.13169511556E+03  0.82268495429E+02 0.  0.
          6    2    1    2  501    0  0.20328751007E+03  0.61863070332E+02  0.52064504021E+03  0.58750410365E+03  0.17010867907E+03 0.  0.
         24    2    5    5    0    0  0.41935702795E+02  0.33912363213E+02  0.17333529830E+03  0.20349655872E+03  0.91962341359E+02 0.  0.
          5    1    5    5  501    0  0.16135180727E+03  0.27950707119E+02  0.34730974191E+03  0.38400754493E+03  0.47000000000E+01 0. -1.
        -13    1    6    6    0    0  0.44139456174E+02  0.43723924748E+02  0.18066712606E+03  0.19105152087E+03  0.00000000000E+00 0.  1.
         14    1    6    6    0    0 -0.22037533787E+01 -0.98115615350E+01 -0.73318277670E+01  0.12445037851E+02  0.00000000000E+00 0. -1.
         -5    1    3    3    0  503 -0.13982506315E+03 -0.61875574791E+02  0.19435537428E+01  0.15298856964E+03  0.47000000000E+01 0.  1.
         11    1    4    4    0    0  0.11651032485E+02 -0.91409674831E+01  0.64153990909E+01  0.16138810055E+02  0.00000000000E+00 0. -1.
        -12    1    4    4    0    0 -0.75113479402E+02  0.91534719420E+01 -0.87335210003E+02  0.11555630551E+03  0.00000000000E+00 0.  1.
<mgrwt>
<rscale>  2 0.27318028E+03</rscale>
<asrwt>0</asrwt>
<pdfrwt beam="1">  1       21 0.10106589E+00 0.27350969E+03</pdfrwt>
<pdfrwt beam="2">  1       21 0.33116847E-01 0.27350969E+03</pdfrwt>
<totfact> 0.66682275E+03</totfact>
</mgrwt>
</event>
<event>
12    1  0.1074575E-001  0.2242890E+03  0.7546771E-02  0.1131248E+00
         21   -1    0    0  503  502  0.00000000000E+00  0.00000000000E+00  0.34866384628E+03  0.34866384628E+03  0.00000000000E+00 0. -1.
         21   -1    0    0  501  503 -0.00000000000E+00 -0.00000000000E+00 -0.16169086897E+03  0.16169086897E+03  0.00000000000E+00 0. -1.
          6    2    1    2  501    0 -0.13645991658E+03  0.11311123112E+02  0.59919439558E+01  0.22436898824E+03  0.17764089943E+03 0.  0.
         24    2    3    3    0    0 -0.38888580602E+02 -0.47674772129E+02 -0.27858589525E+02  0.10534189024E+03  0.80843102549E+02 0.  0.
         -6    2    1    2    0  502  0.13645991658E+03 -0.11311123112E+02  0.18098103335E+03  0.28598572701E+03  0.17402428360E+03 0.  0.
        -24    2    5    5    0    0  0.16878980632E+03 -0.18276941675E+02  0.14706977535E+03  0.23838522472E+03  0.79837029170E+02 0.  0.
          5    1    3    3  501    0 -0.97571335975E+02  0.58985895240E+02  0.33850533481E+02  0.11902709800E+03  0.47000000000E+01 0. -1.
        -13    1    4    4    0    0  0.52771888302E+00 -0.32185119564E+02 -0.48514755356E+02  0.58222348766E+02  0.00000000000E+00 0.  1.
         14    1    4    4    0    0 -0.39416299485E+02 -0.15489652564E+02  0.20656165831E+02  0.47119541472E+02  0.00000000000E+00 0. -1.
         -5    1    5    5    0  502 -0.32329889744E+02  0.69658185631E+01  0.33911257999E+02  0.47600502289E+02  0.47000000000E+01 0.  1.
         11    1    6    6    0    0  0.16219526237E+02 -0.50162015530E+01  0.59706474374E+02  0.62073330759E+02  0.00000000000E+00 0. -1.
        -12    1    6    6    0    0  0.15257028008E+03 -0.13260740122E+02  0.87363300980E+02  0.17631189396E+03  0.00000000000E+00 0.  1.
<mgrwt>
<rscale>  2 0.22357218E+03</rscale>
<asrwt>0</asrwt>
<pdfrwt beam="1">  1       21 0.53640592E-01 0.22428896E+03</pdfrwt>
<pdfrwt beam="2">  1       21 0.24875518E-01 0.22428896E+03</pdfrwt>
<totfact> 0.49540633E+04</totfact>
</mgrwt>
</event>
<event>
12    1  0.1074575E-001  0.2580744E+03  0.7546771E-02  0.1108369E+00
         21   -1    0    0  501  502  0.00000000000E+00  0.00000000000E+00  0.13555231075E+04  0.13555231075E+04  0.00000000000E+00 0. -1.
         21   -1    0    0  502  503 -0.00000000000E+00 -0.00000000000E+00 -0.15880132182E+03  0.15880132182E+03  0.00000000000E+00 0.  1.
         -6    2    1    2    0  503 -0.19089252086E+03  0.13329586258E+02 -0.31231341905E+02  0.25954506155E+03  0.17254161778E+03 0.  0.
        -24    2    3    3    0    0 -0.74210061355E+02  0.69949213545E+02 -0.16605569210E+02  0.12894421248E+03  0.77141683425E+02 0.  0.
          6    2    1    2  501    0  0.19089252086E+03 -0.13329586258E+02  0.12279531276E+04  0.12547793678E+04  0.17316104016E+03 0.  0.
         24    2    5    5    0    0  0.29660854630E+02 -0.37313387394E+02  0.38512906919E+03  0.39632415267E+03  0.80475952169E+02 0.  0.
          5    1    5    5  501    0  0.16123166623E+03  0.23983801135E+02  0.84282405840E+03  0.85845521510E+03  0.47000000000E+01 0. -1.
        -11    1    6    6    0    0  0.40725455704E+02  0.59515529444E+01  0.10718785183E+03  0.11481820111E+03  0.00000000000E+00 0.  1.
         12    1    6    6    0    0 -0.11064601074E+02 -0.43264940338E+02  0.27794121736E+03  0.28150595156E+03  0.00000000000E+00 0. -1.
         -5    1    3    3    0  503 -0.11668245951E+03 -0.56619627287E+02 -0.14625772695E+02  0.13060084907E+03  0.47000000000E+01 0.  1.
         11    1    4    4    0    0 -0.42579918074E+02  0.37174103630E+02  0.29818299949E+02  0.63906919936E+02  0.00000000000E+00 0. -1.
        -12    1    4    4    0    0 -0.31630143282E+02  0.32775109915E+02 -0.46423869159E+02  0.65037292545E+02  0.00000000000E+00 0.  1.
<mgrwt>
<rscale>  2 0.25797050E+03</rscale>
<asrwt>0</asrwt>
<pdfrwt beam="1">  1       21 0.20854201E+00 0.25807437E+03</pdfrwt>
<pdfrwt beam="2">  1       21 0.24430973E-01 0.25807437E+03</pdfrwt>
<totfact> 0.17641648E+03</totfact>
</mgrwt>
</event>
<event>
12    1  0.1074575E-001  0.2059412E+03  0.7546771E-02  0.1146840E+00
         21   -1    0    0  501  502  0.00000000000E+00  0.00000000000E+00  0.84074503228E+02  0.84074503228E+02  0.00000000000E+00 0. -1.
         21   -1    0    0  502  503 -0.00000000000E+00 -0.00000000000E+00 -0.54091696102E+03  0.54091696102E+03  0.00000000000E+00 0. -1.
         -6    2    1    2    0  503 -0.10974575672E+03  0.23286039131E+02 -0.32750931493E+03  0.38180668072E+03  0.16102055565E+03 0.  0.
        -24    2    3    3    0    0 -0.99137779113E+02  0.42831302659E+02 -0.33214475324E+03  0.35860918508E+03  0.81348575823E+02 0.  0.
          6    2    1    2  501    0  0.10974575672E+03 -0.23286039131E+02 -0.12933314287E+03  0.24318478353E+03  0.17270033688E+03 0.  0.
         24    2    5    5    0    0  0.84100782421E+02 -0.67965439848E+02 -0.13990414388E+03  0.19038563943E+03  0.70578180814E+02 0.  0.
          5    1    5    5  501    0  0.25644974304E+02  0.44679400717E+02  0.10571001015E+02  0.52799144103E+02  0.47000000000E+01 0. -1.
        -13    1    6    6    0    0  0.15925627229E+02 -0.43618873118E+02 -0.93504931771E+02  0.10440021054E+03  0.00000000000E+00 0.  1.
         14    1    6    6    0    0  0.68175155191E+02 -0.24346566730E+02 -0.46399212114E+02  0.85985428892E+02  0.00000000000E+00 0. -1.
         -5    1    3    3    0  503 -0.10607977612E+02 -0.19545263529E+02  0.46354383121E+01  0.23197495636E+02  0.47000000000E+01 0.  1.
         11    1    4    4    0    0 -0.10094860649E+03  0.59229835829E+02 -0.26929365379E+03  0.29362879044E+03  0.00000000000E+00 0. -1.
        -12    1    4    4    0    0  0.18108273809E+01 -0.16398533170E+02 -0.62851099448E+02  0.64980394641E+02  0.00000000000E+00 0.  1.
<mgrwt>
<rscale>  2 0.20347438E+03</rscale>
<asrwt>0</asrwt>
<pdfrwt beam="1">  1       21 0.12934539E-01 0.20594120E+03</pdfrwt>
<pdfrwt beam="2">  1       21 0.83217996E-01 0.20594120E+03</pdfrwt>
<totfact> 0.64108156E+04</totfact>
</mgrwt>
</event>
<event>
12    1  0.1074575E-001  0.2913687E+03  0.7546771E-02  0.1089639E+00
         21   -1    0    0  501  502  0.00000000000E+00  0.00000000000E+00  0.33550246523E+03  0.33550246523E+03  0.00000000000E+00 0.  1.
         21   -1    0    0  502  503 -0.00000000000E+00 -0.00000000000E+00 -0.27828492760E+03  0.27828492760E+03  0.00000000000E+00 0.  1.
         -6    2    1    2    0  503 -0.23450835425E+03  0.29246778346E+01 -0.63856397218E+02  0.29828406787E+03  0.17289599106E+03 0.  0.
        -24    2    3    3    0    0 -0.56869446612E+02 -0.36869447920E+02  0.84255312301E+00  0.10502983602E+03  0.80231330609E+02 0.  0.
          6    2    1    2  501    0  0.23450835425E+03 -0.29246778346E+01  0.12107393485E+03  0.31550332497E+03  0.17286043044E+03 0.  0.
         24    2    5    5    0    0  0.48032704466E+02  0.37651264928E+02  0.43045534029E+02  0.10927506205E+03  0.79770688453E+02 0.  0.
          5    1    5    5  501    0  0.18647564978E+03 -0.40575942763E+02  0.78028400822E+02  0.20622826292E+03  0.47000000000E+01 0. -1.
        -13    1    6    6    0    0  0.44864623985E+02  0.56148726108E+02  0.11809993808E+02  0.72835361485E+02  0.00000000000E+00 0.  1.
         14    1    6    6    0    0  0.31680804807E+01 -0.18497461181E+02  0.31235540221E+02  0.36439700561E+02  0.00000000000E+00 0. -1.
         -5    1    3    3    0  503 -0.17763890764E+03  0.39794125755E+02 -0.64698950341E+02  0.19325423184E+03  0.47000000000E+01 0.  1.
         13    1    4    4    0    0  0.17560677935E+02 -0.23580917380E+02  0.11109736460E+01  0.29422293188E+02  0.00000000000E+00 0. -1.
        -14    1    4    4    0    0 -0.74430124547E+02 -0.13288530541E+02 -0.26842052297E+00  0.75607542835E+02  0.00000000000E+00 0.  1.
<mgrwt>
<rscale>  2 0.29136347E+03</rscale>
<asrwt>0</asrwt>
<pdfrwt beam="1">  1       21 0.51615764E-01 0.29136875E+03</pdfrwt>
<pdfrwt beam="2">  1       21 0.42813066E-01 0.29136875E+03</pdfrwt>
<totfact> 0.17784930E+04</totfact>
</mgrwt>
</event>
<event>
12    1  0.1074575E-001  0.1776822E+03  0.7546771E-02  0.1170904E+00
         21   -1    0    0  503  502  0.00000000000E+00  0.00000000000E+00  0.49824409389E+03  0.49824409389E+03  0.00000000000E+00 0. -1.
         21   -1    0    0  501  503 -0.00000000000E+00 -0.00000000000E+00 -0.71305333678E+02  0.71305333678E+02  0.00000000000E+00 0. -1.
          6    2    1    2  501    0 -0.12734691083E+02 -0.14802880407E+01  0.31719897806E+03  0.36357416181E+03  0.17721911817E+03 0.  0.
         24    2    3    3    0    0 -0.33516221381E+01  0.29671546561E+02  0.54908784154E+02  0.99232120887E+02  0.77074024108E+02 0.  0.
         -6    2    1    2    0  502  0.12734691083E+02  0.14802880407E+01  0.10973978215E+03  0.20597526575E+03  0.17383505603E+03 0.  0.
        -24    2    5    5    0    0 -0.25605110602E+02 -0.50352854729E+02  0.28456475423E+02  0.10212113230E+03  0.80174328811E+02 0.  0.
          5    1    3    3  501    0 -0.93830689453E+01 -0.31151834601E+02  0.26229019391E+03  0.26434204093E+03  0.47000000000E+01 0. -1.
        -13    1    4    4    0    0 -0.37708323423E+02  0.28412641221E+02  0.39494590865E+02  0.61555004217E+02  0.00000000000E+00 0.  1.
         14    1    4    4    0    0  0.34356701285E+02  0.12589053395E+01  0.15414193289E+02  0.37677116670E+02  0.00000000000E+00 0. -1.
         -5    1    5    5    0  502  0.38339801685E+02  0.51833142770E+02  0.81283306725E+02  0.10385413345E+03  0.47000000000E+01 0.  1.
         13    1    6    6    0    0 -0.32952538834E+02 -0.58427122007E+02  0.46086147439E+02  0.81385080865E+02  0.00000000000E+00 0. -1.
        -14    1    6    6    0    0  0.73474282317E+01  0.80742672777E+01 -0.17629672016E+02  0.20736051434E+02  0.00000000000E+00 0.  1.
<mgrwt>
<rscale>  2 0.17683240E+03</rscale>
<asrwt>0</asrwt>
<pdfrwt beam="1">  1       21 0.76652935E-01 0.17768224E+03</pdfrwt>
<pdfrwt beam="2">  1       21 0.10970052E-01 0.17768224E+03</pdfrwt>
<totfact> 0.10488674E+05</totfact>
</mgrwt>
</event>
<event>
12    1  0.1074575E-001  0.1745134E+03  0.7546771E-02  0.1174601E+00
         21   -1    0    0  503  502  0.00000000000E+00  0.00000000000E+00  0.44359227829E+03  0.44359227829E+03  0.00000000000E+00 0.  1.
         21   -1    0    0  501  503 -0.00000000000E+00 -0.00000000000E+00 -0.17779094998E+03  0.17779094998E+03  0.00000000000E+00 0.  1.
          6    2    1    2  501    0  0.90954281895E+01  0.68044040314E+00 -0.11206298007E+03  0.20739587246E+03  0.17427491672E+03 0.  0.
         24    2    3    3    0    0  0.38575966608E+02 -0.37409370886E+01 -0.13988591153E+03  0.16634887209E+03  0.81251333482E+02 0.  0.
         -6    2    1    2    0  502 -0.90954281895E+01 -0.68044040314E+00  0.37786430838E+03  0.41398735581E+03  0.16888133529E+03 0.  0.
        -24    2    5    5    0    0 -0.55627085744E+02  0.40392619308E+02  0.25942673591E+03  0.28018997182E+03  0.80487593091E+02 0.  0.
          5    1    3    3  501    0 -0.29480538419E+02  0.44213774917E+01  0.27822931453E+02  0.41047000366E+02  0.47000000000E+01 0. -1.
        -13    1    4    4    0    0 -0.18844752733E+02  0.17665456580E+02 -0.24006523701E+02  0.35263383870E+02  0.00000000000E+00 0.  1.
         14    1    4    4    0    0  0.57420719341E+02 -0.21406393669E+02 -0.11587938783E+03  0.13108548822E+03  0.00000000000E+00 0. -1.
         -5    1    5    5    0  502  0.46531657555E+02 -0.41073059711E+02  0.11843757247E+03  0.13379738398E+03  0.47000000000E+01 0.  1.
         13    1    6    6    0    0 -0.61747903526E+02  0.77801583949E+01  0.10349247521E+03  0.12076434441E+03  0.00000000000E+00 0. -1.
        -14    1    6    6    0    0  0.61208177819E+01  0.32612460913E+02  0.15593426070E+03  0.15942562742E+03  0.00000000000E+00 0.  1.
<mgrwt>
<rscale>  2 0.17315106E+03</rscale>
<asrwt>0</asrwt>
<pdfrwt beam="1">  1       21 0.68244966E-01 0.17451343E+03</pdfrwt>
<pdfrwt beam="2">  1       21 0.27352454E-01 0.17451343E+03</pdfrwt>
<totfact> 0.25237686E+04</totfact>
</mgrwt>
</event>
<event>
12    1  0.1074575E-001  0.2241857E+03  0.7546771E-02  0.1132243E+00
         21   -1    0    0  503  502  0.00000000000E+00  0.00000000000E+00  0.82157077551E+02  0.82157077551E+02  0.00000000000E+00 0.  1.
         21   -1    0    0  501  503 -0.00000000000E+00 -0.00000000000E+00 -0.70039642133E+03  0.70039642133E+03  0.00000000000E+00 0.  1.
          6    2    1    2  501    0 -0.45560834591E+02 -0.11992482416E+03 -0.45935153974E+03  0.50777255439E+03  0.17427385584E+03 0.  0.
         24    2    3    3    0    0  0.31147045581E+02 -0.97174676612E+02 -0.22787666263E+03  0.26281464611E+03  0.82040896001E+02 0.  0.
         -6    2    1    2    0  502  0.45560834591E+02  0.11992482416E+03 -0.15888780404E+03  0.27478094449E+03  0.18385178836E+03 0.  0.
        -24    2    5    5    0    0  0.37345380945E+02  0.13039848585E+01 -0.11916117492E+03  0.14932699973E+03  0.81870564829E+02 0.  0.
          5    1    3    3  501    0 -0.76707880172E+02 -0.22750147548E+02 -0.23147487711E+03  0.24495790827E+03  0.47000000000E+01 0. -1.
        -13    1    4    4    0    0 -0.12067931136E+02 -0.39453432636E+02 -0.15459888077E+03  0.16000944424E+03  0.00000000000E+00 0.  1.
         14    1    4    4    0    0  0.43214976716E+02 -0.57721243976E+02 -0.73277781856E+02  0.10280520187E+03  0.00000000000E+00 0. -1.
         -5    1    5    5    0  502  0.82154536462E+01  0.11862083930E+03 -0.39726629119E+02  0.12545394476E+03  0.47000000000E+01 0.  1.
         11    1    6    6    0    0 -0.38141760050E+01 -0.34943004497E+02 -0.46513472215E+02  0.58301497403E+02  0.00000000000E+00 0. -1.
        -12    1    6    6    0    0  0.41159556950E+02  0.36246989355E+02 -0.72647702701E+02  0.91025502324E+02  0.00000000000E+00 0.  1.
<mgrwt>
<rscale>  2 0.22221351E+03</rscale>
<asrwt>0</asrwt>
<pdfrwt beam="1">  1       21 0.12639550E-01 0.22418571E+03</pdfrwt>
<pdfrwt beam="2">  1       21 0.10775330E+00 0.22418571E+03</pdfrwt>
<totfact> 0.36088290E+04</totfact>
</mgrwt>
</event>
<event>
12    1  0.1074575E-001  0.1901654E+03  0.7546771E-02  0.1158325E+00
         21   -1    0    0  503  502  0.00000000000E+00  0.00000000000E+00  0.15554761968E+04  0.15554761968E+04  0.00000000000E+00 0.  1.
         21   -1    0    0  501  503 -0.00000000000E+00 -0.00000000000E+00 -0.23613382985E+02  0.23613382985E+02  0.00000000000E+00 0.  1.
          6    2    1    2  501    0 -0.66525521389E+02 -0.40199593327E+02  0.66678780667E+03  0.69335956348E+03  0.17349309164E+03 0.  0.
         24    2    3    3    0    0 -0.10826636969E+03 -0.46724654357E+02  0.57146635264E+03  0.58898933575E+03  0.80186316115E+02 0.  0.
         -6    2    1    2    0  502  0.66525521389E+02  0.40199593327E+02  0.86507500716E+03  0.88573001632E+03  0.17355472192E+03 0.  0.
        -24    2    5    5    0    0  0.10800597147E+03  0.53243919949E+02  0.71896337752E+03  0.73321286807E+03  0.78692863710E+02 0.  0.
          5    1    3    3  501    0  0.41740848305E+02  0.65250610296E+01  0.95321454028E+02  0.10437022773E+03  0.47000000000E+01 0. -1.
        -13    1    4    4    0    0  0.36443364197E+01 -0.71872887185E+01  0.35547498247E+01  0.88076417604E+01  0.00000000000E+00 0.  1.
         14    1    4    4    0    0 -0.11191070611E+03 -0.39537365638E+02  0.56791160282E+03  0.58018169399E+03  0.00000000000E+00 0. -1.
         -5    1    5    5    0  502 -0.41480450078E+02 -0.13044326622E+02  0.14611162964E+03  0.15251714825E+03  0.47000000000E+01 0.  1.
         13    1    6    6    0    0  0.96451082952E+02  0.26075453449E+02  0.37827474277E+03  0.39124739193E+03  0.00000000000E+00 0. -1.
        -14    1    6    6    0    0  0.11554888516E+02  0.27168466500E+02  0.34068863475E+03  0.34196547614E+03  0.00000000000E+00 0.  1.
<mgrwt>
<rscale>  2 0.19015138E+03</rscale>
<asrwt>0</asrwt>
<pdfrwt beam="1">  1       21 0.23930395E+00 0.19016544E+03</pdfrwt>
<pdfrwt beam="2">  1       21 0.36328294E-02 0.19016544E+03</pdfrwt>
<totfact> 0.35476534E+04</totfact>
</mgrwt>
</event>
<event>
12    1  0.1074575E-001  0.2127435E+03  0.7546771E-02  0.1139497E+00
         21   -1    0    0  503  502  0.00000000000E+00  0.00000000000E+00  0.13892800536E+04  0.13892800536E+04  0.00000000000E+00 0. -1.
         21   -1    0    0  501  503 -0.00000000000E+00 -0.00000000000E+00 -0.38608657786E+02  0.38608657786E+02  0.00000000000E+00 0.  1.
          6    2    1    2  501    0  0.56126514543E+02  0.11134844886E+03  0.39219393474E+03  0.44617922280E+03  0.17236923655E+03 0.  0.
         24    2    3    3    0    0  0.35239711007E+02  0.32678070948E+02  0.11937988334E+03  0.16144270676E+03  0.97480754343E+02 0.  0.
         -6    2    1    2    0  502 -0.56126514543E+02 -0.11134844886E+03  0.95847746105E+03  0.98170948857E+03  0.17183077113E+03 0.  0.
        -24    2    5    5    0    0 -0.54554567206E+02 -0.83438648581E+02  0.34979895861E+03  0.37237129241E+03  0.79767531511E+02 0.  0.
          5    1    3    3  501    0  0.20886803536E+02  0.78670377909E+02  0.27281405140E+03  0.28473651603E+03  0.47000000000E+01 0. -1.
        -11    1    4    4    0    0 -0.22808026390E+02  0.20829905894E+02  0.32311008284E+01  0.31056900359E+02  0.00000000000E+00 0.  1.
         12    1    4    4    0    0  0.58047737397E+02  0.11848165054E+02  0.11614878252E+03  0.13038580641E+03  0.00000000000E+00 0. -1.
         -5    1    5    5    0  502 -0.15719473373E+01 -0.27909800276E+02  0.60867850244E+03  0.60933819617E+03  0.47000000000E+01 0.  1.
         11    1    6    6    0    0  0.85725211863E+01  0.92907187161E+01  0.17070141440E+02  0.21241358302E+02  0.00000000000E+00 0. -1.
        -12    1    6    6    0    0 -0.63127088392E+02 -0.92729367297E+02  0.33272881717E+03  0.35112993410E+03  0.00000000000E+00 0.  1.
<mgrwt>
<rscale>  2 0.21263445E+03</rscale>
<asrwt>0</asrwt>
<pdfrwt beam="1">  1       21 0.21373535E+00 0.21274355E+03</pdfrwt>
<pdfrwt beam="2">  1       21 0.59397946E-02 0.21274355E+03</pdfrwt>
<totfact> 0.21727110E+04</totfact>
</mgrwt>
</event>
<event>
12    1  0.1074575E-001  0.1870821E+03  0.7546771E-02  0.1161369E+00
         21   -1    0    0  503  502  0.00000000000E+00  0.00000000000E+00  0.37495932905E+03  0.37495932905E+03  0.00000000000E+00 0. -1.
         21   -1    0    0  501  503 -0.00000000000E+00 -0.00000000000E+00 -0.93687311216E+02  0.93687311216E+02  0.00000000000E+00 0. -1.
          6    2    1    2  501    0  0.52654277112E+02  0.44881221751E+02  0.11830104012E+03  0.22134779160E+03  0.17381861750E+03 0.  0.
         24    2    3    3    0    0  0.41631388784E+02  0.65719968161E+02  0.12524034623E+02  0.11287372876E+03  0.80816708998E+02 0.  0.
         -6    2    1    2    0  502 -0.52654277112E+02 -0.44881221751E+02  0.16297097771E+03  0.24729884866E+03  0.17265683886E+03 0.  0.
        -24    2    5    5    0    0 -0.77892628787E+02 -0.61223397460E+02  0.17344581648E+03  0.21511417297E+03  0.79844161585E+02 0.  0.
          5    1    3    3  501    0  0.11022888328E+02 -0.20838746410E+02  0.10577700549E+03  0.10847406285E+03  0.47000000000E+01 0. -1.
        -11    1    4    4    0    0 -0.15844858955E+02  0.70369743988E+01 -0.18235686315E+02  0.25161852463E+02  0.00000000000E+00 0.  1.
         12    1    4    4    0    0  0.57476247739E+02  0.58682993762E+02  0.30759720938E+02  0.87711876295E+02  0.00000000000E+00 0. -1.
         -5    1    5    5    0  502  0.25238351675E+02  0.16342175709E+02 -0.10474838770E+02  0.32184675692E+02  0.47000000000E+01 0.  1.
         13    1    6    6    0    0  0.73109920026E+01 -0.22327656268E+02  0.77701479470E+02  0.81175702955E+02  0.00000000000E+00 0. -1.
        -14    1    6    6    0    0 -0.85203620789E+02 -0.38895741192E+02  0.95744337014E+02  0.13393847001E+03  0.00000000000E+00 0.  1.
<mgrwt>
<rscale>  2 0.18681178E+03</rscale>
<asrwt>0</asrwt>
<pdfrwt beam="1">  1       21 0.57686050E-01 0.18708209E+03</pdfrwt>
<pdfrwt beam="2">  1       21 0.14413433E-01 0.18708209E+03</pdfrwt>
<totfact> 0.11912969E+05</totfact>
</mgrwt>
</event>
<event>
12    1  0.1074575E-001  0.1825011E+03  0.7546771E-02  0.1165603E+00
         21   -1    0    0  503  502  0.00000000000E+00  0.00000000000E+00  0.22923687551E+03  0.22923687551E+03  0.00000000000E+00 0.  1.
         21   -1    0    0  501  503 -0.00000000000E+00 -0.00000000000E+00 -0.16340162217E+03  0.16340162217E+03  0.00000000000E+00 0.  1.
          6    2    1    2  501    0  0.43500585817E+02  0.32209276391E+02 -0.33556547516E+02  0.18556044107E+03  0.17428969263E+03 0.  0.
         24    2    3    3    0    0  0.66791002606E+02  0.59307030830E+02  0.18975831754E+02  0.12185429787E+03  0.80684730800E+02 0.  0.
         -6    2    1    2    0  502 -0.43500585817E+02 -0.32209276391E+02  0.99391800857E+02  0.20707805662E+03  0.17341526173E+03 0.  0.
        -24    2    5    5    0    0  0.12619779211E+02 -0.65121661748E+02  0.21797600025E+02  0.10570907475E+03  0.79367395462E+02 0.  0.
          5    1    3    3  501    0 -0.23290416789E+02 -0.27097754438E+02 -0.52532379270E+02  0.63706143201E+02  0.47000000000E+01 0. -1.
        -13    1    4    4    0    0  0.19307970721E+02  0.66809079421E+02  0.23888982085E+02  0.73531859024E+02  0.00000000000E+00 0.  1.
         14    1    4    4    0    0  0.47483031885E+02 -0.75020485916E+01 -0.49131503312E+01  0.48322438848E+02  0.00000000000E+00 0. -1.
         -5    1    5    5    0  502 -0.56120365028E+02  0.32912385356E+02  0.77594200832E+02  0.10136898186E+03  0.47000000000E+01 0.  1.
         11    1    6    6    0    0  0.36122369592E+02 -0.21635546568E+01  0.91729562266E+01  0.37331617694E+02  0.00000000000E+00 0. -1.
        -12    1    6    6    0    0 -0.23502590380E+02 -0.62958107091E+02  0.12624643798E+02  0.68377457061E+02  0.00000000000E+00 0.  1.
<mgrwt>
<rscale>  2 0.18229197E+03</rscale>
<asrwt>0</asrwt>
<pdfrwt beam="1">  1       21 0.35267212E-01 0.18250106E+03</pdfrwt>
<pdfrwt beam="2">  1       21 0.25138711E-01 0.18250106E+03</pdfrwt>
<totfact> 0.11659283E+05</totfact>
</mgrwt>
</event>
<event>
12    1  0.1074575E-001  0.1831155E+03  0.7546771E-02  0.1164865E+00
         21   -1    0    0  503  502  0.00000000000E+00  0.00000000000E+00  0.19982225416E+03  0.19982225416E+03  0.00000000000E+00 0.  1.
         21   -1    0    0  501  503 -0.00000000000E+00 -0.00000000000E+00 -0.32540328091E+03  0.32540328091E+03  0.00000000000E+00 0.  1.
          6    2    1    2  501    0 -0.58364434049E+02  0.15253591499E+02 -0.24566460192E+03  0.30640229857E+03  0.17289358785E+03 0.  0.
         24    2    3    3    0    0 -0.53703853163E+02 -0.41590376064E+02 -0.85404646819E+02  0.13623091182E+03  0.81553935590E+02 0.  0.
         -6    2    1    2    0  502  0.58364434049E+02 -0.15253591499E+02  0.12008357516E+03  0.21882323650E+03  0.17269761028E+03 0.  0.
        -24    2    5    5    0    0  0.68464311065E+02 -0.59676715368E+02  0.41634268412E+02  0.12798378924E+03  0.79986034749E+02 0.  0.
          5    1    3    3  501    0 -0.46605808863E+01  0.56843967563E+02 -0.16025995510E+03  0.17017138675E+03  0.47000000000E+01 0. -1.
        -13    1    4    4    0    0  0.18099637889E+01 -0.41944734267E+02 -0.64397235445E+02  0.76874187050E+02  0.00000000000E+00 0.  1.
         14    1    4    4    0    0 -0.55513816951E+02  0.35435820305E+00 -0.21007411374E+02  0.59356724766E+02  0.00000000000E+00 0. -1.
         -5    1    5    5    0  502 -0.10099877016E+02  0.44423123869E+02  0.78449306748E+02  0.90839447264E+02  0.47000000000E+01 0.  1.
         11    1    6    6    0    0  0.11818865614E+02 -0.59724955329E+02  0.36780870810E+02  0.71130783287E+02  0.00000000000E+00 0. -1.
        -12    1    6    6    0    0  0.56645445451E+02  0.48239961537E-01  0.48533976019E+01  0.56853005951E+02  0.00000000000E+00 0.  1.
<mgrwt>
<rscale>  2 0.18306919E+03</rscale>
<asrwt>0</asrwt>
<pdfrwt beam="1">  1       21 0.30741885E-01 0.18311546E+03</pdfrwt>
<pdfrwt beam="2">  1       21 0.50062043E-01 0.18311546E+03</pdfrwt>
<totfact> 0.38799836E+04</totfact>
</mgrwt>
</event>
<event>
12    1  0.1074575E-001  0.1858304E+03  0.7546771E-02  0.1164996E+00
         21   -1    0    0  503  502  0.00000000000E+00  0.00000000000E+00  0.55833170433E+03  0.55833170433E+03  0.00000000000E+00 0.  1.
         21   -1    0    0  501  503 -0.00000000000E+00 -0.00000000000E+00 -0.82730172815E+02  0.82730172815E+02  0.00000000000E+00 0.  1.
          6    2    1    2  501    0  0.62900434811E+02  0.24681873589E+02  0.68355599886E+02  0.19800362060E+03  0.17311061825E+03 0.  0.
         24    2    3    3    0    0  0.84063584443E+02  0.24912071760E+02 -0.10017564017E+02  0.11668711112E+03  0.76342863213E+02 0.  0.
         -6    2    1    2    0  502 -0.62900434811E+02 -0.24681873589E+02  0.40724593163E+03  0.44305825655E+03  0.16089036728E+03 0.  0.
        -24    2    5    5    0    0  0.17280556572E+02  0.15479647301E+01  0.13270057441E+03  0.15580533843E+03  0.79779992505E+02 0.  0.
          5    1    3    3  501    0 -0.21163149632E+02 -0.23019817060E+00  0.78373163903E+02  0.81316509478E+02  0.47000000000E+01 0. -1.
        -13    1    4    4    0    0 -0.53871463560E+01 -0.12708248198E+02 -0.13874143635E+02  0.19570712294E+02  0.00000000000E+00 0.  1.
         14    1    4    4    0    0  0.89450730799E+02  0.37620319957E+02  0.38565796179E+01  0.97116398824E+02  0.00000000000E+00 0. -1.
         -5    1    5    5    0  502 -0.80180991384E+02 -0.26229838319E+02  0.27454535722E+03  0.28725291812E+03  0.47000000000E+01 0.  1.
         11    1    6    6    0    0  0.16269555444E+01 -0.33741420965E+02  0.98844247662E+02  0.10445724374E+03  0.00000000000E+00 0. -1.
        -12    1    6    6    0    0  0.15653601028E+02  0.35289385695E+02  0.33856326752E+02  0.51348094697E+02  0.00000000000E+00 0.  1.
<mgrwt>
<rscale>  2 0.18293149E+03</rscale>
<asrwt>0</asrwt>
<pdfrwt beam="1">  1       21 0.85897183E-01 0.18583042E+03</pdfrwt>
<pdfrwt beam="2">  1       21 0.12727719E-01 0.18583042E+03</pdfrwt>
<totfact> 0.61961641E+04</totfact>
</mgrwt>
</event>
<event>
12    1  0.1074575E-001  0.1823100E+03  0.7546771E-02  0.1165853E+00
         21   -1    0    0  503  502  0.00000000000E+00  0.00000000000E+00  0.26712773837E+02  0.26712773837E+02  0.00000000000E+00 0. -1.
         21   -1    0    0  501  503 -0.00000000000E+00 -0.00000000000E+00 -0.12615592876E+04  0.12615592876E+04  0.00000000000E+00 0. -1.
          6    2    1    2  501    0 -0.18230094636E+01  0.56114263084E+02 -0.70616229864E+03  0.72903693417E+03  0.17227166187E+03 0.  0.
         24    2    3    3    0    0  0.42510127742E+02  0.70385410903E+02 -0.62434067013E+03  0.63477155555E+03  0.79827553697E+02 0.  0.
         -6    2    1    2    0  502  0.18230094636E+01 -0.56114263084E+02 -0.52868421513E+03  0.55923512727E+03  0.17344968827E+03 0.  0.
        -24    2    5    5    0    0 -0.28614326273E+02 -0.97501113031E+02 -0.35244162024E+03  0.37559731796E+03  0.80826993453E+02 0.  0.
          5    1    3    3  501    0 -0.44333137206E+02 -0.14271147819E+02 -0.81821628505E+02  0.94265378617E+02  0.47000000000E+01 0. -1.
        -11    1    4    4    0    0  0.24028749576E+02 -0.13618228192E+02 -0.11899961820E+03  0.12216278516E+03  0.00000000000E+00 0.  1.
         12    1    4    4    0    0  0.18481378166E+02  0.84003639095E+02 -0.50534105193E+03  0.51260877040E+03  0.00000000000E+00 0. -1.
         -5    1    5    5    0  502  0.30437335736E+02  0.41386849947E+02 -0.17624259490E+03  0.18363780932E+03  0.47000000000E+01 0.  1.
         13    1    6    6    0    0  0.72028840780E+01 -0.93148715301E+02 -0.24181472258E+03  0.25923526912E+03  0.00000000000E+00 0. -1.
        -14    1    6    6    0    0 -0.35817210351E+02 -0.43523977293E+01 -0.11062689766E+03  0.11636204883E+03  0.00000000000E+00 0.  1.
<mgrwt>
<rscale>  2 0.18202923E+03</rscale>
<asrwt>0</asrwt>
<pdfrwt beam="1">  1       21 0.41096574E-02 0.18230998E+03</pdfrwt>
<pdfrwt beam="2">  1       21 0.19408605E+00 0.18230998E+03</pdfrwt>
<totfact> 0.55272258E+04</totfact>
</mgrwt>
</event>
<event>
12    1  0.1074575E-001  0.2244710E+03  0.7546771E-02  0.1131174E+00
         21   -1    0    0  501  502  0.00000000000E+00  0.00000000000E+00  0.14905148491E+03  0.14905148491E+03  0.00000000000E+00 0. -1.
         21   -1    0    0  502  503 -0.00000000000E+00 -0.00000000000E+00 -0.33373290009E+03  0.33373290009E+03  0.00000000000E+00 0. -1.
         -6    2    1    2    0  503 -0.13941599546E+03 -0.30349835371E+02 -0.10179945420E+03  0.24647588448E+03  0.17328964326E+03 0.  0.
        -24    2    3    3    0    0 -0.11513838259E+03  0.33807865035E+02 -0.10368040560E+03  0.17769186754E+03  0.80155813283E+02 0.  0.
          6    2    1    2  501    0  0.13941599546E+03  0.30349835371E+02 -0.82881960990E+02  0.23630850052E+03  0.16915778333E+03 0.  0.
         24    2    5    5    0    0  0.31492501512E+02  0.31164001442E+01 -0.90484753623E+02  0.12464367617E+03  0.79668474129E+02 0.  0.
          5    1    5    5  501    0  0.10792349395E+03  0.27233435227E+02  0.76027926321E+01  0.11166482434E+03  0.47000000000E+01 0. -1.
        -11    1    6    6    0    0  0.17844984635E+02  0.39588093336E+02 -0.30266788689E+02  0.52931456697E+02  0.00000000000E+00 0.  1.
         12    1    6    6    0    0  0.13647516877E+02 -0.36471693191E+02 -0.60217964934E+02  0.71712219474E+02  0.00000000000E+00 0. -1.
         -5    1    3    3    0  503 -0.24277612873E+02 -0.64157700406E+02  0.18809514014E+01  0.68784016940E+02  0.47000000000E+01 0.  1.
         13    1    4    4    0    0 -0.11913542771E+03  0.11090243905E+02 -0.76379054096E+02  0.14195070817E+03  0.00000000000E+00 0. -1.
        -14    1    4    4    0    0  0.39970451222E+01  0.22717621130E+02 -0.27301351502E+02  0.35741159373E+02  0.00000000000E+00 0.  1.
<mgrwt>
<rscale>  2 0.22367322E+03</rscale>
<asrwt>0</asrwt>
<pdfrwt beam="1">  1       21 0.22930998E-01 0.22447101E+03</pdfrwt>
<pdfrwt beam="2">  1       21 0.51343523E-01 0.22447101E+03</pdfrwt>
<totfact> 0.63448618E+04</totfact>
</mgrwt>
</event>
<event>
12    1  0.1074575E-001  0.2547492E+03  0.7546771E-02  0.1110410E+00
         21   -1    0    0  501  502  0.00000000000E+00  0.00000000000E+00  0.10139529548E+03  0.10139529548E+03  0.00000000000E+00 0. -1.
         21   -1    0    0  502  503 -0.00000000000E+00 -0.00000000000E+00 -0.65402569420E+03  0.65402569420E+03  0.00000000000E+00 0. -1.
         -6    2    1    2    0  503 -0.17874265311E+03  0.53959402792E+02 -0.33400044623E+03  0.42006362912E+03  0.17331070723E+03 0.  0.
        -24    2    3    3    0    0 -0.11713217258E+03 -0.18472694620E+02 -0.12236208194E+03  0.18799651106E+03  0.79429357139E+02 0.  0.
          6    2    1    2  501    0  0.17874265311E+03 -0.53959402792E+02 -0.21862995249E+03  0.33535736056E+03  0.17264110160E+03 0.  0.
         24    2    5    5    0    0  0.11644066423E+02 -0.13360296746E+02 -0.86387380691E+02  0.11837714745E+03  0.78970169576E+02 0.  0.
          5    1    5    5  501    0  0.16709858669E+03 -0.40599106047E+02 -0.13224257180E+03  0.21698021311E+03  0.47000000000E+01 0. -1.
        -11    1    6    6    0    0  0.19154574095E+02  0.30427639736E+02 -0.45567778010E+02  0.58044477441E+02  0.00000000000E+00 0.  1.
         12    1    6    6    0    0 -0.75105076725E+01 -0.43787936482E+02 -0.40819602681E+02  0.60332670004E+02  0.00000000000E+00 0. -1.
         -5    1    3    3    0  503 -0.61610480537E+02  0.72432097412E+02 -0.21163836429E+03  0.23206711806E+03  0.47000000000E+01 0.  1.
         13    1    4    4    0    0 -0.16663540198E+02  0.90818544162E+01 -0.67777220903E+02  0.70383984861E+02  0.00000000000E+00 0. -1.
        -14    1    4    4    0    0 -0.10046863238E+03 -0.27554549036E+02 -0.54584861033E+02  0.11761252620E+03  0.00000000000E+00 0.  1.
<mgrwt>
<rscale>  2 0.25463535E+03</rscale>
<asrwt>0</asrwt>
<pdfrwt beam="1">  1       21 0.15599275E-01 0.25474920E+03</pdfrwt>
<pdfrwt beam="2">  1       21 0.10061934E+00 0.25474920E+03</pdfrwt>
<totfact> 0.28606428E+04</totfact>
</mgrwt>
</event>
<event>
12    1  0.1074575E-001  0.2469936E+03  0.7546771E-02  0.1116864E+00
         21   -1    0    0  503  502  0.00000000000E+00  0.00000000000E+00  0.11725968806E+03  0.11725968806E+03  0.00000000000E+00 0.  1.
         21   -1    0    0  501  503 -0.00000000000E+00 -0.00000000000E+00 -0.50204518659E+03  0.50204518659E+03  0.00000000000E+00 0. -1.
          6    2    1    2  501    0 -0.16194525502E+03  0.91187943561E+00 -0.21897308426E+03  0.33008343407E+03  0.18649065572E+03 0.  0.
         24    2    3    3    0    0 -0.20153706416E+02  0.46948753104E+02 -0.10645083116E+03  0.14324771898E+03  0.81103466244E+02 0.  0.
         -6    2    1    2    0  502  0.16194525502E+03 -0.91187943561E+00 -0.16581241428E+03  0.28922144058E+03  0.17299765262E+03 0.  0.
        -24    2    5    5    0    0  0.15016407577E+03 -0.46127310472E+02 -0.16050528268E+03  0.24196165816E+03  0.90036213979E+02 0.  0.
          5    1    3    3  501    0 -0.14179154860E+03 -0.46036873669E+02 -0.11252225310E+03  0.18683571509E+03  0.47000000000E+01 0. -1.
        -11    1    4    4    0    0 -0.17590818558E+02  0.64922325087E+02 -0.49614109265E+02  0.83581726654E+02  0.00000000000E+00 0.  1.
         12    1    4    4    0    0 -0.25628878586E+01 -0.17973571983E+02 -0.56836721897E+02  0.59665992324E+02  0.00000000000E+00 0. -1.
         -5    1    5    5    0  502  0.11781179253E+02  0.45215431036E+02 -0.53071315922E+01  0.47259782417E+02  0.47000000000E+01 0.  1.
         13    1    6    6    0    0  0.10410623740E+03 -0.48920946978E+02 -0.56446127821E+02  0.12813092158E+03  0.00000000000E+00 0. -1.
        -14    1    6    6    0    0  0.46057838370E+02  0.27936365063E+01 -0.10405915486E+03  0.11383073658E+03  0.00000000000E+00 0.  1.
<mgrwt>
<rscale>  2 0.24444894E+03</rscale>
<asrwt>0</asrwt>
<pdfrwt beam="1">  1       21 0.18039952E-01 0.24699365E+03</pdfrwt>
<pdfrwt beam="2">  1       21 0.77237721E-01 0.24699365E+03</pdfrwt>
<totfact> 0.40554033E+04</totfact>
</mgrwt>
</event>
<event>
12    1  0.1074575E-001  0.2289121E+03  0.7546771E-02  0.1127419E+00
         21   -1    0    0  503  502  0.00000000000E+00  0.00000000000E+00  0.25343540710E+03  0.25343540710E+03  0.00000000000E+00 0. -1.
         21   -1    0    0  501  503 -0.00000000000E+00 -0.00000000000E+00 -0.35504028131E+03  0.35504028131E+03  0.00000000000E+00 0. -1.
          6    2    1    2  501    0 -0.11217142661E+03  0.96909103380E+02 -0.24745119569E+03  0.33704999412E+03  0.17434678380E+03 0.  0.
         24    2    3    3    0    0 -0.11963133048E+03  0.88369389597E+02 -0.11752577633E+03  0.20654604217E+03  0.82025332582E+02 0.  0.
         -6    2    1    2    0  502  0.11217142661E+03 -0.96909103380E+02  0.14584632148E+03  0.27142569429E+03  0.17443323870E+03 0.  0.
        -24    2    5    5    0    0  0.90954161319E+02 -0.68054989300E+02  0.17027807126E+03  0.22781683460E+03  0.10000873736E+03 0.  0.
          5    1    3    3  501    0  0.74599038737E+01  0.85397137833E+01 -0.12992541936E+03  0.13050395195E+03  0.47000000000E+01 0. -1.
        -13    1    4    4    0    0 -0.60589133842E+02 -0.92021787462E+00 -0.58869949160E+02  0.84484086399E+02  0.00000000000E+00 0.  1.
         14    1    4    4    0    0 -0.59042196643E+02  0.89289607472E+02 -0.58655827166E+02  0.12206195577E+03  0.00000000000E+00 0. -1.
         -5    1    5    5    0  502  0.21217265292E+02 -0.28854114080E+02 -0.24431749776E+02  0.43608859684E+02  0.47000000000E+01 0.  1.
         11    1    6    6    0    0  0.16392307575E+02 -0.67045445256E+02  0.11815501227E+03  0.13683715285E+03  0.00000000000E+00 0. -1.
        -12    1    6    6    0    0  0.74561853744E+02 -0.10095440439E+01  0.52123058988E+02  0.90979681749E+02  0.00000000000E+00 0.  1.
<mgrwt>
<rscale>  2 0.22889565E+03</rscale>
<asrwt>0</asrwt>
<pdfrwt beam="1">  1       21 0.38990063E-01 0.22891212E+03</pdfrwt>
<pdfrwt beam="2">  1       21 0.54621582E-01 0.22891212E+03</pdfrwt>
<totfact> 0.19660290E+04</totfact>
</mgrwt>
</event>
<event>
12    1  0.1074575E-001  0.2183449E+03  0.7546771E-02  0.1135199E+00
         21   -1    0    0  501  502  0.00000000000E+00  0.00000000000E+00  0.15036762934E+04  0.15036762934E+04  0.00000000000E+00 0.  1.
         21   -1    0    0  502  503 -0.00000000000E+00 -0.00000000000E+00 -0.53714034140E+02  0.53714034140E+02  0.00000000000E+00 0. -1.
         -6    2    1    2    0  503 -0.12764513921E+03  0.26609418814E+02  0.22547761430E+03  0.31359084118E+03  0.17463595961E+03 0.  0.
        -24    2    3    3    0    0 -0.11712933839E+03  0.24811727457E+02  0.24865078643E+03  0.28765053147E+03  0.81121581174E+02 0.  0.
          6    2    1    2  501    0  0.12764513921E+03 -0.26609418814E+02  0.12244846450E+04  0.12437994864E+04  0.17513758534E+03 0.  0.
         24    2    5    5    0    0 -0.35155099355E+01  0.61092268104E+01  0.44822879417E+03  0.45584716449E+03  0.82691619826E+02 0.  0.
          5    1    5    5  501    0  0.13116064914E+03 -0.32718645624E+02  0.77625585083E+03  0.78795232191E+03  0.47000000000E+01 0. -1.
        -11    1    6    6    0    0 -0.62994179778E+01  0.28403536045E+02  0.41325924347E+03  0.41428208486E+03  0.00000000000E+00 0.  1.
         12    1    6    6    0    0  0.27839080423E+01 -0.22294309234E+02  0.34969550703E+02  0.41565079629E+02  0.00000000000E+00 0. -1.
         -5    1    3    3    0  503 -0.10515800816E+02  0.17976913565E+01 -0.23173172132E+02  0.25940309707E+02  0.47000000000E+01 0.  1.
         11    1    4    4    0    0 -0.81058105609E+01 -0.13160301528E+02  0.23477074710E+01  0.15633599442E+02  0.00000000000E+00 0. -1.
        -12    1    4    4    0    0 -0.10902352783E+03  0.37972028985E+02  0.24630307896E+03  0.27201693203E+03  0.00000000000E+00 0.  1.
<mgrwt>
<rscale>  2 0.21824434E+03</rscale>
<asrwt>0</asrwt>
<pdfrwt beam="1">  1       21 0.23133478E+00 0.21834495E+03</pdfrwt>
<pdfrwt beam="2">  1       21 0.82636987E-02 0.21834495E+03</pdfrwt>
<totfact> 0.95185128E+03</totfact>
</mgrwt>
</event>
<event>
12    1  0.1074575E-001  0.2484856E+03  0.7546771E-02  0.1115072E+00
         21   -1    0    0  503  502  0.00000000000E+00  0.00000000000E+00  0.20590685225E+04  0.20590685225E+04  0.00000000000E+00 0. -1.
         21   -1    0    0  501  503 -0.00000000000E+00 -0.00000000000E+00 -0.45805538404E+02  0.45805538404E+02  0.00000000000E+00 0.  1.
          6    2    1    2  501    0 -0.31464073176E+02  0.17381089530E+03  0.36995422625E+03  0.44288466328E+03  0.16757231339E+03 0.  0.
         24    2    3    3    0    0  0.39631247715E+02  0.56439202969E+02  0.17326290611E+03  0.20300922845E+03  0.80229002077E+02 0.  0.
         -6    2    1    2    0  502  0.31464073176E+02 -0.17381089530E+03  0.16433087578E+04  0.16619893976E+04  0.17477090431E+03 0.  0.
        -24    2    5    5    0    0  0.43727791532E+02 -0.20882479580E+02  0.67257904643E+03  0.67919961250E+03  0.81248644436E+02 0.  0.
          5    1    3    3  501    0 -0.71095320892E+02  0.11737169233E+03  0.19669132014E+03  0.23987543482E+03  0.47000000000E+01 0. -1.
        -11    1    4    4    0    0  0.26174619546E+02  0.96514419910E+01  0.14297714808E+03  0.14567335348E+03  0.00000000000E+00 0.  1.
         12    1    4    4    0    0  0.13456628170E+02  0.46787760978E+02  0.30285758032E+02  0.57335874970E+02  0.00000000000E+00 0. -1.
         -5    1    5    5    0  502 -0.12263718355E+02 -0.15292841572E+03  0.97072971142E+03  0.98278978513E+03  0.47000000000E+01 0.  1.
         11    1    6    6    0    0  0.27057565557E+02 -0.27966779307E+02  0.64519343934E+03  0.64636586139E+03  0.00000000000E+00 0. -1.
        -12    1    6    6    0    0  0.16670225975E+02  0.70842997266E+01  0.27385607085E+02  0.32833751112E+02  0.00000000000E+00 0.  1.
<mgrwt>
<rscale>  2 0.24722367E+03</rscale>
<asrwt>0</asrwt>
<pdfrwt beam="1">  1       21 0.31677970E+00 0.24848558E+03</pdfrwt>
<pdfrwt beam="2">  1       21 0.70470075E-02 0.24848558E+03</pdfrwt>
<totfact> 0.38447408E+03</totfact>
</mgrwt>
</event>
<event>
12    1  0.1074575E-001  0.2225619E+03  0.7546771E-02  0.1132783E+00
         21   -1    0    0  503  502  0.00000000000E+00  0.00000000000E+00  0.79272203666E+02  0.79272203666E+02  0.00000000000E+00 0.  1.
         21   -1    0    0  501  503 -0.00000000000E+00 -0.00000000000E+00 -0.93784996468E+03  0.93784996468E+03  0.00000000000E+00 0. -1.
          6    2    1    2  501    0  0.50947829365E+02 -0.12273882855E+03 -0.73137037981E+03  0.76448441051E+03  0.17853089395E+03 0.  0.
         24    2    3    3    0    0  0.52089952111E+01 -0.13246851844E+03 -0.44191268082E+03  0.47123612437E+03  0.95925103282E+02 0.  0.
         -6    2    1    2    0  502 -0.50947829365E+02  0.12273882855E+03 -0.12720738120E+03  0.25263775783E+03  0.17315778209E+03 0.  0.
        -24    2    5    5    0    0 -0.93110337593E+01  0.13820227080E+03 -0.13143306101E+03  0.20777477572E+03  0.81909369990E+02 0.  0.
          5    1    3    3  501    0  0.45738834153E+02  0.97296898838E+01 -0.28945769900E+03  0.29324828614E+03  0.47000000000E+01 0. -1.
        -13    1    4    4    0    0  0.36349977802E+02 -0.16771483518E+02 -0.71711224806E+02  0.82128577905E+02  0.00000000000E+00 0.  1.
         14    1    4    4    0    0 -0.31140982591E+02 -0.11569703492E+03 -0.37020145601E+03  0.38910754647E+03  0.00000000000E+00 0. -1.
         -5    1    5    5    0  502 -0.41636795605E+02 -0.15463442250E+02  0.42256798118E+01  0.44862982116E+02  0.47000000000E+01 0.  1.
         11    1    6    6    0    0 -0.44489492231E+02  0.91698716092E+02 -0.74201884680E+02  0.12607096867E+03  0.00000000000E+00 0. -1.
        -12    1    6    6    0    0  0.35178458471E+02  0.46503554712E+02 -0.57231176331E+02  0.81703807044E+02  0.00000000000E+00 0.  1.
<mgrwt>
<rscale>  2 0.22148240E+03</rscale>
<asrwt>0</asrwt>
<pdfrwt beam="1">  1       21 0.12195724E-01 0.22256186E+03</pdfrwt>
<pdfrwt beam="2">  1       21 0.14428460E+00 0.22256186E+03</pdfrwt>
<totfact> 0.18500220E+04</totfact>
</mgrwt>
</event>
<event>
12    1  0.1074575E-001  0.1803359E+03  0.7546771E-02  0.1167862E+00
         21   -1    0    0  501  502  0.00000000000E+00  0.00000000000E+00  0.34288702502E+03  0.34288702502E+03  0.00000000000E+00 0. -1.
         21   -1    0    0  502  503 -0.00000000000E+00 -0.00000000000E+00 -0.13266980086E+03  0.13266980086E+03  0.00000000000E+00 0.  1.
         -6    2    1    2    0  503 -0.18257347699E+02 -0.41377485399E+02 -0.22910768903E+02  0.18178540005E+03  0.17457262471E+03 0.  0.
        -24    2    3    3    0    0 -0.21519426217E+02 -0.15309143495E+02  0.52897155813E+02  0.10141668067E+03  0.82400111922E+02 0.  0.
          6    2    1    2  501    0  0.18257347699E+02  0.41377485399E+02  0.23312799306E+03  0.29377142584E+03  0.17293803065E+03 0.  0.
         24    2    5    5    0    0 -0.14220570168E+02  0.41852229775E+02  0.44061402263E+02  0.10187742830E+03  0.80521857130E+02 0.  0.
          5    1    5    5  501    0  0.32477917866E+02 -0.47474437566E+00  0.18906659080E+03  0.19189399753E+03  0.47000000000E+01 0. -1.
        -11    1    6    6    0    0  0.30563136447E+02  0.21955434972E+02  0.36254916148E+02  0.52254812019E+02  0.00000000000E+00 0.  1.
         12    1    6    6    0    0 -0.44783706614E+02  0.19896794802E+02  0.78064861149E+01  0.49622616285E+02  0.00000000000E+00 0. -1.
         -5    1    3    3    0  503  0.32620785187E+01 -0.26068341904E+02 -0.75807924716E+02  0.80368719385E+02  0.47000000000E+01 0.  1.
         11    1    4    4    0    0  0.21756315344E+02  0.11070304685E+01 -0.94677400407E+01  0.23752912986E+02  0.00000000000E+00 0. -1.
        -12    1    4    4    0    0 -0.43275741562E+02 -0.16416173963E+02  0.62364895854E+02  0.77663767680E+02  0.00000000000E+00 0.  1.
<mgrwt>
<rscale>  2 0.17993910E+03</rscale>
<asrwt>0</asrwt>
<pdfrwt beam="1">  1       21 0.52751850E-01 0.18033588E+03</pdfrwt>
<pdfrwt beam="2">  1       21 0.20410739E-01 0.18033588E+03</pdfrwt>
<totfact> 0.76080392E+04</totfact>
</mgrwt>
</event>
<event>
12    1  0.1074575E-001  0.2106742E+03  0.7546771E-02  0.1141528E+00
         21   -1    0    0  503  502  0.00000000000E+00  0.00000000000E+00  0.36314137924E+03  0.36314137924E+03  0.00000000000E+00 0.  1.
         21   -1    0    0  501  503 -0.00000000000E+00 -0.00000000000E+00 -0.13375809893E+03  0.13375809893E+03  0.00000000000E+00 0.  1.
          6    2    1    2  501    0  0.11435288596E+03  0.34906142339E+02  0.37918765662E+02  0.21405947509E+03  0.17346067215E+03 0.  0.
         24    2    3    3    0    0  0.53263063431E+02 -0.15573184704E+02  0.77797474682E+02  0.12521956115E+03  0.80919796212E+02 0.  0.
         -6    2    1    2    0  502 -0.11435288596E+03 -0.34906142339E+02  0.19146451464E+03  0.28284000308E+03  0.17042530820E+03 0.  0.
        -24    2    5    5    0    0 -0.59772244655E+02 -0.65024688642E+02  0.18414209536E+03  0.21989652796E+03  0.81518343705E+02 0.  0.
          5    1    3    3  501    0  0.61089822532E+02  0.50479327043E+02 -0.39878709020E+02  0.88839913940E+02  0.47000000000E+01 0. -1.
        -13    1    4    4    0    0  0.35346738554E+02 -0.38837506437E+02  0.13029964783E+02  0.54106596778E+02  0.00000000000E+00 0.  1.
         14    1    4    4    0    0  0.17916324877E+02  0.23264321733E+02  0.64767509899E+02  0.71112964369E+02  0.00000000000E+00 0. -1.
         -5    1    5    5    0  502 -0.54580641308E+02  0.30118546302E+02  0.73224192840E+01  0.62943475128E+02  0.47000000000E+01 0.  1.
         11    1    6    6    0    0 -0.32014729269E+02 -0.29614979022E+02  0.17005622354E+02  0.46810053025E+02  0.00000000000E+00 0. -1.
        -12    1    6    6    0    0 -0.27757515387E+02 -0.35409709620E+02  0.16713647300E+03  0.17308647493E+03  0.00000000000E+00 0.  1.
<mgrwt>
<rscale>  2 0.21004842E+03</rscale>
<asrwt>0</asrwt>
<pdfrwt beam="1">  1       21 0.55867904E-01 0.21067422E+03</pdfrwt>
<pdfrwt beam="2">  1       21 0.20578169E-01 0.21067422E+03</pdfrwt>
<totfact> 0.65499426E+04</totfact>
</mgrwt>
</event>
<event>
12    1  0.1074575E-001  0.2236286E+03  0.7546771E-02  0.1131480E+00
         21   -1    0    0  503  502  0.00000000000E+00  0.00000000000E+00  0.41871809270E+02  0.41871809270E+02  0.00000000000E+00 0. -1.
         21   -1    0    0  501  503 -0.00000000000E+00 -0.00000000000E+00 -0.12207380277E+04  0.12207380277E+04  0.00000000000E+00 0. -1.
          6    2    1    2  501    0 -0.78016233685E+02 -0.11696164823E+03 -0.69340622564E+03  0.72811832670E+03  0.17198123167E+03 0.  0.
         24    2    3    3    0    0 -0.10481929578E+03 -0.12682252739E+03 -0.64471008330E+03  0.67146989024E+03  0.90275598896E+02 0.  0.
         -6    2    1    2    0  502  0.78016233685E+02  0.11696164823E+03 -0.48545999275E+03  0.53449151023E+03  0.17390575054E+03 0.  0.
        -24    2    5    5    0    0  0.81951849815E+02  0.45614065727E+02 -0.41864352655E+03  0.43655021782E+03  0.80727576914E+02 0.  0.
          5    1    3    3  501    0  0.26803062099E+02  0.98608791556E+01 -0.48696142330E+02  0.56648436461E+02  0.47000000000E+01 0. -1.
        -13    1    4    4    0    0 -0.12099591134E+03 -0.10604601797E+03 -0.53673260882E+03  0.56032817336E+03  0.00000000000E+00 0.  1.
         14    1    4    4    0    0  0.16176615554E+02 -0.20776509421E+02 -0.10797747448E+03  0.11114171688E+03  0.00000000000E+00 0. -1.
         -5    1    5    5    0  502 -0.39356161298E+01  0.71347582505E+02 -0.66816466202E+02  0.97941292412E+02  0.47000000000E+01 0.  1.
         11    1    6    6    0    0  0.11611396512E+02  0.45378482726E+01 -0.23873971162E+03  0.23906498385E+03  0.00000000000E+00 0. -1.
        -12    1    6    6    0    0  0.70340453302E+02  0.41076217454E+02 -0.17990381492E+03  0.19748523397E+03  0.00000000000E+00 0.  1.
<mgrwt>
<rscale>  2 0.22325438E+03</rscale>
<asrwt>0</asrwt>
<pdfrwt beam="1">  1       21 0.64418175E-02 0.22362864E+03</pdfrwt>
<pdfrwt beam="2">  1       21 0.18780583E+00 0.22362864E+03</pdfrwt>
<totfact> 0.27569801E+04</totfact>
</mgrwt>
</event>
<event>
12    1  0.1074575E-001  0.1904912E+03  0.7546771E-02  0.1158733E+00
         21   -1    0    0  501  502  0.00000000000E+00  0.00000000000E+00  0.25778733525E+03  0.25778733525E+03  0.00000000000E+00 0. -1.
         21   -1    0    0  502  503 -0.00000000000E+00 -0.00000000000E+00 -0.14507386836E+04  0.14507386836E+04  0.00000000000E+00 0.  1.
         -6    2    1    2    0  503 -0.71436849522E+02  0.17881795900E+02 -0.14094276019E+04  0.14222422710E+04  0.17568133207E+03 0.  0.
        -24    2    3    3    0    0 -0.10841604790E+03  0.18022550513E+02 -0.12901432156E+04  0.12972689310E+04  0.79739015556E+02 0.  0.
          6    2    1    2  501    0  0.71436849522E+02 -0.17881795900E+02  0.21647625350E+03  0.28628374786E+03  0.17225978598E+03 0.  0.
         24    2    5    5    0    0  0.10005685391E+03  0.65047050208E+01  0.98267725681E+02  0.16215014191E+03  0.81132221760E+02 0.  0.
          5    1    5    5  501    0 -0.28620004388E+02 -0.24386500920E+02  0.11820852782E+03  0.12413360596E+03  0.47000000000E+01 0. -1.
        -11    1    6    6    0    0  0.33433919163E+02  0.97511532568E+01 -0.88760938530E+01  0.35940186178E+02  0.00000000000E+00 0.  1.
         12    1    6    6    0    0  0.66622934747E+02 -0.32464482360E+01  0.10714381953E+03  0.12620995573E+03  0.00000000000E+00 0. -1.
         -5    1    3    3    0  503  0.36979198380E+02 -0.14075461337E+00 -0.11928438621E+03  0.12497334003E+03  0.47000000000E+01 0.  1.
         13    1    4    4    0    0 -0.99554632836E+02  0.79575190675E+01 -0.71202065933E+03  0.71899086666E+03  0.00000000000E+00 0. -1.
        -14    1    4    4    0    0 -0.88614150656E+01  0.10065031445E+02 -0.57812255631E+03  0.57827806430E+03  0.00000000000E+00 0.  1.
<mgrwt>
<rscale>  2 0.18969859E+03</rscale>
<asrwt>0</asrwt>
<pdfrwt beam="1">  1       21 0.39659591E-01 0.19049124E+03</pdfrwt>
<pdfrwt beam="2">  1       21 0.22319056E+00 0.19049124E+03</pdfrwt>
<totfact> 0.59102029E+02</totfact>
</mgrwt>
</event>
<event>
12    1  0.1074575E-001  0.3304110E+03  0.7546771E-02  0.1071043E+00
         21   -1    0    0  503  502  0.00000000000E+00  0.00000000000E+00  0.21184873362E+03  0.21184873362E+03  0.00000000000E+00 0. -1.
         21   -1    0    0  501  503 -0.00000000000E+00 -0.00000000000E+00 -0.54822857794E+03  0.54822857794E+03  0.00000000000E+00 0.  1.
          6    2    1    2  501    0  0.20996867367E+03  0.18768092287E+03 -0.26321440615E+03  0.42243725594E+03  0.17280173284E+03 0.  0.
         24    2    3    3    0    0  0.20265276944E+03  0.20787197342E+03 -0.26379327871E+03  0.40044575598E+03  0.80566787814E+02 0.  0.
         -6    2    1    2    0  502 -0.20996867367E+03 -0.18768092287E+03 -0.73165438168E+02  0.33764005562E+03  0.17127945905E+03 0.  0.
        -24    2    5    5    0    0 -0.10729304764E+03 -0.17839636073E+03 -0.70625495873E+02  0.23440717046E+03  0.81373836712E+02 0.  0.
          5    1    3    3  501    0  0.73159042294E+01 -0.20191050551E+02  0.57887255718E+00  0.21991499960E+02  0.47000000000E+01 0. -1.
        -11    1    4    4    0    0  0.28293050749E+02  0.99467935066E+00 -0.41741290461E+02  0.50436310700E+02  0.00000000000E+00 0.  1.
         12    1    4    4    0    0  0.17435971869E+03  0.20687729407E+03 -0.22205198825E+03  0.35000944528E+03  0.00000000000E+00 0. -1.
         -5    1    5    5    0  502 -0.10267562602E+03 -0.92845621393E+01 -0.25399422942E+01  0.10323288517E+03  0.47000000000E+01 0.  1.
         11    1    6    6    0    0 -0.88194398985E+02 -0.12182565064E+03 -0.12237382259E+02  0.15089564172E+03  0.00000000000E+00 0. -1.
        -12    1    6    6    0    0 -0.19098648658E+02 -0.56570710090E+02 -0.58388113614E+02  0.83511528737E+02  0.00000000000E+00 0.  1.
<mgrwt>
<rscale>  2 0.33021240E+03</rscale>
<asrwt>0</asrwt>
<pdfrwt beam="1">  1       21 0.32592113E-01 0.33041097E+03</pdfrwt>
<pdfrwt beam="2">  1       21 0.84342857E-01 0.33041097E+03</pdfrwt>
<totfact> 0.10264735E+04</totfact>
</mgrwt>
</event>
<event>
12    1  0.1074575E-001  0.2292899E+03  0.7546771E-02  0.1127777E+00
         21   -1    0    0  503  502  0.00000000000E+00  0.00000000000E+00  0.13167068123E+03  0.13167068123E+03  0.00000000000E+00 0.  1.
         21   -1    0    0  501  503 -0.00000000000E+00 -0.00000000000E+00 -0.45935334309E+03  0.45935334309E+03  0.00000000000E+00 0. -1.
          6    2    1    2  501    0  0.28451525920E+02 -0.14808988228E+03 -0.27718328422E+03  0.35972828626E+03  0.17272453307E+03 0.  0.
         24    2    3    3    0    0  0.28315780571E+02 -0.55200043109E+02 -0.48354956272E+02  0.11272011976E+03  0.80739057547E+02 0.  0.
         -6    2    1    2    0  502 -0.28451525920E+02  0.14808988228E+03 -0.50499377644E+02  0.23129573806E+03  0.16795067354E+03 0.  0.
        -24    2    5    5    0    0  0.39401784440E+02  0.53307662731E+02 -0.97329258362E+00  0.10455717262E+03  0.80852010022E+02 0.  0.
          5    1    3    3  501    0  0.13574534898E+00 -0.92889839169E+02 -0.22882832795E+03  0.24700816650E+03  0.47000000000E+01 0. -1.
        -13    1    4    4    0    0  0.37115875819E+02 -0.70487955208E+02 -0.51419431638E+02  0.94816127411E+02  0.00000000000E+00 0.  1.
         14    1    4    4    0    0 -0.88000952484E+01  0.15287912098E+02  0.30644753657E+01  0.17903992347E+02  0.00000000000E+00 0. -1.
         -5    1    5    5    0  502 -0.67853310359E+02  0.94782219548E+02 -0.49526085060E+02  0.12673856544E+03  0.47000000000E+01 0.  1.
         13    1    6    6    0    0  0.35701021520E+02  0.69676876337E+02 -0.18336313237E+02  0.80409268227E+02  0.00000000000E+00 0. -1.
        -14    1    6    6    0    0  0.37007629198E+01 -0.16369213607E+02  0.17363020653E+02  0.24147904391E+02  0.00000000000E+00 0.  1.
<mgrwt>
<rscale>  2 0.22839107E+03</rscale>
<asrwt>0</asrwt>
<pdfrwt beam="1">  1       21 0.20257028E-01 0.22928992E+03</pdfrwt>
<pdfrwt beam="2">  1       21 0.70669746E-01 0.22928992E+03</pdfrwt>
<totfact> 0.40156790E+04</totfact>
</mgrwt>
</event>
<event>
12    1  0.1074575E-001  0.1951470E+03  0.7546771E-02  0.1154079E+00
         21   -1    0    0  501  502  0.00000000000E+00  0.00000000000E+00  0.43426581398E+02  0.43426581398E+02  0.00000000000E+00 0.  1.
         21   -1    0    0  502  503 -0.00000000000E+00 -0.00000000000E+00 -0.12409733125E+04  0.12409733125E+04  0.00000000000E+00 0.  1.
         -6    2    1    2    0  503 -0.77884332683E+02 -0.45408164311E+02 -0.94925636778E+03  0.96910784375E+03  0.17307365591E+03 0.  0.
        -24    2    3    3    0    0 -0.59216767751E+02 -0.22086208011E+02 -0.26361293852E+03  0.28279786005E+03  0.80550742565E+02 0.  0.
          6    2    1    2  501    0  0.77884332683E+02  0.45408164311E+02 -0.24829036335E+03  0.31529205018E+03  0.17214267836E+03 0.  0.
         24    2    5    5    0    0 -0.17681488282E+01  0.60154763864E+02 -0.80057432862E+02  0.12851306606E+03  0.80527595431E+02 0.  0.
          5    1    5    5  501    0  0.79652481511E+02 -0.14746599553E+02 -0.16823293049E+03  0.18677898412E+03  0.47000000000E+01 0. -1.
        -11    1    6    6    0    0  0.38482600870E+02  0.33324110339E+02 -0.30921421348E+02  0.59561239055E+02  0.00000000000E+00 0.  1.
         12    1    6    6    0    0 -0.40250749698E+02  0.26830653525E+02 -0.49136011514E+02  0.68951827005E+02  0.00000000000E+00 0. -1.
         -5    1    3    3    0  503 -0.18667564931E+02 -0.23321956299E+02 -0.68564342927E+03  0.68630998370E+03  0.47000000000E+01 0.  1.
         11    1    4    4    0    0 -0.26595584086E+02  0.30510407099E+02 -0.10694461301E+03  0.11434754168E+03  0.00000000000E+00 0. -1.
        -12    1    4    4    0    0 -0.32621183665E+02 -0.52596615111E+02 -0.15666832550E+03  0.16845031837E+03  0.00000000000E+00 0.  1.
<mgrwt>
<rscale>  2 0.19494040E+03</rscale>
<asrwt>0</asrwt>
<pdfrwt beam="1">  1       21 0.66810127E-02 0.19514702E+03</pdfrwt>
<pdfrwt beam="2">  1       21 0.19091897E+00 0.19514702E+03</pdfrwt>
<totfact> 0.25171210E+04</totfact>
</mgrwt>
</event>
<event>
11    1  0.1074575E-001  0.2264244E+03  0.7546771E-02  0.1129245E+00
         21   -1    0    0  501  502  0.00000000000E+00  0.00000000000E+00  0.81650156794E+03  0.81650156794E+03  0.00000000000E+00 0.  1.
         21   -1    0    0  502  503 -0.00000000000E+00 -0.00000000000E+00 -0.71498543978E+02  0.71498543978E+02  0.00000000000E+00 0. -1.
         -6    2    1    2    0  503 -0.11269114098E+03 -0.92291411365E+02  0.52856917979E+03  0.57502469629E+03  0.17335231654E+03 0.  0.
          6    2    1    2  501    0  0.11269114098E+03  0.92291411365E+02  0.21643384417E+03  0.31297541563E+03  0.17289593407E+03 0.  0.
         24    2    4    4    0    0  0.88457320818E+02  0.92375147955E+01  0.19245372367E+03  0.22307344705E+03  0.69377934082E+02 0.  0.
          5    1    4    4  501    0  0.24233820161E+02  0.83053896569E+02  0.23980120497E+02  0.89901968577E+02  0.47000000000E+01 0. -1.
        -13    1    5    5    0    0 -0.23842223189E+01 -0.11284745224E+02  0.29243777982E+01  0.11898822477E+02  0.00000000000E+00 0.  1.
         14    1    5    5    0    0  0.90841543137E+02  0.20522260020E+02  0.18952934587E+03  0.21117462457E+03  0.00000000000E+00 0. -1.
         -5    1    3    3    0  503  0.10955513900E+02 -0.88871521226E+02  0.16261436384E+03  0.18569785109E+03  0.47000000000E+01 0.  1.
         11    1    3    3    0    0 -0.91672499011E+02 -0.22499042965E+02  0.23705416857E+03  0.25515629101E+03  0.00000000000E+00 0. -1.
        -12    1    3    3    0    0 -0.31974155869E+02  0.19079152826E+02  0.12890064738E+03  0.13417055419E+03  0.00000000000E+00 0.  1.
<mgrwt>
<rscale>  2 0.22633708E+03</rscale>
<asrwt>0</asrwt>
<pdfrwt beam="1">  1       21 0.12561562E+00 0.22642443E+03</pdfrwt>
<pdfrwt beam="2">  1       21 0.10999777E-01 0.22642443E+03</pdfrwt>
<totfact> 0.31682789E+04</totfact>
</mgrwt>
</event>
<event>
12    1  0.1074575E-001  0.1911244E+03  0.7546771E-02  0.1157866E+00
         21   -1    0    0  501  502  0.00000000000E+00  0.00000000000E+00  0.61236261317E+03  0.61236261317E+03  0.00000000000E+00 0.  1.
         21   -1    0    0  502  503 -0.00000000000E+00 -0.00000000000E+00 -0.34413216519E+03  0.34413216519E+03  0.00000000000E+00 0. -1.
         -6    2    1    2    0  503  0.55090156735E+02  0.58376553784E+02 -0.30126071741E+03  0.35578792821E+03  0.17141844301E+03 0.  0.
        -24    2    3    3    0    0  0.20672485757E+02 -0.10297205638E+02 -0.24882086938E+03  0.26266065524E+03  0.80903712289E+02 0.  0.
          6    2    1    2  501    0 -0.55090156735E+02 -0.58376553784E+02  0.56949116538E+03  0.60070685015E+03  0.17345254384E+03 0.  0.
         24    2    5    5    0    0 -0.37877936913E+02 -0.32950465082E+02  0.56036160979E+03  0.56833116046E+03  0.80465538970E+02 0.  0.
          5    1    5    5  501    0 -0.17212219821E+02 -0.25426088702E+02  0.91295555920E+01  0.32375689694E+02  0.47000000000E+01 0. -1.
        -11    1    6    6    0    0 -0.26719388208E+01 -0.45646277399E+02  0.16550990187E+03  0.17170978282E+03  0.00000000000E+00 0.  1.
         12    1    6    6    0    0 -0.35205998092E+02  0.12695812317E+02  0.39485170792E+03  0.39662137764E+03  0.00000000000E+00 0. -1.
         -5    1    3    3    0  503  0.34417670978E+02  0.68673759422E+02 -0.52439848029E+02  0.93127272965E+02  0.47000000000E+01 0.  1.
         13    1    4    4    0    0  0.62702786576E+01  0.30921434911E+02 -0.16664491503E+03  0.16960536323E+03  0.00000000000E+00 0. -1.
        -14    1    4    4    0    0  0.14402207099E+02 -0.41218640550E+02 -0.82175954353E+02  0.93055292014E+02  0.00000000000E+00 0.  1.
<mgrwt>
<rscale>  2 0.19066169E+03</rscale>
<asrwt>0</asrwt>
<pdfrwt beam="1">  1       21 0.94209632E-01 0.19112439E+03</pdfrwt>
<pdfrwt beam="2">  1       21 0.52943410E-01 0.19112439E+03</pdfrwt>
<totfact> 0.31973787E+03</totfact>
</mgrwt>
</event>
<event>
12    1  0.1074575E-001  0.2012974E+03  0.7546771E-02  0.1149048E+00
         21   -1    0    0  501  502  0.00000000000E+00  0.00000000000E+00  0.22240695979E+03  0.22240695979E+03  0.00000000000E+00 0. -1.
         21   -1    0    0  502  503 -0.00000000000E+00 -0.00000000000E+00 -0.23832161622E+03  0.23832161622E+03  0.00000000000E+00 0. -1.
         -6    2    1    2    0  503  0.47034916219E+02  0.87383055134E+02 -0.12147768797E+03  0.23511164609E+03  0.17513587805E+03 0.  0.
        -24    2    3    3    0    0  0.36109323571E+02  0.10165414959E+03 -0.14968458241E+03  0.20133663157E+03  0.80582353056E+02 0.  0.
          6    2    1    2  501    0 -0.47034916219E+02 -0.87383055134E+02  0.10556303154E+03  0.22561692993E+03  0.17294902073E+03 0.  0.
         24    2    5    5    0    0  0.14572407888E+02 -0.92464006221E+02  0.30421690603E+02  0.12820240552E+03  0.82148828377E+02 0.  0.
          5    1    5    5  501    0 -0.61607324107E+02  0.50809510876E+01  0.75141340936E+02  0.97414524406E+02  0.47000000000E+01 0. -1.
        -11    1    6    6    0    0  0.11757436289E+02 -0.54832828273E+02 -0.24800230833E+02  0.61318250251E+02  0.00000000000E+00 0.  1.
         12    1    6    6    0    0  0.28149715984E+01 -0.37631177949E+02  0.55221921436E+02  0.66884155268E+02  0.00000000000E+00 0. -1.
         -5    1    3    3    0  503  0.10925592648E+02 -0.14271094460E+02  0.28206894435E+02  0.33775014514E+02  0.47000000000E+01 0.  1.
         13    1    4    4    0    0 -0.16994799902E+02  0.69756324837E+02 -0.68647258745E+02  0.99333852295E+02  0.00000000000E+00 0. -1.
        -14    1    4    4    0    0  0.53104123473E+02  0.31897824757E+02 -0.81037323662E+02  0.10200277928E+03  0.00000000000E+00 0.  1.
<mgrwt>
<rscale>  2 0.20082081E+03</rscale>
<asrwt>0</asrwt>
<pdfrwt beam="1">  1       21 0.34216455E-01 0.20129744E+03</pdfrwt>
<pdfrwt beam="2">  1       21 0.36664864E-01 0.20129744E+03</pdfrwt>
<totfact> 0.58808747E+04</totfact>
</mgrwt>
</event>
<event>
12    1  0.1074575E-001  0.2449418E+03  0.7546771E-02  0.1116839E+00
         21   -1    0    0  503  502  0.00000000000E+00  0.00000000000E+00  0.38331752875E+03  0.38331752875E+03  0.00000000000E+00 0. -1.
         21   -1    0    0  501  503 -0.00000000000E+00 -0.00000000000E+00 -0.18125288654E+03  0.18125288654E+03  0.00000000000E+00 0. -1.
          6    2    1    2  501    0 -0.12111447193E+02 -0.17237657035E+03 -0.53342852007E+01  0.24499984603E+03  0.17359752531E+03 0.  0.
         24    2    3    3    0    0  0.14988481162E+02 -0.29883509928E+02 -0.39986098741E+02  0.95796908495E+02  0.80377116467E+02 0.  0.
         -6    2    1    2    0  502  0.12111447193E+02  0.17237657035E+03  0.20739892741E+03  0.31957056926E+03  0.17102825639E+03 0.  0.
        -24    2    5    5    0    0 -0.86698061535E+01  0.37790339619E+02  0.14405836206E+03  0.16930603182E+03  0.80052766486E+02 0.  0.
          5    1    3    3  501    0 -0.27099928356E+02 -0.14249306043E+03  0.34651813541E+02  0.14920293753E+03  0.47000000000E+01 0. -1.
        -13    1    4    4    0    0 -0.12545124997E+02  0.26173601671E+01  0.19073593617E+02  0.22978962311E+02  0.00000000000E+00 0.  1.
         14    1    4    4    0    0  0.27533606159E+02 -0.32500870095E+02 -0.59059692358E+02  0.72817946184E+02  0.00000000000E+00 0. -1.
         -5    1    5    5    0  502  0.20781253347E+02  0.13458623074E+03  0.63340565350E+02  0.15026453744E+03  0.47000000000E+01 0.  1.
         11    1    6    6    0    0  0.29594987954E+02  0.24554096710E+02  0.31573645904E+02  0.49756025695E+02  0.00000000000E+00 0. -1.
        -12    1    6    6    0    0 -0.38264794108E+02  0.13236242908E+02  0.11248471616E+03  0.11955000612E+03  0.00000000000E+00 0.  1.
<mgrwt>
<rscale>  2 0.24448696E+03</rscale>
<asrwt>0</asrwt>
<pdfrwt beam="1">  1       21 0.58971927E-01 0.24494177E+03</pdfrwt>
<pdfrwt beam="2">  1       21 0.27885060E-01 0.24494177E+03</pdfrwt>
<totfact> 0.32171547E+04</totfact>
</mgrwt>
</event>
<event>
12    1  0.1074575E-001  0.2026277E+03  0.7546771E-02  0.1147762E+00
         21   -1    0    0  503  502  0.00000000000E+00  0.00000000000E+00  0.33569059215E+03  0.33569059215E+03  0.00000000000E+00 0.  1.
         21   -1    0    0  501  503 -0.00000000000E+00 -0.00000000000E+00 -0.12879119583E+03  0.12879119583E+03  0.00000000000E+00 0.  1.
          6    2    1    2  501    0 -0.67219612443E+02 -0.81450899685E+02  0.48577999050E+02  0.20733656616E+03  0.17168548081E+03 0.  0.
         24    2    3    3    0    0  0.10685687881E+02 -0.63063088415E+01 -0.12827994626E+02  0.82802508928E+02  0.80856320606E+02 0.  0.
         -6    2    1    2    0  502  0.67219612443E+02  0.81450899685E+02  0.15832139727E+03  0.25714522182E+03  0.17293141679E+03 0.  0.
        -24    2    5    5    0    0  0.11324436918E+03  0.57054270814E+02  0.10512156994E+03  0.18254103051E+03  0.78684219418E+02 0.  0.
          5    1    3    3  501    0 -0.77905300324E+02 -0.75144590844E+02  0.61405993677E+02  0.12453405723E+03  0.47000000000E+01 0. -1.
        -13    1    4    4    0    0  0.43586939735E+02 -0.16738294246E+02 -0.24247999105E+01  0.46753304314E+02  0.00000000000E+00 0.  1.
         14    1    4    4    0    0 -0.32901251854E+02  0.10431985404E+02 -0.10403194716E+02  0.36049204614E+02  0.00000000000E+00 0. -1.
         -5    1    5    5    0  502 -0.46024756734E+02  0.24396628872E+02  0.53199827324E+02  0.74604191303E+02  0.47000000000E+01 0.  1.
         13    1    6    6    0    0  0.18304444786E+02 -0.12359160923E+02  0.45735834050E+02  0.50789448450E+02  0.00000000000E+00 0. -1.
        -14    1    6    6    0    0  0.94939924390E+02  0.69413431736E+02  0.59385735894E+02  0.13175158206E+03  0.00000000000E+00 0.  1.
<mgrwt>
<rscale>  2 0.20236164E+03</rscale>
<asrwt>0</asrwt>
<pdfrwt beam="1">  1       21 0.51644706E-01 0.20262774E+03</pdfrwt>
<pdfrwt beam="2">  1       21 0.19814030E-01 0.20262774E+03</pdfrwt>
<totfact> 0.83293138E+04</totfact>
</mgrwt>
</event>
<event>
12    1  0.1074575E-001  0.1741710E+03  0.7546771E-02  0.1173837E+00
         21   -1    0    0  503  502  0.00000000000E+00  0.00000000000E+00  0.69717245083E+02  0.69717245083E+02  0.00000000000E+00 0. -1.
         21   -1    0    0  501  503 -0.00000000000E+00 -0.00000000000E+00 -0.63891565188E+03  0.63891565188E+03  0.00000000000E+00 0.  1.
          6    2    1    2  501    0  0.20408231659E+02 -0.13699540538E+01 -0.48660113727E+03  0.51683287310E+03  0.17296583257E+03 0.  0.
         24    2    3    3    0    0 -0.38873874430E+02 -0.18805558727E+02 -0.39896815286E+03  0.40950161778E+03  0.81554649267E+02 0.  0.
         -6    2    1    2    0  502 -0.20408231659E+02  0.13699540538E+01 -0.82597269526E+02  0.19180002386E+03  0.17189115022E+03 0.  0.
        -24    2    5    5    0    0 -0.17122557795E+02  0.16161197341E+02 -0.12280867670E+03  0.14857244242E+03  0.80233616949E+02 0.  0.
          5    1    3    3  501    0  0.59282106089E+02  0.17435604674E+02 -0.87632984411E+02  0.10733125532E+03  0.47000000000E+01 0. -1.
        -13    1    4    4    0    0  0.74544123860E+01 -0.34909924732E+02 -0.25317752789E+03  0.25568170005E+03  0.00000000000E+00 0.  1.
         14    1    4    4    0    0 -0.46328286816E+02  0.16104366004E+02 -0.14579062496E+03  0.15381991773E+03  0.00000000000E+00 0. -1.
         -5    1    5    5    0  502 -0.32856738643E+01 -0.14791243287E+02  0.40211407170E+02  0.43227581442E+02  0.47000000000E+01 0.  1.
         13    1    6    6    0    0 -0.12606066549E+02  0.38975539532E+01  0.90932256054E+01  0.16024686973E+02  0.00000000000E+00 0. -1.
        -14    1    6    6    0    0 -0.45164912453E+01  0.12263643388E+02 -0.13190190230E+03  0.13254775544E+03  0.00000000000E+00 0.  1.
<mgrwt>
<rscale>  2 0.17390363E+03</rscale>
<asrwt>0</asrwt>
<pdfrwt beam="1">  1       21 0.10725730E-01 0.17417104E+03</pdfrwt>
<pdfrwt beam="2">  1       21 0.98294715E-01 0.17417104E+03</pdfrwt>
<totfact> 0.61828281E+04</totfact>
</mgrwt>
</event>
<event>
12    1  0.1074575E-001  0.2097999E+03  0.7546771E-02  0.1141980E+00
         21   -1    0    0  501  502  0.00000000000E+00  0.00000000000E+00  0.23893722488E+03  0.23893722488E+03  0.00000000000E+00 0. -1.
         21   -1    0    0  502  503 -0.00000000000E+00 -0.00000000000E+00 -0.18369765169E+03  0.18369765169E+03  0.00000000000E+00 0.  1.
         -6    2    1    2    0  503 -0.11726678590E+03  0.22792872433E+02  0.15564398466E+02  0.21037645003E+03  0.17246734798E+03 0.  0.
        -24    2    3    3    0    0 -0.58095257071E+02  0.15267302314E+02 -0.56654352798E+02  0.11659189872E+03  0.82315282562E+02 0.  0.
          6    2    1    2  501    0  0.11726678590E+03 -0.22792872433E+02  0.39675174721E+02  0.21225842654E+03  0.17090496200E+03 0.  0.
         24    2    5    5    0    0  0.13411059073E+03 -0.28599218695E+02 -0.99406218866E+01  0.15933164040E+03  0.80524467160E+02 0.  0.
          5    1    5    5  501    0 -0.16843804828E+02  0.58063462627E+01  0.49615796607E+02  0.52926786139E+02  0.47000000000E+01 0. -1.
        -13    1    6    6    0    0  0.33153647844E+02  0.29844756954E+01 -0.37375394343E+02  0.50049890737E+02  0.00000000000E+00 0.  1.
         14    1    6    6    0    0  0.10095694289E+03 -0.31583694391E+02  0.27434772457E+02  0.10928174966E+03  0.00000000000E+00 0. -1.
         -5    1    3    3    0  503 -0.59171528833E+02  0.75255701191E+01  0.72218751264E+02  0.93784551309E+02  0.47000000000E+01 0.  1.
         13    1    4    4    0    0 -0.25517081142E+02 -0.24657174777E+02  0.54429549465E+01  0.35898794639E+02  0.00000000000E+00 0. -1.
        -14    1    4    4    0    0 -0.32578175928E+02  0.39924477091E+02 -0.62097307745E+02  0.80693104086E+02  0.00000000000E+00 0.  1.
<mgrwt>
<rscale>  2 0.20947855E+03</rscale>
<asrwt>0</asrwt>
<pdfrwt beam="1">  1       21 0.36759573E-01 0.20979991E+03</pdfrwt>
<pdfrwt beam="2">  1       21 0.28261177E-01 0.20979991E+03</pdfrwt>
<totfact> 0.84796780E+04</totfact>
</mgrwt>
</event>
<event>
12    1  0.1074575E-001  0.2833660E+03  0.7546771E-02  0.1094254E+00
         21   -1    0    0  501  502  0.00000000000E+00  0.00000000000E+00  0.57367345535E+03  0.57367345535E+03  0.00000000000E+00 0. -1.
         21   -1    0    0  502  503 -0.00000000000E+00 -0.00000000000E+00 -0.14308895800E+03  0.14308895800E+03  0.00000000000E+00 0.  1.
         -6    2    1    2    0  503 -0.12503165900E+03 -0.18321328787E+03  0.15252787640E+03  0.32180902188E+03  0.17634134194E+03 0.  0.
        -24    2    3    3    0    0 -0.12051587697E+03 -0.52019710206E+02  0.91835554611E+02  0.17711004112E+03  0.75525298556E+02 0.  0.
          6    2    1    2  501    0  0.12503165900E+03  0.18321328787E+03  0.27805662095E+03  0.39495339147E+03  0.17167606815E+03 0.  0.
         24    2    5    5    0    0  0.95759903169E+02  0.77085331549E+02  0.23396124458E+03  0.27626695155E+03  0.80457797390E+02 0.  0.
          5    1    5    5  501    0  0.29271755827E+02  0.10612795632E+03  0.44095376373E+02  0.11868643992E+03  0.47000000000E+01 0. -1.
        -13    1    6    6    0    0  0.10068015178E+02 -0.85638414545E+00 -0.45754143064E+01  0.11092012419E+02  0.00000000000E+00 0.  1.
         14    1    6    6    0    0  0.85691887991E+02  0.77941715694E+02  0.23853665889E+03  0.26517493913E+03  0.00000000000E+00 0. -1.
         -5    1    3    3    0  503 -0.45157820251E+01 -0.13119357767E+03  0.60692321784E+02  0.14469898076E+03  0.47000000000E+01 0.  1.
         11    1    4    4    0    0 -0.11996691183E+03 -0.64973582356E+02  0.91243457110E+02  0.16413102937E+03  0.00000000000E+00 0. -1.
        -12    1    4    4    0    0 -0.54896514226E+00  0.12953872150E+02  0.59209750083E+00  0.12979011744E+02  0.00000000000E+00 0.  1.
<mgrwt>
<rscale>  2 0.28264338E+03</rscale>
<asrwt>0</asrwt>
<pdfrwt beam="1">  1       21 0.88257454E-01 0.28336601E+03</pdfrwt>
<pdfrwt beam="2">  1       21 0.22013686E-01 0.28336601E+03</pdfrwt>
<totfact> 0.20216654E+04</totfact>
</mgrwt>
</event>
<event>
12    1  0.1074575E-001  0.2156130E+03  0.7546771E-02  0.1137541E+00
         21   -1    0    0  503  502  0.00000000000E+00  0.00000000000E+00  0.26780485376E+03  0.26780485376E+03  0.00000000000E+00 0. -1.
         21   -1    0    0  501  503 -0.00000000000E+00 -0.00000000000E+00 -0.19881612536E+03  0.19881612536E+03  0.00000000000E+00 0. -1.
          6    2    1    2  501    0 -0.32812686602E+02  0.12258105373E+03 -0.50818112139E+02  0.22152078369E+03  0.17431635021E+03 0.  0.
         24    2    3    3    0    0 -0.91121580685E+01 -0.61249977066E+01  0.11544199128E+02  0.76475581785E+02  0.74797720917E+02 0.  0.
         -6    2    1    2    0  502  0.32812686602E+02 -0.12258105373E+03  0.11980684054E+03  0.24510019543E+03  0.17209776183E+03 0.  0.
        -24    2    5    5    0    0  0.67710788671E+02 -0.51036501037E+02  0.20446530771E+02  0.11769901135E+03  0.79028610717E+02 0.  0.
          5    1    3    3  501    0 -0.23700528534E+02  0.12870605143E+03 -0.62362311267E+02  0.14504520190E+03  0.47000000000E+01 0. -1.
        -13    1    4    4    0    0  0.24365886666E+02  0.89110839454E+01  0.26279236058E+02  0.36928337330E+02  0.00000000000E+00 0.  1.
         14    1    4    4    0    0 -0.33478044735E+02 -0.15036081652E+02 -0.14735036930E+02  0.39547244456E+02  0.00000000000E+00 0. -1.
         -5    1    5    5    0  502 -0.34898102069E+02 -0.71544552690E+02  0.99360309771E+02  0.12740118408E+03  0.47000000000E+01 0.  1.
         11    1    6    6    0    0  0.49993723334E+02  0.50574759137E+01  0.29366934232E+02  0.58201093302E+02  0.00000000000E+00 0. -1.
        -12    1    6    6    0    0  0.17717065338E+02 -0.56093976950E+02 -0.89204034608E+01  0.59497918049E+02  0.00000000000E+00 0.  1.
<mgrwt>
<rscale>  2 0.21516421E+03</rscale>
<asrwt>0</asrwt>
<pdfrwt beam="1">  1       21 0.41200747E-01 0.21561303E+03</pdfrwt>
<pdfrwt beam="2">  1       21 0.30587096E-01 0.21561303E+03</pdfrwt>
<totfact> 0.57600908E+04</totfact>
</mgrwt>
</event>
<event>
12    1  0.1074575E-001  0.2332835E+03  0.7546771E-02  0.1124460E+00
         21   -1    0    0  501  502  0.00000000000E+00  0.00000000000E+00  0.19119306963E+04  0.19119306963E+04  0.00000000000E+00 0.  1.
         21   -1    0    0  502  503 -0.00000000000E+00 -0.00000000000E+00 -0.28449165534E+02  0.28449165534E+02  0.00000000000E+00 0. -1.
         -6    2    1    2    0  503  0.52208189333E+02 -0.14789237818E+03  0.98609370495E+03  0.10131656975E+04  0.17183155994E+03 0.  0.
        -24    2    3    3    0    0  0.68685981330E+02 -0.80241239959E+02  0.37046424013E+03  0.39359332711E+03  0.80718853502E+02 0.  0.
          6    2    1    2  501    0 -0.52208189333E+02  0.14789237818E+03  0.89738782579E+03  0.92721416436E+03  0.17269437210E+03 0.  0.
         24    2    5    5    0    0 -0.65249406026E+02  0.24890647187E+02  0.35233629883E+03  0.36828415425E+03  0.81334626657E+02 0.  0.
          5    1    5    5  501    0  0.13041216693E+02  0.12300173099E+03  0.54505152696E+03  0.55893001011E+03  0.47000000000E+01 0. -1.
        -13    1    6    6    0    0  0.98176275552E+01 -0.24216198624E+01  0.15589167219E+03  0.15621928022E+03  0.00000000000E+00 0.  1.
         14    1    6    6    0    0 -0.75067033581E+02  0.27312267050E+02  0.19644462664E+03  0.21206487403E+03  0.00000000000E+00 0. -1.
         -5    1    3    3    0  503 -0.16477791996E+02 -0.67651138217E+02  0.61562946482E+03  0.61957237034E+03  0.47000000000E+01 0.  1.
         11    1    4    4    0    0  0.15209363912E+02 -0.54648743017E+02  0.86044346564E+02  0.10306036794E+03  0.00000000000E+00 0. -1.
        -12    1    4    4    0    0  0.53476617417E+02 -0.25592496942E+02  0.28441989357E+03  0.29053295917E+03  0.00000000000E+00 0.  1.
<mgrwt>
<rscale>  2 0.23312385E+03</rscale>
<asrwt>0</asrwt>
<pdfrwt beam="1">  1       21 0.29414308E+00 0.23328351E+03</pdfrwt>
<pdfrwt beam="2">  1       21 0.43767962E-02 0.23328351E+03</pdfrwt>
<totfact> 0.11947697E+04</totfact>
</mgrwt>
</event>
<event>
12    1  0.1074575E-001  0.2371476E+03  0.7546771E-02  0.1121917E+00
         21   -1    0    0  503  502  0.00000000000E+00  0.00000000000E+00  0.15331103451E+04  0.15331103451E+04  0.00000000000E+00 0.  1.
         21   -1    0    0  501  503 -0.00000000000E+00 -0.00000000000E+00 -0.38974397626E+02  0.38974397626E+02  0.00000000000E+00 0.  1.
          6    2    1    2  501    0 -0.11434023194E+03 -0.11388135318E+03  0.94360448909E+03  0.97264845357E+03  0.17208408166E+03 0.  0.
         24    2    3    3    0    0 -0.44864932450E+02 -0.43462937528E+02  0.73790412307E+03  0.74434974336E+03  0.75180825332E+02 0.  0.
         -6    2    1    2    0  502  0.11434023194E+03  0.11388135318E+03  0.55053145836E+03  0.59943628913E+03  0.17377090332E+03 0.  0.
        -24    2    5    5    0    0  0.31838476876E+01  0.42784852764E+01  0.22378532552E+03  0.23728486260E+03  0.78713351966E+02 0.  0.
          5    1    3    3  501    0 -0.69475299495E+02 -0.70418415649E+02  0.20570036602E+03  0.22829871020E+03  0.47000000000E+01 0. -1.
        -11    1    4    4    0    0 -0.62439752828E+02 -0.37125891391E+02  0.44865674294E+03  0.45449964525E+03  0.00000000000E+00 0.  1.
         12    1    4    4    0    0  0.17574820377E+02 -0.63370461374E+01  0.28924738013E+03  0.28985009811E+03  0.00000000000E+00 0. -1.
         -5    1    5    5    0  502  0.11115638426E+03  0.10960286790E+03  0.32674613283E+03  0.36215142653E+03  0.47000000000E+01 0.  1.
         11    1    6    6    0    0 -0.12187245336E+02 -0.17987734921E+02  0.20024760104E+03  0.20142291151E+03  0.00000000000E+00 0. -1.
        -12    1    6    6    0    0  0.15371093024E+02  0.22266220197E+02  0.23537724482E+02  0.35861951096E+02  0.00000000000E+00 0.  1.
<mgrwt>
<rscale>  2 0.23683868E+03</rscale>
<asrwt>0</asrwt>
<pdfrwt beam="1">  1       21 0.23586308E+00 0.23714759E+03</pdfrwt>
<pdfrwt beam="2">  1       21 0.59960624E-02 0.23714759E+03</pdfrwt>
<totfact> 0.15358407E+04</totfact>
</mgrwt>
</event>
<event>
12    1  0.1074575E-001  0.2183518E+03  0.7546771E-02  0.1135556E+00
         21   -1    0    0  503  502  0.00000000000E+00  0.00000000000E+00  0.60541962741E+03  0.60541962741E+03  0.00000000000E+00 0. -1.
         21   -1    0    0  501  503 -0.00000000000E+00 -0.00000000000E+00 -0.14273503073E+03  0.14273503073E+03  0.00000000000E+00 0. -1.
          6    2    1    2  501    0  0.68935345985E+02  0.11106445534E+03 -0.20064084513E+02  0.21927173920E+03  0.17490035151E+03 0.  0.
         24    2    3    3    0    0  0.23814303519E+02  0.78910419184E+02  0.52451565608E+02  0.12789121596E+03  0.82528910556E+02 0.  0.
         -6    2    1    2    0  502 -0.68935345985E+02 -0.11106445534E+03  0.48274868120E+03  0.52888291894E+03  0.17199842321E+03 0.  0.
        -24    2    5    5    0    0 -0.23129460825E+02 -0.10961098025E+03  0.45451282031E+03  0.47484917444E+03  0.79688742546E+02 0.  0.
          5    1    3    3  501    0  0.45121042465E+02  0.32154036159E+02 -0.72515650121E+02  0.91380523236E+02  0.47000000000E+01 0. -1.
        -13    1    4    4    0    0 -0.17505292251E+02 -0.55945485252E+01  0.22754297371E+02  0.29248799614E+02  0.00000000000E+00 0.  1.
         14    1    4    4    0    0  0.41319595770E+02  0.84504967710E+02  0.29697268237E+02  0.98642416348E+02  0.00000000000E+00 0. -1.
         -5    1    5    5    0  502 -0.45805885160E+02 -0.14534750892E+01  0.28235860882E+02  0.54033744501E+02  0.47000000000E+01 0.  1.
         11    1    6    6    0    0 -0.19479606782E+02  0.98126259076E+00  0.27382311077E+02  0.33618579931E+02  0.00000000000E+00 0. -1.
        -12    1    6    6    0    0 -0.36498540431E+01 -0.11059224284E+03  0.42713050924E+03  0.44123059451E+03  0.00000000000E+00 0.  1.
<mgrwt>
<rscale>  2 0.21777016E+03</rscale>
<asrwt>0</asrwt>
<pdfrwt beam="1">  1       21 0.93141480E-01 0.21835184E+03</pdfrwt>
<pdfrwt beam="2">  1       21 0.21959236E-01 0.21835184E+03</pdfrwt>
<totfact> 0.18499939E+04</totfact>
</mgrwt>
</event>
<event>
12    1  0.1074575E-001  0.2375062E+03  0.7546771E-02  0.1121540E+00
         21   -1    0    0  501  502  0.00000000000E+00  0.00000000000E+00  0.73952289855E+03  0.73952289855E+03  0.00000000000E+00 0.  1.
         21   -1    0    0  502  503 -0.00000000000E+00 -0.00000000000E+00 -0.33802864191E+03  0.33802864191E+03  0.00000000000E+00 0. -1.
         -6    2    1    2    0  503  0.70249006113E+02 -0.14605831740E+03 -0.27352858465E+03  0.36196435673E+03  0.17300969332E+03 0.  0.
        -24    2    3    3    0    0  0.12558230996E+02 -0.13461759033E+03 -0.26033212242E+03  0.30150484644E+03  0.69661708783E+02 0.  0.
          6    2    1    2  501    0 -0.70249006113E+02  0.14605831740E+03  0.67502284130E+03  0.71558718373E+03  0.17361228732E+03 0.  0.
         24    2    5    5    0    0  0.15338548805E+02  0.10950807868E+03  0.30550208146E+03  0.33449817646E+03  0.79562666549E+02 0.  0.
          5    1    5    5  501    0 -0.85587554918E+02  0.36550238717E+02  0.36952075984E+03  0.38108900727E+03  0.47000000000E+01 0. -1.
        -13    1    6    6    0    0 -0.81879711153E+01 -0.10482930946E+02  0.40921342382E+02  0.43028955072E+02  0.00000000000E+00 0.  1.
         14    1    6    6    0    0  0.23526519920E+02  0.11999100962E+03  0.26458073907E+03  0.29146922139E+03  0.00000000000E+00 0. -1.
         -5    1    3    3    0  503  0.57690775117E+02 -0.11440727070E+02 -0.13196462232E+02  0.60459510293E+02  0.47000000000E+01 0.  1.
         11    1    4    4    0    0  0.31020803526E+02 -0.74359499684E+02 -0.94986347710E+02  0.12455533588E+03  0.00000000000E+00 0. -1.
        -12    1    4    4    0    0 -0.18462572530E+02 -0.60258090642E+02 -0.16534577471E+03  0.17694951056E+03  0.00000000000E+00 0.  1.
<mgrwt>
<rscale>  2 0.23739606E+03</rscale>
<asrwt>0</asrwt>
<pdfrwt beam="1">  1       21 0.11377275E+00 0.23750617E+03</pdfrwt>
<pdfrwt beam="2">  1       21 0.52004406E-01 0.23750617E+03</pdfrwt>
<totfact> 0.20333524E+03</totfact>
</mgrwt>
</event>
<event>
12    1  0.1074575E-001  0.2110042E+03  0.7546771E-02  0.1140931E+00
         21   -1    0    0  501  502  0.00000000000E+00  0.00000000000E+00  0.16324303284E+03  0.16324303284E+03  0.00000000000E+00 0.  1.
         21   -1    0    0  502  503 -0.00000000000E+00 -0.00000000000E+00 -0.34438379130E+03  0.34438379130E+03  0.00000000000E+00 0.  1.
         -6    2    1    2    0  503 -0.11125423237E+03 -0.45903794479E+02 -0.20730332793E+03  0.29579967934E+03  0.17331508289E+03 0.  0.
        -24    2    3    3    0    0 -0.64868286795E+02 -0.70957006081E+02 -0.54874861467E+02  0.13444340662E+03  0.76295398409E+02 0.  0.
          6    2    1    2  501    0  0.11125423237E+03  0.45903794479E+02  0.26162569458E+02  0.21182714480E+03  0.17234151173E+03 0.  0.
         24    2    5    5    0    0  0.75476783415E+02  0.97612401845E+02  0.22555439686E+02  0.14866934786E+03  0.79805396458E+02 0.  0.
          5    1    5    5  501    0  0.35777448960E+02 -0.51708607366E+02  0.36071297720E+01  0.63157796945E+02  0.47000000000E+01 0. -1.
        -13    1    6    6    0    0  0.14069981769E+02  0.65308493091E+01  0.34839172297E+02  0.38136390836E+02  0.00000000000E+00 0.  1.
         14    1    6    6    0    0  0.61406801645E+02  0.91081552536E+02 -0.12283732610E+02  0.11053295702E+03  0.00000000000E+00 0. -1.
         -5    1    3    3    0  503 -0.46385945580E+02  0.25053211602E+02 -0.15242846646E+03  0.16135627272E+03  0.47000000000E+01 0.  1.
         11    1    4    4    0    0 -0.18630940058E+01 -0.38484000027E+02  0.83934557411E+01  0.39432720888E+02  0.00000000000E+00 0. -1.
        -12    1    4    4    0    0 -0.63005192789E+02 -0.32473006053E+02 -0.63268317208E+02  0.95010685730E+02  0.00000000000E+00 0.  1.
<mgrwt>
<rscale>  2 0.21080420E+03</rscale>
<asrwt>0</asrwt>
<pdfrwt beam="1">  1       21 0.25114313E-01 0.21100422E+03</pdfrwt>
<pdfrwt beam="2">  1       21 0.52982121E-01 0.21100422E+03</pdfrwt>
<totfact> 0.50230776E+04</totfact>
</mgrwt>
</event>
<event>
12    1  0.1074575E-001  0.1763552E+03  0.7546771E-02  0.1171458E+00
         21   -1    0    0  501  502  0.00000000000E+00  0.00000000000E+00  0.64483685883E+02  0.64483685883E+02  0.00000000000E+00 0.  1.
         21   -1    0    0  502  503 -0.00000000000E+00 -0.00000000000E+00 -0.93573264575E+03  0.93573264575E+03  0.00000000000E+00 0.  1.
         -6    2    1    2    0  503 -0.11863320568E+02 -0.30670984046E+02 -0.78388631531E+03  0.80340832013E+03  0.17293272069E+03 0.  0.
        -24    2    3    3    0    0 -0.51137570109E+02  0.13203973892E+02 -0.64901872964E+03  0.65617098018E+03  0.80905177847E+02 0.  0.
          6    2    1    2  501    0  0.11863320568E+02  0.30670984046E+02 -0.87362644560E+02  0.19680801151E+03  0.17326198109E+03 0.  0.
         24    2    5    5    0    0  0.58050915194E+02  0.54869406632E+02 -0.27804607861E+02  0.11751042461E+03  0.81578447729E+02 0.  0.
          5    1    5    5  501    0 -0.46187594626E+02 -0.24198422585E+02 -0.59558036699E+02  0.79297586901E+02  0.47000000000E+01 0. -1.
        -13    1    6    6    0    0  0.29932395444E+02 -0.15782049296E+02 -0.23788395576E+02  0.41363137467E+02  0.00000000000E+00 0.  1.
         14    1    6    6    0    0  0.28118519750E+02  0.70651455928E+02 -0.40162122851E+01  0.76147287139E+02  0.00000000000E+00 0. -1.
         -5    1    3    3    0  503  0.39274249541E+02 -0.43874957939E+02 -0.13486758567E+03  0.14723733995E+03  0.47000000000E+01 0.  1.
         13    1    4    4    0    0 -0.23749721908E+02  0.45946512489E+02 -0.28470358448E+03  0.28936354697E+03  0.00000000000E+00 0. -1.
        -14    1    4    4    0    0 -0.27387848201E+02 -0.32742538597E+02 -0.36431514516E+03  0.36680743321E+03  0.00000000000E+00 0.  1.
<mgrwt>
<rscale>  2 0.17627429E+03</rscale>
<asrwt>0</asrwt>
<pdfrwt beam="1">  1       21 0.99205669E-02 0.17635521E+03</pdfrwt>
<pdfrwt beam="2">  1       21 0.14395887E+00 0.17635521E+03</pdfrwt>
<totfact> 0.27676649E+04</totfact>
</mgrwt>
</event>
<event>
12    1  0.1074575E-001  0.2047530E+03  0.7546771E-02  0.1145919E+00
         21   -1    0    0  503  502  0.00000000000E+00  0.00000000000E+00  0.74616756868E+03  0.74616756868E+03  0.00000000000E+00 0.  1.
         21   -1    0    0  501  503 -0.00000000000E+00 -0.00000000000E+00 -0.81175000127E+02  0.81175000127E+02  0.00000000000E+00 0.  1.
          6    2    1    2  501    0 -0.13548173794E+01  0.11069528989E+03  0.10253492579E+03  0.22899166958E+03  0.17224543824E+03 0.  0.
         24    2    3    3    0    0  0.46807357706E+02  0.86194056082E+02  0.11829397673E+03  0.17250854596E+03  0.78392534458E+02 0.  0.
         -6    2    1    2    0  502  0.13548173794E+01 -0.11069528989E+03  0.56245764276E+03  0.59835089923E+03  0.17149319512E+03 0.  0.
        -24    2    5    5    0    0 -0.17279675656E+02 -0.47580114569E+02  0.13067250770E+03  0.16155430750E+03  0.80386786909E+02 0.  0.
          5    1    3    3  501    0 -0.48162175085E+02  0.24501233812E+02 -0.15759050939E+02  0.56483123619E+02  0.47000000000E+01 0. -1.
        -13    1    4    4    0    0  0.36956188439E+02  0.63251088884E+02  0.27343244676E+02  0.78192794671E+02  0.00000000000E+00 0.  1.
         14    1    4    4    0    0  0.98511692663E+01  0.22942967198E+02  0.90950732054E+02  0.94315751287E+02  0.00000000000E+00 0. -1.
         -5    1    5    5    0  502  0.18634493036E+02 -0.63115175324E+02  0.43178513506E+03  0.43679659173E+03  0.47000000000E+01 0.  1.
         11    1    6    6    0    0  0.19194990085E+02 -0.16407623758E+02  0.10324396681E+03  0.10628722616E+03  0.00000000000E+00 0. -1.
        -12    1    6    6    0    0 -0.36474665742E+02 -0.31172490811E+02  0.27428540885E+02  0.55267081336E+02  0.00000000000E+00 0.  1.
<mgrwt>
<rscale>  2 0.20459467E+03</rscale>
<asrwt>0</asrwt>
<pdfrwt beam="1">  1       21 0.11479501E+00 0.20475296E+03</pdfrwt>
<pdfrwt beam="2">  1       21 0.12488462E-01 0.20475296E+03</pdfrwt>
<totfact> 0.31945228E+04</totfact>
</mgrwt>
</event>
<event>
12    1  0.1074575E-001  0.2089209E+03  0.7546771E-02  0.1142797E+00
         21   -1    0    0  501  502  0.00000000000E+00  0.00000000000E+00  0.13446724454E+03  0.13446724454E+03  0.00000000000E+00 0. -1.
         21   -1    0    0  502  503 -0.00000000000E+00 -0.00000000000E+00 -0.47914387993E+03  0.47914387993E+03  0.00000000000E+00 0.  1.
         -6    2    1    2    0  503 -0.10593414579E+03  0.52415467272E+02 -0.34872476868E+03  0.40651802296E+03  0.17227453164E+03 0.  0.
        -24    2    3    3    0    0 -0.52777310134E+02  0.92370188828E+02 -0.28436595021E+03  0.31385639949E+03  0.79524522054E+02 0.  0.
          6    2    1    2  501    0  0.10593414579E+03 -0.52415467272E+02  0.40481332802E+01  0.20709310151E+03  0.17000512008E+03 0.  0.
         24    2    5    5    0    0  0.14125702448E+03 -0.57640597955E+02 -0.88516997727E+01  0.16883733799E+03  0.71775403973E+02 0.  0.
          5    1    5    5  501    0 -0.35322878683E+02  0.52251306831E+01  0.12899833053E+02  0.38255763512E+02  0.47000000000E+01 0. -1.
        -11    1    6    6    0    0  0.34194063179E+02  0.16805852172E+02  0.45347687201E+00  0.38103494133E+02  0.00000000000E+00 0.  1.
         12    1    6    6    0    0  0.10706296130E+03 -0.74446450126E+02 -0.93051766447E+01  0.13073384386E+03  0.00000000000E+00 0. -1.
         -5    1    3    3    0  503 -0.53156835658E+02 -0.39954721557E+02 -0.64358818463E+02  0.92661623479E+02  0.47000000000E+01 0.  1.
         13    1    4    4    0    0 -0.44618752844E+02  0.68573332875E+02 -0.10688481733E+03  0.13460126026E+03  0.00000000000E+00 0. -1.
        -14    1    4    4    0    0 -0.81585572898E+01  0.23796855953E+02 -0.17748113288E+03  0.17925513923E+03  0.00000000000E+00 0.  1.
<mgrwt>
<rscale>  2 0.20845248E+03</rscale>
<asrwt>0</asrwt>
<pdfrwt beam="1">  1       21 0.20687269E-01 0.20892089E+03</pdfrwt>
<pdfrwt beam="2">  1       21 0.73714443E-01 0.20892089E+03</pdfrwt>
<totfact> 0.35496951E+04</totfact>
</mgrwt>
</event>
<event>
12    1  0.1074575E-001  0.1743387E+03  0.7546771E-02  0.1173639E+00
         21   -1    0    0  503  502  0.00000000000E+00  0.00000000000E+00  0.68656919901E+02  0.68656919901E+02  0.00000000000E+00 0. -1.
         21   -1    0    0  501  503 -0.00000000000E+00 -0.00000000000E+00 -0.50806875451E+03  0.50806875451E+03  0.00000000000E+00 0. -1.
          6    2    1    2  501    0 -0.69388567275E+01 -0.20623872060E+02 -0.11384376602E+03  0.20741746665E+03  0.17201194895E+03 0.  0.
         24    2    3    3    0    0  0.47304611323E+02  0.24358443387E+02 -0.90917894223E+02  0.13316486989E+03  0.81460168585E+02 0.  0.
         -6    2    1    2    0  502  0.69388567275E+01  0.20623872060E+02 -0.32556806859E+03  0.36930820776E+03  0.17297541212E+03 0.  0.
        -24    2    5    5    0    0  0.31713021032E+02  0.70161073573E+02 -0.11686859082E+03  0.15333308054E+03  0.62645623320E+02 0.  0.
          5    1    3    3  501    0 -0.54243468050E+02 -0.44982315447E+02 -0.22925871792E+02  0.74252596766E+02  0.47000000000E+01 0. -1.
        -11    1    4    4    0    0 -0.52395070247E+01  0.24653842148E+02 -0.73668801783E+02  0.77861137435E+02  0.00000000000E+00 0.  1.
         12    1    4    4    0    0  0.52544118347E+02 -0.29539876093E+00 -0.17249092440E+02  0.55303732454E+02  0.00000000000E+00 0. -1.
         -5    1    5    5    0  502 -0.24774164305E+02 -0.49537201513E+02 -0.20869947778E+03  0.21597512721E+03  0.47000000000E+01 0.  1.
         11    1    6    6    0    0 -0.18104731728E+01  0.62259502963E+02 -0.90926153551E+02  0.11021383272E+03  0.00000000000E+00 0. -1.
        -12    1    6    6    0    0  0.33523494205E+02  0.79015706096E+01 -0.25942437265E+02  0.43119247826E+02  0.00000000000E+00 0.  1.
<mgrwt>
<rscale>  2 0.17409924E+03</rscale>
<asrwt>0</asrwt>
<pdfrwt beam="1">  1       21 0.10562603E-01 0.17433871E+03</pdfrwt>
<pdfrwt beam="2">  1       21 0.78164426E-01 0.17433871E+03</pdfrwt>
<totfact> 0.10750401E+05</totfact>
</mgrwt>
</event>
<event>
12    1  0.1074575E-001  0.1765954E+03  0.7546771E-02  0.1171278E+00
         21   -1    0    0  501  502  0.00000000000E+00  0.00000000000E+00  0.56305764850E+02  0.56305764850E+02  0.00000000000E+00 0.  1.
         21   -1    0    0  502  503 -0.00000000000E+00 -0.00000000000E+00 -0.71829676209E+03  0.71829676209E+03  0.00000000000E+00 0.  1.
         -6    2    1    2    0  503  0.92586780901E+01 -0.29364399181E+02 -0.51688246580E+03  0.54603652011E+03  0.17332168585E+03 0.  0.
        -24    2    3    3    0    0  0.10226469588E+02  0.43649604530E+02 -0.18500191999E+03  0.20618542324E+03  0.79226571938E+02 0.  0.
          6    2    1    2  501    0 -0.92586780901E+01  0.29364399181E+02 -0.14510853143E+03  0.22856600682E+03  0.17389060504E+03 0.  0.
         24    2    5    5    0    0 -0.24085955580E+02  0.54654661939E+02 -0.16503382317E+03  0.19280915015E+03  0.79824433994E+02 0.  0.
          5    1    5    5  501    0  0.14827277490E+02 -0.25290262758E+02  0.19925291740E+02  0.35756856672E+02  0.47000000000E+01 0. -1.
        -13    1    6    6    0    0  0.11158141363E+02  0.59335306495E+02 -0.12770779274E+03  0.14126026703E+03  0.00000000000E+00 0.  1.
         14    1    6    6    0    0 -0.35244096943E+02 -0.46806445563E+01 -0.37326030436E+02  0.51548883120E+02  0.00000000000E+00 0. -1.
         -5    1    3    3    0  503 -0.96779149791E+00 -0.73014003710E+02 -0.33188054581E+03  0.33985109687E+03  0.47000000000E+01 0.  1.
         11    1    4    4    0    0 -0.32011092357E+02  0.34040547160E+01 -0.55754819688E+02  0.64380878690E+02  0.00000000000E+00 0. -1.
        -12    1    4    4    0    0  0.42237561945E+02  0.40245549814E+02 -0.12924710031E+03  0.14180454455E+03  0.00000000000E+00 0.  1.
<mgrwt>
<rscale>  2 0.17645518E+03</rscale>
<asrwt>0</asrwt>
<pdfrwt beam="1">  1       21 0.86624262E-02 0.17659540E+03</pdfrwt>
<pdfrwt beam="2">  1       21 0.11050718E+00 0.17659540E+03</pdfrwt>
<totfact> 0.67975179E+04</totfact>
</mgrwt>
</event>
<event>
12    1  0.1074575E-001  0.1983858E+03  0.7546771E-02  0.1151437E+00
         21   -1    0    0  503  502  0.00000000000E+00  0.00000000000E+00  0.43321912995E+03  0.43321912995E+03  0.00000000000E+00 0. -1.
         21   -1    0    0  501  503 -0.00000000000E+00 -0.00000000000E+00 -0.95662277021E+02  0.95662277021E+02  0.00000000000E+00 0. -1.
          6    2    1    2  501    0  0.76045502146E+02 -0.56403571119E+02  0.10588811921E+03  0.22487600017E+03  0.17433485145E+03 0.  0.
         24    2    3    3    0    0  0.25806135299E+01 -0.14658103583E+02  0.11457569718E+03  0.13980345507E+03  0.78714014629E+02 0.  0.
         -6    2    1    2    0  502 -0.76045502146E+02  0.56403571119E+02  0.23166873372E+03  0.30400540680E+03  0.17258216580E+03 0.  0.
        -24    2    5    5    0    0 -0.11434570991E+03  0.31753451942E+02  0.13826556226E+03  0.19998244430E+03  0.82415952538E+02 0.  0.
          5    1    3    3  501    0  0.73464888616E+02 -0.41745467535E+02 -0.86875779632E+01  0.85072545101E+02  0.47000000000E+01 0. -1.
        -13    1    4    4    0    0 -0.33446772821E+02 -0.36572162032E+01  0.22926286773E+02  0.40714573161E+02  0.00000000000E+00 0.  1.
         14    1    4    4    0    0  0.36027386351E+02 -0.11000887380E+02  0.91649410403E+02  0.99088881908E+02  0.00000000000E+00 0. -1.
         -5    1    5    5    0  502  0.38300207769E+02  0.24650119177E+02  0.93403171453E+02  0.10402296250E+03  0.47000000000E+01 0.  1.
         13    1    6    6    0    0 -0.34390922940E+02 -0.17604960567E+02  0.81525893538E+02  0.90217190903E+02  0.00000000000E+00 0. -1.
        -14    1    6    6    0    0 -0.79954786975E+02  0.49358412508E+02  0.56739668724E+02  0.10976525339E+03  0.00000000000E+00 0.  1.
<mgrwt>
<rscale>  2 0.19800006E+03</rscale>
<asrwt>0</asrwt>
<pdfrwt beam="1">  1       21 0.66649095E-01 0.19838579E+03</pdfrwt>
<pdfrwt beam="2">  1       21 0.14717274E-01 0.19838579E+03</pdfrwt>
<totfact> 0.83595960E+04</totfact>
</mgrwt>
</event>
<event>
12    1  0.1074575E-001  0.2187795E+03  0.7546771E-02  0.1134921E+00
         21   -1    0    0  501  502  0.00000000000E+00  0.00000000000E+00  0.11346869981E+04  0.11346869981E+04  0.00000000000E+00 0. -1.
         21   -1    0    0  502  503 -0.00000000000E+00 -0.00000000000E+00 -0.44451050870E+02  0.44451050870E+02  0.00000000000E+00 0.  1.
         -6    2    1    2    0  503  0.11721816680E+03  0.56974646378E+02  0.40745046065E+03  0.46215792695E+03  0.17489386096E+03 0.  0.
        -24    2    3    3    0    0  0.89528543179E+01  0.50861077550E+01  0.25090879039E+03  0.26482272265E+03  0.84082288535E+02 0.  0.
          6    2    1    2  501    0 -0.11721816680E+03 -0.56974646378E+02  0.68278548659E+03  0.71698012203E+03  0.17572212647E+03 0.  0.
         24    2    5    5    0    0 -0.11264876062E+03 -0.89463966828E+02  0.65018510537E+03  0.67049022773E+03  0.78249150874E+02 0.  0.
          5    1    5    5  501    0 -0.45694061847E+01  0.32489320450E+02  0.32600381227E+02  0.46489894303E+02  0.47000000000E+01 0. -1.
        -13    1    6    6    0    0 -0.12347849052E+03 -0.88987753996E+02  0.62029057762E+03  0.63869097274E+03  0.00000000000E+00 0.  1.
         14    1    6    6    0    0  0.10829729903E+02 -0.47621283229E+00  0.29894527749E+02  0.31799254987E+02  0.00000000000E+00 0. -1.
         -5    1    3    3    0  503  0.10826531248E+03  0.51888538623E+02  0.15654167026E+03  0.19733520430E+03  0.47000000000E+01 0.  1.
         11    1    4    4    0    0 -0.61179219388E+01  0.36694919219E+02  0.19739433633E+03  0.20086928606E+03  0.00000000000E+00 0. -1.
        -12    1    4    4    0    0  0.15070776257E+02 -0.31608811464E+02  0.53514454061E+02  0.63953436597E+02  0.00000000000E+00 0.  1.
<mgrwt>
<rscale>  2 0.21861315E+03</rscale>
<asrwt>0</asrwt>
<pdfrwt beam="1">  1       21 0.17456721E+00 0.21877951E+03</pdfrwt>
<pdfrwt beam="2">  1       21 0.68386241E-02 0.21877951E+03</pdfrwt>
<totfact> 0.30705650E+04</totfact>
</mgrwt>
</event>
<event>
12    1  0.1074575E-001  0.1749669E+03  0.7546771E-02  0.1173295E+00
         21   -1    0    0  503  502  0.00000000000E+00  0.00000000000E+00  0.38247634266E+02  0.38247634266E+02  0.00000000000E+00 0. -1.
         21   -1    0    0  501  503 -0.00000000000E+00 -0.00000000000E+00 -0.10061685050E+04  0.10061685050E+04  0.00000000000E+00 0. -1.
          6    2    1    2  501    0 -0.20572982458E+01 -0.24041607701E+02 -0.72324459981E+03  0.74361738501E+03  0.17117778116E+03 0.  0.
         24    2    3    3    0    0 -0.42881863768E+02 -0.29199490654E+02 -0.20066918151E+03  0.21940330020E+03  0.71959872396E+02 0.  0.
         -6    2    1    2    0  502  0.20572982458E+01  0.24041607701E+02 -0.24467627096E+03  0.30079875428E+03  0.17329507100E+03 0.  0.
        -24    2    5    5    0    0  0.62183253151E+02 -0.15457789273E+02 -0.13515980580E+03  0.16968323669E+03  0.80115713110E+02 0.  0.
          5    1    3    3  501    0  0.40824565522E+02  0.51578829532E+01 -0.52257541830E+03  0.52421408482E+03  0.47000000000E+01 0. -1.
        -13    1    4    4    0    0 -0.30689121745E+02 -0.53412555523E+02 -0.13910934167E+03  0.15213852971E+03  0.00000000000E+00 0.  1.
         14    1    4    4    0    0 -0.12192742023E+02  0.24213064868E+02 -0.61559839837E+02  0.67264770490E+02  0.00000000000E+00 0. -1.
         -5    1    5    5    0  502 -0.60125954905E+02  0.39499396974E+02 -0.10951646516E+03  0.13111551760E+03  0.47000000000E+01 0.  1.
         13    1    6    6    0    0  0.52613140459E+02  0.25000926582E+02 -0.58977209197E+02  0.82894511782E+02  0.00000000000E+00 0. -1.
        -14    1    6    6    0    0  0.95701126922E+01 -0.40458715855E+02 -0.76182596601E+02  0.86788724904E+02  0.00000000000E+00 0.  1.
<mgrwt>
<rscale>  2 0.17444032E+03</rscale>
<asrwt>0</asrwt>
<pdfrwt beam="1">  1       21 0.58842502E-02 0.17496689E+03</pdfrwt>
<pdfrwt beam="2">  1       21 0.15479519E+00 0.17496689E+03</pdfrwt>
<totfact> 0.56628209E+04</totfact>
</mgrwt>
</event>
<event>
12    1  0.1074575E-001  0.1775907E+03  0.7546771E-02  0.1170992E+00
         21   -1    0    0  503  502  0.00000000000E+00  0.00000000000E+00  0.31320505418E+02  0.31320505418E+02  0.00000000000E+00 0. -1.
         21   -1    0    0  501  503 -0.00000000000E+00 -0.00000000000E+00 -0.11881016703E+04  0.11881016703E+04  0.00000000000E+00 0. -1.
          6    2    1    2  501    0 -0.35227190730E+02 -0.17473273915E+02 -0.83321728231E+03  0.85193280186E+03  0.17318253110E+03 0.  0.
         24    2    3    3    0    0 -0.10162636391E+01  0.20928102555E+02 -0.19959255482E+03  0.21620688723E+03  0.80431411012E+02 0.  0.
         -6    2    1    2    0  502  0.35227190730E+02  0.17473273915E+02 -0.32356388256E+03  0.36748937384E+03  0.16973091505E+03 0.  0.
        -24    2    5    5    0    0  0.82634582331E+02  0.31095378837E+02 -0.26476078569E+03  0.29059388163E+03  0.80939073518E+02 0.  0.
          5    1    3    3  501    0 -0.34210927091E+02 -0.38401376470E+02 -0.63362472749E+03  0.63572591463E+03  0.47000000000E+01 0. -1.
        -11    1    4    4    0    0  0.11062015300E+02  0.10765997881E+02  0.54700438228E+00  0.15445844317E+02  0.00000000000E+00 0.  1.
         12    1    4    4    0    0 -0.12078278939E+02  0.10162104675E+02 -0.20013955920E+03  0.20076104291E+03  0.00000000000E+00 0. -1.
         -5    1    5    5    0  502 -0.47407391601E+02 -0.13622104922E+02 -0.58803096874E+02  0.76895492215E+02  0.47000000000E+01 0.  1.
         11    1    6    6    0    0  0.44655564547E+02  0.47584221784E+02 -0.91069139267E+02  0.11203555567E+03  0.00000000000E+00 0. -1.
        -12    1    6    6    0    0  0.37979017784E+02 -0.16488842946E+02 -0.17369164642E+03  0.17855832596E+03  0.00000000000E+00 0.  1.
<mgrwt>
<rscale>  2 0.17674360E+03</rscale>
<asrwt>0</asrwt>
<pdfrwt beam="1">  1       21 0.48185385E-02 0.17759071E+03</pdfrwt>
<pdfrwt beam="2">  1       21 0.18278490E+00 0.17759071E+03</pdfrwt>
<totfact> 0.50365204E+04</totfact>
</mgrwt>
</event>
<event>
12    1  0.1074575E-001  0.1937970E+03  0.7546771E-02  0.1155313E+00
         21   -1    0    0  501  502  0.00000000000E+00  0.00000000000E+00  0.68054143206E+03  0.68054143206E+03  0.00000000000E+00 0.  1.
         21   -1    0    0  502  503 -0.00000000000E+00 -0.00000000000E+00 -0.61923449245E+02  0.61923449245E+02  0.00000000000E+00 0. -1.
         -6    2    1    2    0  503  0.83424461717E+02  0.23143497627E+02  0.43519527851E+03  0.47639500859E+03  0.17338400006E+03 0.  0.
        -24    2    3    3    0    0  0.10300634859E+03  0.65894815954E+02  0.32923629060E+03  0.36037551613E+03  0.80756070708E+02 0.  0.
          6    2    1    2  501    0 -0.83424461717E+02 -0.23143497627E+02  0.18342270430E+03  0.26606987271E+03  0.17220344484E+03 0.  0.
         24    2    5    5    0    0 -0.60165714905E+02 -0.53210406742E+02  0.19556685769E+03  0.22588829996E+03  0.79547894983E+02 0.  0.
          5    1    5    5  501    0 -0.23258746812E+02  0.30066909115E+02 -0.12144153391E+02  0.40181572749E+02  0.47000000000E+01 0. -1.
        -11    1    6    6    0    0 -0.34586606312E+02 -0.70954790618E+02  0.11470696541E+03  0.13924260685E+03  0.00000000000E+00 0.  1.
         12    1    6    6    0    0 -0.25579108593E+02  0.17744383876E+02  0.80859892280E+02  0.86645693113E+02  0.00000000000E+00 0. -1.
         -5    1    3    3    0  503 -0.19581886878E+02 -0.42751318328E+02  0.10595898791E+03  0.11601949246E+03  0.47000000000E+01 0.  1.
         11    1    4    4    0    0 -0.96882472501E+00 -0.12573637303E+02  0.11878573552E+02  0.17324418778E+02  0.00000000000E+00 0. -1.
        -12    1    4    4    0    0  0.10397517332E+03  0.78468453257E+02  0.31735771705E+03  0.34305109735E+03  0.00000000000E+00 0.  1.
<mgrwt>
<rscale>  2 0.19353258E+03</rscale>
<asrwt>0</asrwt>
<pdfrwt beam="1">  1       21 0.10469868E+00 0.19379699E+03</pdfrwt>
<pdfrwt beam="2">  1       21 0.95266850E-02 0.19379699E+03</pdfrwt>
<totfact> 0.64993363E+04</totfact>
</mgrwt>
</event>
<event>
12    1  0.1074575E-001  0.1754657E+03  0.7546771E-02  0.1172328E+00
         21   -1    0    0  501  502  0.00000000000E+00  0.00000000000E+00  0.54030728990E+02  0.54030728990E+02  0.00000000000E+00 0.  1.
         21   -1    0    0  502  503 -0.00000000000E+00 -0.00000000000E+00 -0.60814368424E+03  0.60814368424E+03  0.00000000000E+00 0.  1.
         -6    2    1    2    0  503 -0.17751476620E+02 -0.25555528539E+02 -0.36086124315E+03  0.40114867372E+03  0.17242743882E+03 0.  0.
        -24    2    3    3    0    0 -0.42712748237E+02 -0.41985477312E+01 -0.89881486905E+02  0.12814445396E+03  0.80624516917E+02 0.  0.
          6    2    1    2  501    0  0.17751476620E+02  0.25555528539E+02 -0.19325171209E+03  0.26102573951E+03  0.17268471993E+03 0.  0.
         24    2    5    5    0    0  0.43406671385E+02 -0.44082807938E+02 -0.10444456666E+03  0.14519618367E+03  0.79660725391E+02 0.  0.
          5    1    5    5  501    0 -0.25655194765E+02  0.69638336478E+02 -0.88807145431E+02  0.11582955584E+03  0.47000000000E+01 0. -1.
        -11    1    6    6    0    0  0.53084725556E+02 -0.97863064136E+01 -0.27900813186E+02  0.60763601416E+02  0.00000000000E+00 0.  1.
         12    1    6    6    0    0 -0.96780541709E+01 -0.34296501525E+02 -0.76543753478E+02  0.84432582252E+02  0.00000000000E+00 0. -1.
         -5    1    3    3    0  503  0.24961271617E+02 -0.21356980808E+02 -0.27097975625E+03  0.27300421976E+03  0.47000000000E+01 0.  1.
         13    1    4    4    0    0  0.42644415848E+01  0.19902421820E+02 -0.68017583147E+02  0.70997770906E+02  0.00000000000E+00 0. -1.
        -14    1    4    4    0    0 -0.46977189822E+02 -0.24100969551E+02 -0.21863903757E+02  0.57146683057E+02  0.00000000000E+00 0.  1.
<mgrwt>
<rscale>  2 0.17540237E+03</rscale>
<asrwt>0</asrwt>
<pdfrwt beam="1">  1       21 0.83124195E-02 0.17546570E+03</pdfrwt>
<pdfrwt beam="2">  1       21 0.93560571E-01 0.17546570E+03</pdfrwt>
<totfact> 0.10850201E+05</totfact>
</mgrwt>
</event>
<event>
12    1  0.1074575E-001  0.2013074E+03  0.7546771E-02  0.1148786E+00
         21   -1    0    0  501  502  0.00000000000E+00  0.00000000000E+00  0.25368303663E+03  0.25368303663E+03  0.00000000000E+00 0. -1.
         21   -1    0    0  502  503 -0.00000000000E+00 -0.00000000000E+00 -0.65901043668E+03  0.65901043668E+03  0.00000000000E+00 0. -1.
         -6    2    1    2    0  503  0.85106363179E+02  0.52340496874E+02 -0.60017139152E+03  0.63303266204E+03  0.17476278591E+03 0.  0.
        -24    2    3    3    0    0  0.86483758015E+02  0.92160055781E+02 -0.36207507159E+03  0.39157988808E+03  0.79142498053E+02 0.  0.
          6    2    1    2  501    0 -0.85106363179E+02 -0.52340496874E+02  0.19484399147E+03  0.27966081127E+03  0.17396369645E+03 0.  0.
         24    2    5    5    0    0 -0.24932871999E+01 -0.27730175825E+02  0.18822239491E+02  0.83608942127E+02  0.76557164079E+02 0.  0.
          5    1    5    5  501    0 -0.82613075980E+02 -0.24610321049E+02  0.17602175198E+03  0.19605186914E+03  0.47000000000E+01 0. -1.
        -11    1    6    6    0    0 -0.13253604734E+02 -0.36288233072E+02 -0.19226315268E+02  0.43152579259E+02  0.00000000000E+00 0.  1.
         12    1    6    6    0    0  0.10760317534E+02  0.85580572468E+01  0.38048554759E+02  0.40456362868E+02  0.00000000000E+00 0. -1.
         -5    1    3    3    0  503 -0.13773948358E+01 -0.39819558908E+02 -0.23809631994E+03  0.24145277397E+03  0.47000000000E+01 0.  1.
         11    1    4    4    0    0  0.95267325703E+02  0.84448094277E+02 -0.35665573931E+03  0.37869599993E+03  0.00000000000E+00 0. -1.
        -12    1    4    4    0    0 -0.87835676881E+01  0.77119615043E+01 -0.54193322730E+01  0.12883888150E+02  0.00000000000E+00 0.  1.
<mgrwt>
<rscale>  2 0.20113380E+03</rscale>
<asrwt>0</asrwt>
<pdfrwt beam="1">  1       21 0.39028160E-01 0.20130736E+03</pdfrwt>
<pdfrwt beam="2">  1       21 0.10138622E+00 0.20130736E+03</pdfrwt>
<totfact> 0.49946129E+03</totfact>
</mgrwt>
</event>
<event>
12    1  0.1074575E-001  0.1876787E+03  0.7546771E-02  0.1164569E+00
         21   -1    0    0  503  502  0.00000000000E+00  0.00000000000E+00  0.44370997923E+03  0.44370997923E+03  0.00000000000E+00 0.  1.
         21   -1    0    0  501  503 -0.00000000000E+00 -0.00000000000E+00 -0.84238123163E+02  0.84238123163E+02  0.00000000000E+00 0.  1.
          6    2    1    2  501    0  0.69884881189E+02 -0.23487090220E+01  0.74192703039E+02  0.18646969224E+03  0.15613127773E+03 0.  0.
         24    2    3    3    0    0  0.10133170599E+03  0.36261464078E+01  0.80773618213E+02  0.15345454220E+03  0.82113674535E+02 0.  0.
         -6    2    1    2    0  502 -0.69884881189E+02  0.23487090220E+01  0.28527915303E+03  0.34147841016E+03  0.17416628950E+03 0.  0.
        -24    2    5    5    0    0 -0.15337200661E+02 -0.59815413033E+02  0.18743269855E+03  0.21327604600E+03  0.80885981173E+02 0.  0.
          5    1    3    3  501    0 -0.31446824802E+02 -0.59748554298E+01 -0.65809151741E+01  0.33015150038E+02  0.47000000000E+01 0. -1.
        -13    1    4    4    0    0  0.66471766185E+02  0.40102640954E+02  0.62937916720E+02  0.99939476046E+02  0.00000000000E+00 0.  1.
         14    1    4    4    0    0  0.34859939805E+02 -0.36476494546E+02  0.17835701492E+02  0.53515066153E+02  0.00000000000E+00 0. -1.
         -5    1    5    5    0  502 -0.54547680528E+02  0.62164122055E+02  0.97846454484E+02  0.12820236416E+03  0.47000000000E+01 0.  1.
         11    1    6    6    0    0  0.25007669065E+02  0.23065413982E+01  0.28869493591E+02  0.38264230104E+02  0.00000000000E+00 0. -1.
        -12    1    6    6    0    0 -0.40344869726E+02 -0.62121954431E+02  0.15856320496E+03  0.17501181589E+03  0.00000000000E+00 0.  1.
<mgrwt>
<rscale>  2 0.18338232E+03</rscale>
<asrwt>0</asrwt>
<pdfrwt beam="1">  1       21 0.68263072E-01 0.18767874E+03</pdfrwt>
<pdfrwt beam="2">  1       21 0.12959712E-01 0.18767874E+03</pdfrwt>
<totfact> 0.10028837E+05</totfact>
</mgrwt>
</event>
<event>
12    1  0.1074575E-001  0.1905902E+03  0.7546771E-02  0.1158469E+00
         21   -1    0    0  503  502  0.00000000000E+00  0.00000000000E+00  0.43095429951E+03  0.43095429951E+03  0.00000000000E+00 0.  1.
         21   -1    0    0  501  503 -0.00000000000E+00 -0.00000000000E+00 -0.85215234104E+02  0.85215234104E+02  0.00000000000E+00 0. -1.
          6    2    1    2  501    0 -0.12717639344E+02 -0.81012257570E+02  0.13461245449E+03  0.23333479861E+03  0.17204618889E+03 0.  0.
         24    2    3    3    0    0  0.40523361812E+02 -0.33214558277E+02  0.12939488301E+03  0.16144225857E+03  0.81087714045E+02 0.  0.
         -6    2    1    2    0  502  0.12717639344E+02  0.81012257570E+02  0.21112661092E+03  0.28283473501E+03  0.16939987385E+03 0.  0.
        -24    2    5    5    0    0  0.20877547650E+02  0.55285752244E+02  0.36914313711E+02  0.10648153351E+03  0.80518718475E+02 0.  0.
          5    1    3    3  501    0 -0.53241001156E+02 -0.47797699294E+02  0.52175714871E+01  0.71892540045E+02  0.47000000000E+01 0. -1.
        -13    1    4    4    0    0 -0.91503381980E+01 -0.41867096530E+02  0.39044024997E+02  0.57974290413E+02  0.00000000000E+00 0.  1.
         14    1    4    4    0    0  0.49673700010E+02  0.86525382531E+01  0.90350858009E+02  0.10346796815E+03  0.00000000000E+00 0. -1.
         -5    1    5    5    0  502 -0.81599083053E+01  0.25726505326E+02  0.17421229721E+03  0.17635320150E+03  0.47000000000E+01 0.  1.
         13    1    6    6    0    0  0.34420162919E+02  0.50810326225E+02  0.55710767341E+02  0.82886226022E+02  0.00000000000E+00 0. -1.
        -14    1    6    6    0    0 -0.13542615270E+02  0.44754260195E+01 -0.18796453630E+02  0.23595307488E+02  0.00000000000E+00 0.  1.
<mgrwt>
<rscale>  2 0.18999101E+03</rscale>
<asrwt>0</asrwt>
<pdfrwt beam="1">  1       21 0.66300660E-01 0.19059018E+03</pdfrwt>
<pdfrwt beam="2">  1       21 0.13110036E-01 0.19059018E+03</pdfrwt>
<totfact> 0.10458868E+05</totfact>
</mgrwt>
</event>
<event>
12    1  0.1074575E-001  0.3062642E+03  0.7546771E-02  0.1082152E+00
         21   -1    0    0  503  502  0.00000000000E+00  0.00000000000E+00  0.82215923872E+03  0.82215923872E+03  0.00000000000E+00 0.  1.
         21   -1    0    0  501  503 -0.00000000000E+00 -0.00000000000E+00 -0.16640287400E+03  0.16640287400E+03  0.00000000000E+00 0. -1.
          6    2    1    2  501    0  0.11289988430E+03 -0.22611208868E+03  0.50724802121E+02  0.31043636879E+03  0.17298749375E+03 0.  0.
         24    2    3    3    0    0  0.59311898259E+02 -0.21403719655E+03  0.78341577097E+02  0.24877396916E+03  0.80132778845E+02 0.  0.
         -6    2    1    2    0  502 -0.11289988430E+03  0.22611208868E+03  0.60503156260E+03  0.67812574393E+03  0.17296899233E+03 0.  0.
        -24    2    5    5    0    0 -0.92176122090E+01  0.35473191147E+02  0.19341917768E+03  0.21278710571E+03  0.80771668269E+02 0.  0.
          5    1    3    3  501    0  0.53587986042E+02 -0.12074892127E+02 -0.27616774976E+02  0.61662399629E+02  0.47000000000E+01 0. -1.
        -13    1    4    4    0    0  0.75549790094E+02 -0.13810532864E+03  0.63367138045E+02  0.16969456905E+03  0.00000000000E+00 0.  1.
         14    1    4    4    0    0 -0.16237891835E+02 -0.75931867919E+02  0.14974439052E+02  0.79079400110E+02  0.00000000000E+00 0. -1.
         -5    1    5    5    0  502 -0.10368227209E+03  0.19063889753E+03  0.41161238492E+03  0.46533863822E+03  0.47000000000E+01 0.  1.
         11    1    6    6    0    0  0.31159629473E+02 -0.34742376047E+01  0.87166468239E+02  0.92633611725E+02  0.00000000000E+00 0. -1.
        -12    1    6    6    0    0 -0.40377241682E+02  0.38947428752E+02  0.10625270944E+03  0.12015349398E+03  0.00000000000E+00 0.  1.
<mgrwt>
<rscale>  2 0.30626154E+03</rscale>
<asrwt>0</asrwt>
<pdfrwt beam="1">  1       21 0.12648603E+00 0.30626416E+03</pdfrwt>
<pdfrwt beam="2">  1       21 0.25600443E-01 0.30626416E+03</pdfrwt>
<totfact> 0.62391512E+03</totfact>
</mgrwt>
</event>
<event>
12    1  0.1074575E-001  0.2171965E+03  0.7546771E-02  0.1137433E+00
         21   -1    0    0  501  502  0.00000000000E+00  0.00000000000E+00  0.59239400657E+02  0.59239400657E+02  0.00000000000E+00 0.  1.
         21   -1    0    0  502  503 -0.00000000000E+00 -0.00000000000E+00 -0.90834551480E+03  0.90834551480E+03  0.00000000000E+00 0.  1.
         -6    2    1    2    0  503 -0.11585399634E+03 -0.29507618031E+02 -0.24150223779E+03  0.32480403941E+03  0.18133252650E+03 0.  0.
        -24    2    3    3    0    0 -0.15351442485E+03 -0.10328929897E+02 -0.20432634599E+03  0.26832159182E+03  0.81079316368E+02 0.  0.
          6    2    1    2  501    0  0.11585399634E+03  0.29507618031E+02 -0.60760387635E+03  0.64278087605E+03  0.17231348196E+03 0.  0.
         24    2    5    5    0    0  0.87837683730E+02 -0.45547737299E+02 -0.33189887293E+03  0.35563359842E+03  0.80798139943E+02 0.  0.
          5    1    5    5  501    0  0.28016312612E+02  0.75055355330E+02 -0.27570500342E+03  0.28714727762E+03  0.47000000000E+01 0. -1.
        -11    1    6    6    0    0  0.91837650085E+02 -0.10491277660E+02 -0.24329962124E+03  0.26026702936E+03  0.00000000000E+00 0.  1.
         12    1    6    6    0    0 -0.39999663549E+01 -0.35056459639E+02 -0.88599251693E+02  0.95366569057E+02  0.00000000000E+00 0. -1.
         -5    1    3    3    0  503  0.37660428509E+02 -0.19178688134E+02 -0.37175891800E+02  0.56482447585E+02  0.47000000000E+01 0.  1.
         13    1    4    4    0    0 -0.44265684253E+02 -0.39783078050E+02 -0.86168544268E+02  0.10472421937E+03  0.00000000000E+00 0. -1.
        -14    1    4    4    0    0 -0.10924874060E+03  0.29454148153E+02 -0.11815780172E+03  0.16359737245E+03  0.00000000000E+00 0.  1.
<mgrwt>
<rscale>  2 0.21530419E+03</rscale>
<asrwt>0</asrwt>
<pdfrwt beam="1">  1       21 0.91137543E-02 0.21719653E+03</pdfrwt>
<pdfrwt beam="2">  1       21 0.13974546E+00 0.21719653E+03</pdfrwt>
<totfact> 0.33863538E+04</totfact>
</mgrwt>
</event>
<event>
12    1  0.1074575E-001  0.1758385E+03  0.7546771E-02  0.1172388E+00
         21   -1    0    0  501  502  0.00000000000E+00  0.00000000000E+00  0.30892495928E+02  0.30892495928E+02  0.00000000000E+00 0.  1.
         21   -1    0    0  502  503 -0.00000000000E+00 -0.00000000000E+00 -0.10215705561E+04  0.10215705561E+04  0.00000000000E+00 0.  1.
         -6    2    1    2    0  503 -0.12418979320E+02 -0.25532894450E+02 -0.59106038988E+03  0.61666164135E+03  0.17353107988E+03 0.  0.
        -24    2    3    3    0    0 -0.21790865795E+02 -0.53752030617E+02 -0.19200792278E+03  0.21647529301E+03  0.81427191068E+02 0.  0.
          6    2    1    2  501    0  0.12418979320E+02  0.25532894450E+02 -0.39961767034E+03  0.43580141072E+03  0.17152966914E+03 0.  0.
         24    2    5    5    0    0  0.72857550343E+02  0.24247568573E+02 -0.21496047716E+03  0.24144390013E+03  0.78682799559E+02 0.  0.
          5    1    5    5  501    0 -0.60438571024E+02  0.12853258773E+01 -0.18465719318E+03  0.19435751059E+03  0.47000000000E+01 0. -1.
        -11    1    6    6    0    0  0.52555455090E+02  0.20951863593E+02 -0.50915878021E+02  0.76114933372E+02  0.00000000000E+00 0.  1.
         12    1    6    6    0    0  0.20302095254E+02  0.32957049803E+01 -0.16404459914E+03  0.16532896676E+03  0.00000000000E+00 0. -1.
         -5    1    3    3    0  503  0.93718864755E+01  0.28219136167E+02 -0.39905246710E+03  0.40018634834E+03  0.47000000000E+01 0.  1.
         11    1    4    4    0    0  0.14741228648E+02 -0.58253984576E+02 -0.91772454743E+02  0.10969509556E+03  0.00000000000E+00 0. -1.
        -12    1    4    4    0    0 -0.36532094443E+02  0.45019539589E+01 -0.10023546804E+03  0.10678019745E+03  0.00000000000E+00 0.  1.
<mgrwt>
<rscale>  2 0.17534274E+03</rscale>
<asrwt>0</asrwt>
<pdfrwt beam="1">  1       21 0.47526914E-02 0.17583855E+03</pdfrwt>
<pdfrwt beam="2">  1       21 0.15716471E+00 0.17583855E+03</pdfrwt>
<totfact> 0.78094499E+04</totfact>
</mgrwt>
</event>
<event>
12    1  0.1074575E-001  0.2189195E+03  0.7546771E-02  0.1134749E+00
         21   -1    0    0  501  502  0.00000000000E+00  0.00000000000E+00  0.21519339386E+03  0.21519339386E+03  0.00000000000E+00 0. -1.
         21   -1    0    0  502  503 -0.00000000000E+00 -0.00000000000E+00 -0.25816116658E+03  0.25816116658E+03  0.00000000000E+00 0. -1.
         -6    2    1    2    0  503  0.44173990771E+02  0.12492978835E+03 -0.10958984082E+03  0.24481764281E+03  0.17426115902E+03 0.  0.
        -24    2    3    3    0    0 -0.30740276561E+02  0.29894386653E+02 -0.33298398842E+02  0.10168711097E+03  0.85981662088E+02 0.  0.
          6    2    1    2  501    0 -0.44173990771E+02 -0.12492978835E+03  0.66622068101E+02  0.22853691763E+03  0.17387302633E+03 0.  0.
         24    2    5    5    0    0 -0.81033365198E+02 -0.86793080913E+02  0.90738180682E+02  0.17008438284E+03  0.81214744251E+02 0.  0.
          5    1    5    5  501    0  0.36859374427E+02 -0.38136707440E+02 -0.24116112581E+02  0.58452534792E+02  0.47000000000E+01 0. -1.
        -13    1    6    6    0    0 -0.49169378991E+02 -0.82003748621E+02  0.98146480787E+02  0.13702180231E+03  0.00000000000E+00 0.  1.
         14    1    6    6    0    0 -0.31863986207E+02 -0.47893322924E+01 -0.74083001054E+01  0.33062580530E+02  0.00000000000E+00 0. -1.
         -5    1    3    3    0  503  0.74914267331E+02  0.95035401700E+02 -0.76291441973E+02  0.14313053184E+03  0.47000000000E+01 0.  1.
         11    1    4    4    0    0  0.18600696443E+01 -0.28442379961E+02 -0.15872696505E+02  0.32624704309E+02  0.00000000000E+00 0. -1.
        -12    1    4    4    0    0 -0.32600346205E+02  0.58336766614E+02 -0.17425702337E+02  0.69062406660E+02  0.00000000000E+00 0.  1.
<mgrwt>
<rscale>  2 0.21884225E+03</rscale>
<asrwt>0</asrwt>
<pdfrwt beam="1">  1       21 0.33106676E-01 0.21891949E+03</pdfrwt>
<pdfrwt beam="2">  1       21 0.39717103E-01 0.21891949E+03</pdfrwt>
<totfact> 0.53023186E+04</totfact>
</mgrwt>
</event>
<event>
12    1  0.1074575E-001  0.1866658E+03  0.7546771E-02  0.1161605E+00
         21   -1    0    0  501  502  0.00000000000E+00  0.00000000000E+00  0.21224164188E+03  0.21224164188E+03  0.00000000000E+00 0.  1.
         21   -1    0    0  502  503 -0.00000000000E+00 -0.00000000000E+00 -0.29109106656E+03  0.29109106656E+03  0.00000000000E+00 0.  1.
         -6    2    1    2    0  503  0.67861161683E+02 -0.16916064299E+02 -0.20588133445E+03  0.27790508760E+03  0.17306883989E+03 0.  0.
        -24    2    3    3    0    0 -0.19144718296E+01 -0.61492579614E+02 -0.13467401105E+03  0.16859691016E+03  0.80640103616E+02 0.  0.
          6    2    1    2  501    0 -0.67861161683E+02  0.16916064299E+02  0.12703190977E+03  0.22542762085E+03  0.17259552615E+03 0.  0.
         24    2    5    5    0    0 -0.57170472866E+02  0.52319681676E+02  0.14513584791E+03  0.18398429175E+03  0.82340714127E+02 0.  0.
          5    1    5    5  501    0 -0.10690688817E+02 -0.35403617377E+02 -0.18103938142E+02  0.41443329101E+02  0.47000000000E+01 0. -1.
        -13    1    6    6    0    0 -0.71716540725E+02  0.32196560032E+02  0.13682495471E+03  0.15780034513E+03  0.00000000000E+00 0.  1.
         14    1    6    6    0    0  0.14546067859E+02  0.20123121643E+02  0.83108932040E+01  0.26183946621E+02  0.00000000000E+00 0. -1.
         -5    1    3    3    0  503  0.69775633513E+02  0.44576515315E+02 -0.71207323399E+02  0.10930817744E+03  0.47000000000E+01 0.  1.
         11    1    4    4    0    0 -0.24105609374E+02 -0.20675104855E+02 -0.67083831317E+01  0.32458323560E+02  0.00000000000E+00 0. -1.
        -12    1    4    4    0    0  0.22191137545E+02 -0.40817474759E+02 -0.12796562792E+03  0.13613858660E+03  0.00000000000E+00 0.  1.
<mgrwt>
<rscale>  2 0.18655600E+03</rscale>
<asrwt>0</asrwt>
<pdfrwt beam="1">  1       21 0.32652560E-01 0.18666578E+03</pdfrwt>
<pdfrwt beam="2">  1       21 0.44783241E-01 0.18666578E+03</pdfrwt>
<totfact> 0.43327179E+04</totfact>
</mgrwt>
</event>
<event>
12    1  0.1074575E-001  0.1897600E+03  0.7546771E-02  0.1158819E+00
         21   -1    0    0  501  502  0.00000000000E+00  0.00000000000E+00  0.92454606932E+02  0.92454606932E+02  0.00000000000E+00 0. -1.
         21   -1    0    0  502  503 -0.00000000000E+00 -0.00000000000E+00 -0.79828944725E+03  0.79828944725E+03  0.00000000000E+00 0. -1.
         -6    2    1    2    0  503 -0.75158709115E+01 -0.77107121497E+02 -0.67241170858E+03  0.69867471994E+03  0.17322488837E+03 0.  0.
        -24    2    3    3    0    0  0.87307098079E+01 -0.34814660923E+02 -0.14995163782E+03  0.17423290320E+03  0.81137691393E+02 0.  0.
          6    2    1    2  501    0  0.75158709115E+01  0.77107121497E+02 -0.33423131744E+02  0.19206933424E+03  0.17254427525E+03 0.  0.
         24    2    5    5    0    0  0.41367019146E+02  0.67174099118E+02  0.33013739006E+02  0.11670015642E+03  0.79406735739E+02 0.  0.
          5    1    5    5  501    0 -0.33851148235E+02  0.99330223785E+01 -0.66436870750E+02  0.75369177821E+02  0.47000000000E+01 0. -1.
        -11    1    6    6    0    0  0.38536939533E+02  0.54454393780E+01 -0.11453627367E+02  0.40570113365E+02  0.00000000000E+00 0.  1.
         12    1    6    6    0    0  0.28300796139E+01  0.61728659740E+02  0.44467366373E+02  0.76130043059E+02  0.00000000000E+00 0. -1.
         -5    1    3    3    0  503 -0.16246580719E+02 -0.42292460574E+02 -0.52246007076E+03  0.52444181674E+03  0.47000000000E+01 0.  1.
         11    1    4    4    0    0  0.29354707624E+02 -0.51773378786E+02 -0.12102032723E+03  0.13486326858E+03  0.00000000000E+00 0. -1.
        -12    1    4    4    0    0 -0.20623997816E+02  0.16958717863E+02 -0.28931310591E+02  0.39369634618E+02  0.00000000000E+00 0.  1.
<mgrwt>
<rscale>  2 0.18960454E+03</rscale>
<asrwt>0</asrwt>
<pdfrwt beam="1">  1       21 0.14223786E-01 0.18976000E+03</pdfrwt>
<pdfrwt beam="2">  1       21 0.12281376E+00 0.18976000E+03</pdfrwt>
<totfact> 0.21577682E+04</totfact>
</mgrwt>
</event>
<event>
12    1  0.1074575E-001  0.4319998E+03  0.7546771E-02  0.1033261E+00
         21   -1    0    0  501  502  0.00000000000E+00  0.00000000000E+00  0.24918415540E+03  0.24918415540E+03  0.00000000000E+00 0. -1.
         21   -1    0    0  502  503 -0.00000000000E+00 -0.00000000000E+00 -0.15452086374E+04  0.15452086374E+04  0.00000000000E+00 0.  1.
         -6    2    1    2    0  503  0.21457011096E+03 -0.33240032650E+03 -0.12924815245E+04  0.13627664356E+04  0.17347494689E+03 0.  0.
        -24    2    3    3    0    0  0.29792030942E+02 -0.91428886301E+02 -0.32883930672E+03  0.35240086424E+03  0.82488018044E+02 0.  0.
          6    2    1    2  501    0 -0.21457011096E+03  0.33240032650E+03 -0.35429575000E+01  0.43162635722E+03  0.17250637705E+03 0.  0.
         24    2    5    5    0    0 -0.23138439739E+03  0.30538003505E+03  0.19265277323E+02  0.39219132262E+03  0.81530224231E+02 0.  0.
          5    1    5    5  501    0  0.16814286430E+02  0.27020291453E+02 -0.22808234823E+02  0.39435034602E+02  0.47000000000E+01 0. -1.
        -11    1    6    6    0    0  0.26629786979E+01  0.30765145688E+02  0.53273342058E+00  0.30884776989E+02  0.00000000000E+00 0.  1.
         12    1    6    6    0    0 -0.23404737609E+03  0.27461488936E+03  0.18732543902E+02  0.36130654563E+03  0.00000000000E+00 0. -1.
         -5    1    3    3    0  503  0.18477808002E+03 -0.24097144020E+03 -0.96364221780E+03  0.10103655714E+04  0.47000000000E+01 0.  1.
         11    1    4    4    0    0  0.30130893095E+02  0.37571672018E+01 -0.10133321829E+03  0.10578472552E+03  0.00000000000E+00 0. -1.
        -12    1    4    4    0    0 -0.33886215264E+00 -0.95186053503E+02 -0.22750608842E+03  0.24661613872E+03  0.00000000000E+00 0.  1.
<mgrwt>
<rscale>  2 0.43190281E+03</rscale>
<asrwt>0</asrwt>
<pdfrwt beam="1">  1       21 0.38336024E-01 0.43199985E+03</pdfrwt>
<pdfrwt beam="2">  1       21 0.23772441E+00 0.43199985E+03</pdfrwt>
<totfact> 0.42243335E+02</totfact>
</mgrwt>
</event>
<event>
12    1  0.1074575E-001  0.1783291E+03  0.7546771E-02  0.1169564E+00
         21   -1    0    0  501  502  0.00000000000E+00  0.00000000000E+00  0.81132366486E+03  0.81132366486E+03  0.00000000000E+00 0.  1.
         21   -1    0    0  502  503 -0.00000000000E+00 -0.00000000000E+00 -0.10669731553E+03  0.10669731553E+03  0.00000000000E+00 0.  1.
         -6    2    1    2    0  503 -0.30745945428E+02 -0.33135791941E+02 -0.12902305870E+02  0.17879523123E+03  0.17250498934E+03 0.  0.
        -24    2    3    3    0    0  0.48857495617E+02 -0.16383428422E+02  0.65015268563E+01  0.95033973877E+02  0.79584638811E+02 0.  0.
          6    2    1    2  501    0  0.30745945428E+02  0.33135791941E+02  0.71752865519E+03  0.73922574916E+03  0.17194197662E+03 0.  0.
         24    2    5    5    0    0  0.10704592354E+02  0.81220348053E+02  0.59598598545E+03  0.60690609477E+03  0.80152228768E+02 0.  0.
          5    1    5    5  501    0  0.20041353074E+02 -0.48084556112E+02  0.12154266974E+03  0.13231965439E+03  0.47000000000E+01 0. -1.
        -13    1    6    6    0    0  0.38255360754E+02  0.69701357242E+02  0.50292950599E+03  0.50917564732E+03  0.00000000000E+00 0.  1.
         14    1    6    6    0    0 -0.27550768400E+02  0.11518990811E+02  0.93056479463E+02  0.97730447450E+02  0.00000000000E+00 0. -1.
         -5    1    3    3    0  503 -0.79603441045E+02 -0.16752363519E+02 -0.19403832726E+02  0.83761257357E+02  0.47000000000E+01 0.  1.
         11    1    4    4    0    0  0.40717843507E+01 -0.39497082200E+02  0.17593165454E+02  0.43429464662E+02  0.00000000000E+00 0. -1.
        -12    1    4    4    0    0  0.44785711266E+02  0.23113653778E+02 -0.11091638598E+02  0.51604509215E+02  0.00000000000E+00 0.  1.
<mgrwt>
<rscale>  2 0.17819279E+03</rscale>
<asrwt>0</asrwt>
<pdfrwt beam="1">  1       21 0.12481902E+00 0.17832909E+03</pdfrwt>
<pdfrwt beam="2">  1       21 0.16414972E-01 0.17832909E+03</pdfrwt>
<totfact> 0.16082884E+04</totfact>
</mgrwt>
</event>
<event>
12    1  0.1074575E-001  0.2127161E+03  0.7546771E-02  0.1139886E+00
         21   -1    0    0  503  502  0.00000000000E+00  0.00000000000E+00  0.82755427712E+02  0.82755427712E+02  0.00000000000E+00 0.  1.
         21   -1    0    0  501  503 -0.00000000000E+00 -0.00000000000E+00 -0.65316865570E+03  0.65316865570E+03  0.00000000000E+00 0. -1.
          6    2    1    2  501    0  0.11030181389E+03  0.46268885051E+02 -0.43650840168E+03  0.48457046316E+03  0.17309433600E+03 0.  0.
         24    2    3    3    0    0  0.90601082273E+02  0.92666696193E+02 -0.30837884539E+03  0.34680200196E+03  0.91533838481E+02 0.  0.
         -6    2    1    2    0  502 -0.11030181389E+03 -0.46268885051E+02 -0.13390482630E+03  0.25135362025E+03  0.17590008537E+03 0.  0.
        -24    2    5    5    0    0 -0.81314791050E+02 -0.60108664574E+02 -0.16762615989E+03  0.20454544437E+03  0.59288806112E+02 0.  0.
          5    1    3    3  501    0  0.19700731619E+02 -0.46397811142E+02 -0.12812955629E+03  0.13776846120E+03  0.47000000000E+01 0. -1.
        -11    1    4    4    0    0  0.15837716371E+02 -0.18619179133E+02 -0.53245495129E+02  0.58588308074E+02  0.00000000000E+00 0.  1.
         12    1    4    4    0    0  0.74763365902E+02  0.11128587533E+03 -0.25513335026E+03  0.28821369389E+03  0.00000000000E+00 0. -1.
         -5    1    5    5    0  502 -0.28987022842E+02  0.13839779524E+02  0.33721333590E+02  0.46808175884E+02  0.47000000000E+01 0.  1.
         11    1    6    6    0    0 -0.23181925525E+01 -0.32872173268E+02 -0.57950207453E+02  0.66664685823E+02  0.00000000000E+00 0. -1.
        -12    1    6    6    0    0 -0.78996598497E+02 -0.27236491306E+02 -0.10967595244E+03  0.13788075854E+03  0.00000000000E+00 0.  1.
<mgrwt>
<rscale>  2 0.21213517E+03</rscale>
<asrwt>0</asrwt>
<pdfrwt beam="1">  1       21 0.12731604E-01 0.21271610E+03</pdfrwt>
<pdfrwt beam="2">  1       21 0.10048748E+00 0.21271610E+03</pdfrwt>
<totfact> 0.42379236E+04</totfact>
</mgrwt>
</event>
<event>
12    1  0.1074575E-001  0.2314501E+03  0.7546771E-02  0.1125642E+00
         21   -1    0    0  503  502  0.00000000000E+00  0.00000000000E+00  0.26854218121E+03  0.26854218121E+03  0.00000000000E+00 0. -1.
         21   -1    0    0  501  503 -0.00000000000E+00 -0.00000000000E+00 -0.48221760667E+03  0.48221760667E+03  0.00000000000E+00 0. -1.
          6    2    1    2  501    0  0.33255053629E+01  0.15474613333E+03 -0.39433014630E+03  0.45723671313E+03  0.17208057061E+03 0.  0.
         24    2    3    3    0    0  0.37609679599E+02  0.13722643421E+03 -0.38342239329E+03  0.41694510685E+03  0.81147447312E+02 0.  0.
         -6    2    1    2    0  502 -0.33255053629E+01 -0.15474613333E+03  0.18065472085E+03  0.29352307476E+03  0.17193673977E+03 0.  0.
        -24    2    5    5    0    0 -0.14946080507E+02 -0.11999395196E+02  0.94367832401E+02  0.12625327433E+03  0.81653111882E+02 0.  0.
          5    1    3    3  501    0 -0.34284174236E+02  0.17519699124E+02 -0.10907753012E+02  0.40291606275E+02  0.47000000000E+01 0. -1.
        -11    1    4    4    0    0 -0.23370142287E+02  0.16773187102E+02 -0.64641815945E+02  0.70753570403E+02  0.00000000000E+00 0.  1.
         12    1    4    4    0    0  0.60979821886E+02  0.12045324711E+03 -0.31878057735E+03  0.34619153645E+03  0.00000000000E+00 0. -1.
         -5    1    5    5    0  502  0.11620575144E+02 -0.14274673814E+03  0.86286888449E+02  0.16726980042E+03  0.47000000000E+01 0.  1.
         11    1    6    6    0    0 -0.30769882514E+02 -0.36893670398E+02  0.33357952884E+02  0.58486593387E+02  0.00000000000E+00 0. -1.
        -12    1    6    6    0    0  0.15823802007E+02  0.24894275202E+02  0.61009879516E+02  0.67766680946E+02  0.00000000000E+00 0.  1.
<mgrwt>
<rscale>  2 0.23142336E+03</rscale>
<asrwt>0</asrwt>
<pdfrwt beam="1">  1       21 0.41314182E-01 0.23145010E+03</pdfrwt>
<pdfrwt beam="2">  1       21 0.74187324E-01 0.23145010E+03</pdfrwt>
<totfact> 0.89561894E+03</totfact>
</mgrwt>
</event>
<event>
12    1  0.1074575E-001  0.2620062E+03  0.7546771E-02  0.1106079E+00
         21   -1    0    0  501  502  0.00000000000E+00  0.00000000000E+00  0.61564365199E+03  0.61564365199E+03  0.00000000000E+00 0. -1.
         21   -1    0    0  502  503 -0.00000000000E+00 -0.00000000000E+00 -0.11146132811E+03  0.11146132811E+03  0.00000000000E+00 0.  1.
         -6    2    1    2    0  503  0.15849128237E+03  0.11670552490E+03  0.23234308609E+03  0.35018642907E+03  0.17293802161E+03 0.  0.
        -24    2    3    3    0    0  0.13017053828E+03  0.15240588350E+03  0.18133675272E+03  0.28162757702E+03  0.79114801962E+02 0.  0.
          6    2    1    2  501    0 -0.15849128237E+03 -0.11670552490E+03  0.27183923779E+03  0.37691855104E+03  0.17155569587E+03 0.  0.
         24    2    5    5    0    0 -0.65630531207E+02 -0.48804283931E+02  0.52041708354E+02  0.12879208816E+03  0.84792911311E+02 0.  0.
          5    1    5    5  501    0 -0.92860751160E+02 -0.67901240969E+02  0.21979752944E+03  0.24812646287E+03  0.47000000000E+01 0. -1.
        -11    1    6    6    0    0 -0.79369885974E+02 -0.47732633745E+02  0.21201839965E+02  0.95013162992E+02  0.00000000000E+00 0.  1.
         12    1    6    6    0    0  0.13739354767E+02 -0.10716501854E+01  0.30839868389E+02  0.33778925172E+02  0.00000000000E+00 0. -1.
         -5    1    3    3    0  503  0.28320744092E+02 -0.35700358602E+02  0.51006333373E+02  0.68558852050E+02  0.47000000000E+01 0.  1.
         13    1    4    4    0    0  0.10693852311E+03  0.83733224084E+02  0.82013381758E+02  0.15866094455E+03  0.00000000000E+00 0. -1.
        -14    1    4    4    0    0  0.23232015169E+02  0.68672659417E+02  0.99323370959E+02  0.12296663246E+03  0.00000000000E+00 0.  1.
<mgrwt>
<rscale>  2 0.26177827E+03</rscale>
<asrwt>0</asrwt>
<pdfrwt beam="1">  1       21 0.94714406E-01 0.26200616E+03</pdfrwt>
<pdfrwt beam="2">  1       21 0.17147897E-01 0.26200616E+03</pdfrwt>
<totfact> 0.27642020E+04</totfact>
</mgrwt>
</event>
<event>
12    1  0.1074575E-001  0.2492867E+03  0.7546771E-02  0.1114878E+00
         21   -1    0    0  503  502  0.00000000000E+00  0.00000000000E+00  0.65281273474E+03  0.65281273474E+03  0.00000000000E+00 0. -1.
         21   -1    0    0  501  503 -0.00000000000E+00 -0.00000000000E+00 -0.97856013187E+02  0.97856013187E+02  0.00000000000E+00 0.  1.
          6    2    1    2  501    0 -0.51022444525E+02  0.16533393114E+03  0.18639776057E+03  0.30571978933E+03  0.16965219070E+03 0.  0.
         24    2    3    3    0    0 -0.63143586253E+02  0.66530465312E+02  0.16585906763E+03  0.20397022007E+03  0.75373769056E+02 0.  0.
         -6    2    1    2    0  502  0.51022444525E+02 -0.16533393114E+03  0.36855896098E+03  0.44494895860E+03  0.17945826648E+03 0.  0.
        -24    2    5    5    0    0 -0.55164988242E+01 -0.94630006308E+01  0.13853352782E+03  0.16135384405E+03  0.81997222642E+02 0.  0.
          5    1    3    3  501    0  0.12121141728E+02  0.98803465828E+02  0.20538692946E+02  0.10174956926E+03  0.47000000000E+01 0. -1.
        -11    1    4    4    0    0 -0.17743312228E+02  0.40166347780E+02  0.18700272688E+02  0.47726940206E+02  0.00000000000E+00 0.  1.
         12    1    4    4    0    0 -0.45400274025E+02  0.26364117532E+02  0.14715879494E+03  0.15624327987E+03  0.00000000000E+00 0. -1.
         -5    1    5    5    0  502  0.56538943350E+02 -0.15587093051E+03  0.23002543316E+03  0.28359511454E+03  0.47000000000E+01 0.  1.
         11    1    6    6    0    0 -0.38669197123E+02  0.12961460060E+02  0.52618974868E+02  0.66573739336E+02  0.00000000000E+00 0. -1.
        -12    1    6    6    0    0  0.33152698298E+02 -0.22424460691E+02  0.85914552949E+02  0.94780104717E+02  0.00000000000E+00 0.  1.
<mgrwt>
<rscale>  2 0.24752726E+03</rscale>
<asrwt>0</asrwt>
<pdfrwt beam="1">  1       21 0.10043273E+00 0.24928672E+03</pdfrwt>
<pdfrwt beam="2">  1       21 0.15054772E-01 0.24928672E+03</pdfrwt>
<totfact> 0.30747136E+04</totfact>
</mgrwt>
</event>
<event>
12    1  0.1074575E-001  0.1975303E+03  0.7546771E-02  0.1151974E+00
         21   -1    0    0  501  502  0.00000000000E+00  0.00000000000E+00  0.52628841428E+03  0.52628841428E+03  0.00000000000E+00 0. -1.
         21   -1    0    0  502  503 -0.00000000000E+00 -0.00000000000E+00 -0.10227663883E+03  0.10227663883E+03  0.00000000000E+00 0.  1.
         -6    2    1    2    0  503 -0.93599571469E+02 -0.43344481498E+01  0.46716433972E+02  0.20297938498E+03  0.17389231812E+03 0.  0.
        -24    2    3    3    0    0 -0.10478202599E+03  0.20288896551E+02  0.83400640217E+02  0.15716260441E+03  0.79708877441E+02 0.  0.
          6    2    1    2  501    0  0.93599571469E+02  0.43344481498E+01  0.37729534148E+03  0.42558566813E+03  0.17318117391E+03 0.  0.
         24    2    5    5    0    0  0.40678944513E+02 -0.62533106231E+02  0.18361053354E+03  0.21390723887E+03  0.80487967517E+02 0.  0.
          5    1    5    5  501    0  0.52920626956E+02  0.66867554381E+02  0.19368480794E+03  0.21167842926E+03  0.47000000000E+01 0. -1.
        -11    1    6    6    0    0  0.46394186171E+02 -0.31845075099E+01  0.54156951247E+02  0.71383029965E+02  0.00000000000E+00 0.  1.
         12    1    6    6    0    0 -0.57152416581E+01 -0.59348598721E+02  0.12945358229E+03  0.14252420891E+03  0.00000000000E+00 0. -1.
         -5    1    3    3    0  503  0.11182454523E+02 -0.24623344701E+02 -0.36684206244E+02  0.45816780564E+02  0.47000000000E+01 0.  1.
         11    1    4    4    0    0 -0.84925688550E+02  0.31054096287E+00  0.19221515822E+02  0.87074311263E+02  0.00000000000E+00 0. -1.
        -12    1    4    4    0    0 -0.19856337443E+02  0.19978355589E+02  0.64179124395E+02  0.70088293150E+02  0.00000000000E+00 0.  1.
<mgrwt>
<rscale>  2 0.19737364E+03</rscale>
<asrwt>0</asrwt>
<pdfrwt beam="1">  1       21 0.80967447E-01 0.19753026E+03</pdfrwt>
<pdfrwt beam="2">  1       21 0.15734868E-01 0.19753026E+03</pdfrwt>
<totfact> 0.47999852E+04</totfact>
</mgrwt>
</event>
<event>
12    1  0.1074575E-001  0.1897314E+03  0.7546771E-02  0.1158951E+00
         21   -1    0    0  501  502  0.00000000000E+00  0.00000000000E+00  0.39819116251E+02  0.39819116251E+02  0.00000000000E+00 0.  1.
         21   -1    0    0  502  503 -0.00000000000E+00 -0.00000000000E+00 -0.12847264892E+04  0.12847264892E+04  0.00000000000E+00 0. -1.
         -6    2    1    2    0  503 -0.70411817644E+02 -0.33781584886E+02 -0.98415518391E+03  0.10020712286E+04  0.17171575804E+03 0.  0.
        -24    2    3    3    0    0 -0.63599793388E+02 -0.61782762600E+01 -0.95677474715E+03  0.96232044696E+03  0.80991487352E+02 0.  0.
          6    2    1    2  501    0  0.70411817644E+02  0.33781584886E+02 -0.26075218900E+03  0.32247437684E+03  0.17291327339E+03 0.  0.
         24    2    5    5    0    0 -0.26773701019E+02 -0.10650650218E+02 -0.91820413454E+02  0.12252617520E+03  0.75838037060E+02 0.  0.
          5    1    5    5  501    0  0.97185518662E+02  0.44432235104E+02 -0.16893177554E+03  0.19994820165E+03  0.47000000000E+01 0. -1.
        -11    1    6    6    0    0  0.13141481440E+02  0.96962657958E+01 -0.71481915010E+02  0.73323804309E+02  0.00000000000E+00 0.  1.
         12    1    6    6    0    0 -0.39915182458E+02 -0.20346916014E+02 -0.20338498444E+02  0.49202370887E+02  0.00000000000E+00 0. -1.
         -5    1    3    3    0  503 -0.68120242558E+01 -0.27603308626E+02 -0.27380436757E+02  0.39750781609E+02  0.47000000000E+01 0.  1.
         11    1    4    4    0    0 -0.59202190268E+02  0.20000264170E+02 -0.39441873640E+03  0.39933826454E+03  0.00000000000E+00 0. -1.
        -12    1    4    4    0    0 -0.43976031200E+01 -0.26178540430E+02 -0.56235601075E+03  0.56298218242E+03  0.00000000000E+00 0.  1.
<mgrwt>
<rscale>  2 0.18945817E+03</rscale>
<asrwt>0</asrwt>
<pdfrwt beam="1">  1       21 0.61260184E-02 0.18973144E+03</pdfrwt>
<pdfrwt beam="2">  1       21 0.19765021E+00 0.18973144E+03</pdfrwt>
<totfact> 0.26511059E+04</totfact>
</mgrwt>
</event>
<event>
12    1  0.1074575E-001  0.1853542E+03  0.7546771E-02  0.1163441E+00
         21   -1    0    0  503  502  0.00000000000E+00  0.00000000000E+00  0.60901278271E+02  0.60901278271E+02  0.00000000000E+00 0.  1.
         21   -1    0    0  501  503 -0.00000000000E+00 -0.00000000000E+00 -0.57329453149E+03  0.57329453149E+03  0.00000000000E+00 0.  1.
          6    2    1    2  501    0 -0.91928769349E+01  0.61989203766E+02 -0.20134741990E+03  0.27367309813E+03  0.17443913199E+03 0.  0.
         24    2    3    3    0    0 -0.61392214849E+02  0.71693779082E+02 -0.17391524893E+03  0.21372675825E+03  0.80768876294E+02 0.  0.
         -6    2    1    2    0  502  0.91928769349E+01 -0.61989203766E+02 -0.31104583332E+03  0.36052271163E+03  0.17117226647E+03 0.  0.
        -24    2    5    5    0    0 -0.12517374875E+02 -0.99840761886E+02 -0.17002890904E+03  0.21283405798E+03  0.79143186176E+02 0.  0.
          5    1    3    3  501    0  0.52199337914E+02 -0.97045753155E+01 -0.27432170970E+02  0.59946339879E+02  0.47000000000E+01 0. -1.
        -11    1    4    4    0    0  0.18450621003E+02  0.25199526116E+02 -0.35204699988E+02  0.47061793773E+02  0.00000000000E+00 0.  1.
         12    1    4    4    0    0 -0.79842835852E+02  0.46494252966E+02 -0.13871054894E+03  0.16666496448E+03  0.00000000000E+00 0. -1.
         -5    1    5    5    0  502  0.21710251810E+02  0.37851558120E+02 -0.14101692428E+03  0.14768865365E+03  0.47000000000E+01 0.  1.
         13    1    6    6    0    0  0.17958448701E+02 -0.82243684099E+02 -0.79835184989E+02  0.11601804263E+03  0.00000000000E+00 0. -1.
        -14    1    6    6    0    0 -0.30475823576E+02 -0.17597077787E+02 -0.90193724049E+02  0.96816015344E+02  0.00000000000E+00 0.  1.
<mgrwt>
<rscale>  2 0.18458160E+03</rscale>
<asrwt>0</asrwt>
<pdfrwt beam="1">  1       21 0.93694277E-02 0.18535420E+03</pdfrwt>
<pdfrwt beam="2">  1       21 0.88199156E-01 0.18535420E+03</pdfrwt>
<totfact> 0.10048297E+05</totfact>
</mgrwt>
</event>
<event>
12    1  0.1074575E-001  0.2141689E+03  0.7546771E-02  0.1138390E+00
         21   -1    0    0  503  502  0.00000000000E+00  0.00000000000E+00  0.70703522789E+02  0.70703522789E+02  0.00000000000E+00 0. -1.
         21   -1    0    0  501  503 -0.00000000000E+00 -0.00000000000E+00 -0.64847991281E+03  0.64847991281E+03  0.00000000000E+00 0.  1.
          6    2    1    2  501    0  0.46602242339E+02  0.11944987992E+03 -0.27478030296E+03  0.34838559885E+03  0.17154669271E+03 0.  0.
         24    2    3    3    0    0  0.71724707377E+02  0.45811139250E+02 -0.22670593459E+03  0.25680482972E+03  0.85498805055E+02 0.  0.
         -6    2    1    2    0  502 -0.46602242339E+02 -0.11944987992E+03 -0.30299608706E+03  0.37079783676E+03  0.17100983646E+03 0.  0.
        -24    2    5    5    0    0 -0.59303561145E+02 -0.34090214993E+02 -0.83937217324E+02  0.13530585323E+03  0.81136689252E+02 0.  0.
          5    1    3    3  501    0 -0.25122465038E+02  0.73638740675E+02 -0.48074368380E+02  0.91580769121E+02  0.47000000000E+01 0. -1.
        -13    1    4    4    0    0  0.44138916037E+02 -0.10053336401E+02 -0.15661149001E+03  0.16302291951E+03  0.00000000000E+00 0.  1.
         14    1    4    4    0    0  0.27585791340E+02  0.55864475651E+02 -0.70094444578E+02  0.93781910219E+02  0.00000000000E+00 0. -1.
         -5    1    5    5    0  502  0.12701318806E+02 -0.85359664931E+02 -0.21905886974E+03  0.23549198353E+03  0.47000000000E+01 0.  1.
         13    1    6    6    0    0  0.14610298529E+02  0.12088309782E+02 -0.14391464763E+02  0.23805510171E+02  0.00000000000E+00 0. -1.
        -14    1    6    6    0    0 -0.73913859674E+02 -0.46178524775E+02 -0.69545752561E+02  0.11150034306E+03  0.00000000000E+00 0.  1.
<mgrwt>
<rscale>  2 0.21406136E+03</rscale>
<asrwt>0</asrwt>
<pdfrwt beam="1">  1       21 0.10877465E-01 0.21416888E+03</pdfrwt>
<pdfrwt beam="2">  1       21 0.99766142E-01 0.21416888E+03</pdfrwt>
<totfact> 0.57110262E+04</totfact>
</mgrwt>
</event>
<event>
12    1  0.1074575E-001  0.2547764E+03  0.7546771E-02  0.1111461E+00
         21   -1    0    0  503  502  0.00000000000E+00  0.00000000000E+00  0.41682213149E+03  0.41682213149E+03  0.00000000000E+00 0.  1.
         21   -1    0    0  501  503 -0.00000000000E+00 -0.00000000000E+00 -0.15164882063E+03  0.15164882063E+03  0.00000000000E+00 0.  1.
          6    2    1    2  501    0  0.16446101347E+03 -0.68941073259E+02  0.12123856330E+03  0.28215206096E+03  0.18196345716E+03 0.  0.
         24    2    3    3    0    0  0.15495155358E+03 -0.76455790638E+02  0.15509285282E+03  0.24588770209E+03  0.80941319275E+02 0.  0.
         -6    2    1    2    0  502 -0.16446101347E+03  0.68941073259E+02  0.14393474757E+03  0.28631889116E+03  0.17164206754E+03 0.  0.
        -24    2    5    5    0    0 -0.17564605239E+03  0.70501692256E+02  0.16362448350E+03  0.26313880643E+03  0.81529353717E+02 0.  0.
          5    1    3    3  501    0  0.95094598865E+01  0.75147173788E+01 -0.33854289526E+02  0.36264358865E+02  0.47000000000E+01 0. -1.
        -11    1    4    4    0    0  0.79602308636E+02 -0.61978963229E+02  0.42125416501E+02  0.10932735311E+03  0.00000000000E+00 0.  1.
         12    1    4    4    0    0  0.75349244946E+02 -0.14476827409E+02  0.11296743632E+03  0.13656034898E+03  0.00000000000E+00 0. -1.
         -5    1    5    5    0  502  0.11185038919E+02 -0.15606189968E+01 -0.19689735934E+02  0.23180084737E+02  0.47000000000E+01 0.  1.
         13    1    6    6    0    0 -0.69671403103E+02  0.36816886316E+02  0.19636500532E+02  0.81210711618E+02  0.00000000000E+00 0. -1.
        -14    1    6    6    0    0 -0.10597464928E+03  0.33684805940E+02  0.14398798297E+03  0.18192809481E+03  0.00000000000E+00 0.  1.
<mgrwt>
<rscale>  2 0.25294006E+03</rscale>
<asrwt>0</asrwt>
<pdfrwt beam="1">  1       21 0.64126481E-01 0.25477637E+03</pdfrwt>
<pdfrwt beam="2">  1       21 0.23330588E-01 0.25477637E+03</pdfrwt>
<totfact> 0.37649106E+04</totfact>
</mgrwt>
</event>
<event>
12    1  0.1074575E-001  0.1965505E+03  0.7546771E-02  0.1154872E+00
         21   -1    0    0  503  502  0.00000000000E+00  0.00000000000E+00  0.23466566243E+03  0.23466566243E+03  0.00000000000E+00 0. -1.
         21   -1    0    0  501  503 -0.00000000000E+00 -0.00000000000E+00 -0.22106047127E+03  0.22106047127E+03  0.00000000000E+00 0. -1.
          6    2    1    2  501    0 -0.93911547174E+02  0.61046395207E+01 -0.11647032812E+03  0.22003192739E+03  0.16122055211E+03 0.  0.
         24    2    3    3    0    0  0.66093657633E+01  0.11272690593E+02 -0.56347935517E+02  0.10269499892E+03  0.84855263231E+02 0.  0.
         -6    2    1    2    0  502  0.93911547174E+02 -0.61046395207E+01  0.13007551927E+03  0.23569420631E+03  0.17255570944E+03 0.  0.
        -24    2    5    5    0    0  0.44406205620E+02  0.60613917647E+02  0.52703031402E+02  0.12206878401E+03  0.80481180420E+02 0.  0.
          5    1    3    3  501    0 -0.10052091294E+03 -0.51680510721E+01 -0.60122392599E+02  0.11733692846E+03  0.47000000000E+01 0. -1.
        -11    1    4    4    0    0 -0.24673027331E+02  0.34527698126E+02 -0.12966338712E+02  0.44373935539E+02  0.00000000000E+00 0.  1.
         12    1    4    4    0    0  0.31282393095E+02 -0.23255007533E+02 -0.43381596805E+02  0.58321063386E+02  0.00000000000E+00 0. -1.
         -5    1    5    5    0  502  0.49505341554E+02 -0.66718557168E+02  0.77372487870E+02  0.11362542230E+03  0.47000000000E+01 0.  1.
         11    1    6    6    0    0  0.60317732531E+02  0.17176837301E+02  0.38872783845E+02  0.73785946638E+02  0.00000000000E+00 0. -1.
        -12    1    6    6    0    0 -0.15911526911E+02  0.43437080346E+02  0.13830247557E+02  0.48282837377E+02  0.00000000000E+00 0.  1.
<mgrwt>
<rscale>  2 0.19403454E+03</rscale>
<asrwt>0</asrwt>
<pdfrwt beam="1">  1       21 0.36102410E-01 0.19655055E+03</pdfrwt>
<pdfrwt beam="2">  1       21 0.34009303E-01 0.19655055E+03</pdfrwt>
<totfact> 0.61522851E+04</totfact>
</mgrwt>
</event>
<event>
12    1  0.1074575E-001  0.1998546E+03  0.7546771E-02  0.1150023E+00
         21   -1    0    0  501  502  0.00000000000E+00  0.00000000000E+00  0.13327010487E+03  0.13327010487E+03  0.00000000000E+00 0.  1.
         21   -1    0    0  502  503 -0.00000000000E+00 -0.00000000000E+00 -0.33328129615E+03  0.33328129615E+03  0.00000000000E+00 0.  1.
         -6    2    1    2    0  503 -0.54910087176E+02 -0.81795543639E+02 -0.24884790859E+02  0.20139787145E+03  0.17388565546E+03 0.  0.
        -24    2    3    3    0    0 -0.19514631605E+02  0.26783854853E+02 -0.12614618624E+02  0.86441483286E+02  0.78834038982E+02 0.  0.
          6    2    1    2  501    0  0.54910087176E+02  0.81795543639E+02 -0.17512640042E+03  0.26515352957E+03  0.17300725269E+03 0.  0.
         24    2    5    5    0    0  0.50589302286E+02  0.55016039568E+02 -0.20130890467E+03  0.22716110205E+03  0.74100263627E+02 0.  0.
          5    1    5    5  501    0  0.43207848900E+01  0.26779504071E+02  0.26182504245E+02  0.37992427521E+02  0.47000000000E+01 0. -1.
        -13    1    6    6    0    0  0.31676288015E+02  0.54123575696E+02 -0.19831198995E+03  0.20799133162E+03  0.00000000000E+00 0.  1.
         14    1    6    6    0    0  0.18913014270E+02  0.89246387239E+00 -0.29969147137E+01  0.19169770430E+02  0.00000000000E+00 0. -1.
         -5    1    3    3    0  503 -0.35395455571E+02 -0.10857939849E+03 -0.12270172235E+02  0.11495638816E+03  0.47000000000E+01 0.  1.
         13    1    4    4    0    0  0.25874125433E+02  0.87207561983E+01 -0.23919370529E+02  0.36299562561E+02  0.00000000000E+00 0. -1.
        -14    1    4    4    0    0 -0.45388757037E+02  0.18063098654E+02  0.11304751905E+02  0.50141920725E+02  0.00000000000E+00 0.  1.
<mgrwt>
<rscale>  2 0.19966335E+03</rscale>
<asrwt>0</asrwt>
<pdfrwt beam="1">  1       21 0.20503093E-01 0.19985457E+03</pdfrwt>
<pdfrwt beam="2">  1       21 0.51274046E-01 0.19985457E+03</pdfrwt>
<totfact> 0.79415843E+04</totfact>
</mgrwt>
</event>
<event>
12    1  0.1074575E-001  0.1905499E+03  0.7546771E-02  0.1158400E+00
         21   -1    0    0  503  502  0.00000000000E+00  0.00000000000E+00  0.50151968968E+03  0.50151968968E+03  0.00000000000E+00 0. -1.
         21   -1    0    0  501  503 -0.00000000000E+00 -0.00000000000E+00 -0.83317394883E+02  0.83317394883E+02  0.00000000000E+00 0.  1.
          6    2    1    2  501    0 -0.74602782273E+02  0.13073170545E+02  0.98864647780E+02  0.21296910424E+03  0.17275745388E+03 0.  0.
         24    2    3    3    0    0 -0.53760577621E+02 -0.14539812896E+02  0.12777796567E+03  0.16763761077E+03  0.93131918093E+02 0.  0.
         -6    2    1    2    0  502  0.74602782273E+02 -0.13073170545E+02  0.31933764701E+03  0.37186798032E+03  0.17485073369E+03 0.  0.
        -24    2    5    5    0    0 -0.67005227437E+01  0.18461569511E+01  0.25300542317E+03  0.26577901925E+03  0.81107568209E+02 0.  0.
          5    1    3    3  501    0 -0.20842204652E+02  0.27612983441E+02 -0.28913317891E+02  0.45331493476E+02  0.47000000000E+01 0. -1.
        -13    1    4    4    0    0 -0.34687032497E+01  0.73375781463E+01 -0.13687544861E+02  0.15912914240E+02  0.00000000000E+00 0.  1.
         14    1    4    4    0    0 -0.50291874371E+02 -0.21877391042E+02  0.14146551053E+03  0.15172469653E+03  0.00000000000E+00 0. -1.
         -5    1    5    5    0  502  0.81303305017E+02 -0.14919327497E+02  0.66332223845E+02  0.10608896106E+03  0.47000000000E+01 0.  1.
         13    1    6    6    0    0 -0.42639647904E+02  0.11578992199E+01  0.10211187144E+03  0.11066306788E+03  0.00000000000E+00 0. -1.
        -14    1    6    6    0    0  0.35939125160E+02  0.68825773119E+00  0.15089355173E+03  0.15511595137E+03  0.00000000000E+00 0.  1.
<mgrwt>
<rscale>  2 0.19006833E+03</rscale>
<asrwt>0</asrwt>
<pdfrwt beam="1">  1       21 0.77156873E-01 0.19054989E+03</pdfrwt>
<pdfrwt beam="2">  1       21 0.12818061E-01 0.19054989E+03</pdfrwt>
<totfact> 0.77866568E+04</totfact>
</mgrwt>
</event>
<event>
12    1  0.1074575E-001  0.2123856E+03  0.7546771E-02  0.1139787E+00
         21   -1    0    0  501  502  0.00000000000E+00  0.00000000000E+00  0.16788650287E+02  0.16788650287E+02  0.00000000000E+00 0.  1.
         21   -1    0    0  502  503 -0.00000000000E+00 -0.00000000000E+00 -0.35070443043E+04  0.35070443043E+04  0.00000000000E+00 0.  1.
         -6    2    1    2    0  503  0.60400623960E+02 -0.10497981936E+03 -0.26019988300E+04  0.26106523244E+04  0.17446675807E+03 0.  0.
        -24    2    3    3    0    0  0.22217273285E+02 -0.11197213421E+03 -0.24426954588E+04  0.24466202702E+04  0.78474683114E+02 0.  0.
          6    2    1    2  501    0 -0.60400623960E+02  0.10497981936E+03 -0.88825682401E+03  0.91318063020E+03  0.17386684593E+03 0.  0.
         24    2    5    5    0    0  0.17382358957E+01  0.12132750347E+03 -0.63100506505E+03  0.64798439687E+03  0.83624170607E+02 0.  0.
          5    1    5    5  501    0 -0.62138859855E+02 -0.16347684107E+02 -0.25725175896E+03  0.26519623332E+03  0.47000000000E+01 0. -1.
        -13    1    6    6    0    0 -0.40615602771E+02  0.67826782833E+02 -0.34869323189E+03  0.35754310177E+03  0.00000000000E+00 0.  1.
         14    1    6    6    0    0  0.42353838667E+02  0.53500720638E+02 -0.28231183316E+03  0.29044129510E+03  0.00000000000E+00 0. -1.
         -5    1    3    3    0  503  0.38183350675E+02  0.69923148447E+01 -0.15930337116E+03  0.16403205418E+03  0.47000000000E+01 0.  1.
         13    1    4    4    0    0 -0.27782190779E+02 -0.26577656379E+02 -0.83207606144E+03  0.83296386114E+03  0.00000000000E+00 0. -1.
        -14    1    4    4    0    0  0.49999464064E+02 -0.85394477829E+02 -0.16106193974E+04  0.16136564091E+04  0.00000000000E+00 0.  1.
<mgrwt>
<rscale>  2 0.21226237E+03</rscale>
<asrwt>0</asrwt>
<pdfrwt beam="1">  1       21 0.25828702E-02 0.21238561E+03</pdfrwt>
<pdfrwt beam="2">  1       21 0.53954508E+00 0.21238561E+03</pdfrwt>
<totfact> 0.77182886E+02</totfact>
</mgrwt>
</event>
<event>
12    1  0.1074575E-001  0.1756228E+03  0.7546771E-02  0.1173497E+00
         21   -1    0    0  503  502  0.00000000000E+00  0.00000000000E+00  0.53560235916E+03  0.53560235916E+03  0.00000000000E+00 0.  1.
         21   -1    0    0  501  503 -0.00000000000E+00 -0.00000000000E+00 -0.10564904646E+03  0.10564904646E+03  0.00000000000E+00 0.  1.
          6    2    1    2  501    0  0.12443616362E+02 -0.16822322294E+02 -0.34351635626E+01  0.17565643542E+03  0.17437186941E+03 0.  0.
         24    2    3    3    0    0  0.44617982154E+02 -0.14074639944E+01 -0.58877746748E+02  0.10955970554E+03  0.80894961088E+02 0.  0.
         -6    2    1    2    0  502 -0.12443616362E+02  0.16822322294E+02  0.43338847626E+03  0.46559497021E+03  0.16886465233E+03 0.  0.
        -24    2    5    5    0    0  0.34490862753E+02 -0.18712045532E+02  0.36289710811E+03  0.37363487228E+03  0.79805679290E+02 0.  0.
          5    1    3    3  501    0 -0.32174365792E+02 -0.15414858299E+02  0.55442583185E+02  0.66096729880E+02  0.47000000000E+01 0. -1.
        -13    1    4    4    0    0 -0.16667673925E+02 -0.27744971978E+00  0.82981929910E+01  0.18621179859E+02  0.00000000000E+00 0.  1.
         14    1    4    4    0    0  0.61285656079E+02 -0.11300142747E+01 -0.67175939739E+02  0.90938525681E+02  0.00000000000E+00 0. -1.
         -5    1    5    5    0  502 -0.46934479115E+02  0.35534367825E+02  0.70491368153E+02  0.91960097926E+02  0.47000000000E+01 0.  1.
         13    1    6    6    0    0 -0.41053261129E+00 -0.31949448700E+01 -0.37842416038E+01  0.49695768697E+01  0.00000000000E+00 0. -1.
        -14    1    6    6    0    0  0.34901395364E+02 -0.15517100662E+02  0.36668134971E+03  0.36866529541E+03  0.00000000000E+00 0.  1.
<mgrwt>
<rscale>  2 0.17423991E+03</rscale>
<asrwt>0</asrwt>
<pdfrwt beam="1">  1       21 0.82400361E-01 0.17562284E+03</pdfrwt>
<pdfrwt beam="2">  1       21 0.16253700E-01 0.17562284E+03</pdfrwt>
<totfact> 0.43951900E+04</totfact>
</mgrwt>
</event>
<event>
12    1  0.1074575E-001  0.2076488E+03  0.7546771E-02  0.1143604E+00
         21   -1    0    0  501  502  0.00000000000E+00  0.00000000000E+00  0.62921218783E+02  0.62921218783E+02  0.00000000000E+00 0.  1.
         21   -1    0    0  502  503 -0.00000000000E+00 -0.00000000000E+00 -0.92917054823E+03  0.92917054823E+03  0.00000000000E+00 0.  1.
         -6    2    1    2    0  503  0.46413104416E+02 -0.10575932369E+03 -0.68803380375E+03  0.71845183356E+03  0.17159053362E+03 0.  0.
        -24    2    3    3    0    0 -0.13292136588E+02 -0.11983619348E+03 -0.46543319430E+03  0.48750596242E+03  0.80601556296E+02 0.  0.
          6    2    1    2  501    0 -0.46413104416E+02  0.10575932369E+03 -0.17821552569E+03  0.27363993345E+03  0.17256543331E+03 0.  0.
         24    2    5    5    0    0  0.94981015548E+00  0.75779148632E+02 -0.28696204716E+02  0.11388958472E+03  0.80024895106E+02 0.  0.
          5    1    5    5  501    0 -0.47362914571E+02  0.29980175060E+02 -0.14951932097E+03  0.15975034873E+03  0.47000000000E+01 0. -1.
        -13    1    6    6    0    0 -0.26121681767E+02  0.72808148149E+02 -0.45387929022E+01  0.77485284644E+02  0.00000000000E+00 0.  1.
         14    1    6    6    0    0  0.27071491923E+02  0.29710004825E+01 -0.24157411814E+02  0.36404300080E+02  0.00000000000E+00 0. -1.
         -5    1    3    3    0  503  0.59705241004E+02  0.14076869792E+02 -0.22260060946E+03  0.23094587114E+03  0.47000000000E+01 0.  1.
         13    1    4    4    0    0 -0.37541998429E+01  0.11106369843E+02 -0.20597444691E+02  0.23700215091E+02  0.00000000000E+00 0. -1.
        -14    1    4    4    0    0 -0.95379367450E+01 -0.13094256333E+03 -0.44483574960E+03  0.46380574733E+03  0.00000000000E+00 0.  1.
<mgrwt>
<rscale>  2 0.20744617E+03</rscale>
<asrwt>0</asrwt>
<pdfrwt beam="1">  1       21 0.96801876E-02 0.20764884E+03</pdfrwt>
<pdfrwt beam="2">  1       21 0.14294931E+00 0.20764884E+03</pdfrwt>
<totfact> 0.28864505E+04</totfact>
</mgrwt>
</event>
<event>
12    1  0.1074575E-001  0.2012750E+03  0.7546771E-02  0.1148856E+00
         21   -1    0    0  503  502  0.00000000000E+00  0.00000000000E+00  0.28430567411E+03  0.28430567411E+03  0.00000000000E+00 0. -1.
         21   -1    0    0  501  503 -0.00000000000E+00 -0.00000000000E+00 -0.26505611784E+03  0.26505611784E+03  0.00000000000E+00 0. -1.
          6    2    1    2  501    0 -0.74549402716E+02 -0.69768816495E+02 -0.17763028524E+03  0.26844763469E+03  0.17345406635E+03 0.  0.
         24    2    3    3    0    0 -0.10836721945E+03 -0.84275522690E+02 -0.16541846248E+03  0.22939244465E+03  0.80073765743E+02 0.  0.
         -6    2    1    2    0  502  0.74549402716E+02  0.69768816495E+02  0.19687984151E+03  0.28091415726E+03  0.17241168915E+03 0.  0.
        -24    2    5    5    0    0 -0.16219481374E+02  0.56341686175E+02  0.13643034818E+03  0.17093457101E+03  0.84663631414E+02 0.  0.
          5    1    3    3  501    0  0.33817816735E+02  0.14506706195E+02 -0.12211822763E+02  0.39055190033E+02  0.47000000000E+01 0. -1.
        -13    1    4    4    0    0 -0.83963129237E+02 -0.46584129968E+02 -0.56090296582E+02  0.11120256115E+03  0.00000000000E+00 0.  1.
         14    1    4    4    0    0 -0.24404090214E+02 -0.37691392722E+02 -0.10932816589E+03  0.11818988350E+03  0.00000000000E+00 0. -1.
         -5    1    5    5    0  502  0.90768884090E+02  0.13427130320E+02  0.60449493334E+02  0.10997958625E+03  0.47000000000E+01 0.  1.
         13    1    6    6    0    0  0.24622846586E+02  0.39795042354E+02  0.11002158127E+03  0.11956035428E+03  0.00000000000E+00 0. -1.
        -14    1    6    6    0    0 -0.40842327961E+02  0.16546643821E+02  0.26408766911E+02  0.51374216731E+02  0.00000000000E+00 0.  1.
<mgrwt>
<rscale>  2 0.20105020E+03</rscale>
<asrwt>0</asrwt>
<pdfrwt beam="1">  1       21 0.43739335E-01 0.20127497E+03</pdfrwt>
<pdfrwt beam="2">  1       21 0.40777864E-01 0.20127497E+03</pdfrwt>
<totfact> 0.28959658E+04</totfact>
</mgrwt>
</event>
<event>
12    1  0.1074575E-001  0.1822960E+03  0.7546771E-02  0.1165682E+00
         21   -1    0    0  503  502  0.00000000000E+00  0.00000000000E+00  0.38032787938E+02  0.38032787938E+02  0.00000000000E+00 0. -1.
         21   -1    0    0  501  503 -0.00000000000E+00 -0.00000000000E+00 -0.12428658354E+04  0.12428658354E+04  0.00000000000E+00 0. -1.
          6    2    1    2  501    0 -0.30960541315E+02 -0.47184767382E+02 -0.25221901002E+03  0.31099897700E+03  0.17297681142E+03 0.  0.
         24    2    3    3    0    0 -0.41402947424E+02  0.23316164292E+02 -0.20663856919E+03  0.22626945559E+03  0.78996966288E+02 0.  0.
         -6    2    1    2    0  502  0.30960541315E+02  0.47184767382E+02 -0.95261403743E+03  0.96989964633E+03  0.17334030760E+03 0.  0.
        -24    2    5    5    0    0  0.69296742091E+02  0.68929017014E+02 -0.51843714946E+03  0.53346621872E+03  0.79094125730E+02 0.  0.
          5    1    3    3  501    0  0.10442406109E+02 -0.70500931674E+02 -0.45580440823E+02  0.84729521407E+02  0.47000000000E+01 0. -1.
        -13    1    4    4    0    0  0.92652231676E+01 -0.47839392874E+01  0.12093357392E+01  0.10497281952E+02  0.00000000000E+00 0.  1.
         14    1    4    4    0    0 -0.50668170591E+02  0.28100103579E+02 -0.20784790493E+03  0.21577217364E+03  0.00000000000E+00 0. -1.
         -5    1    5    5    0  502 -0.38336200776E+02 -0.21744249632E+02 -0.43417688797E+03  0.43643342761E+03  0.47000000000E+01 0.  1.
         13    1    6    6    0    0  0.75115737989E+02  0.68750078469E+02 -0.51767490630E+03  0.52759478389E+03  0.00000000000E+00 0. -1.
        -14    1    6    6    0    0 -0.58189958983E+01  0.17893854463E+00 -0.76224316195E+00  0.58714348251E+01  0.00000000000E+00 0.  1.
<mgrwt>
<rscale>  2 0.18220950E+03</rscale>
<asrwt>0</asrwt>
<pdfrwt beam="1">  1       21 0.58511988E-02 0.18229597E+03</pdfrwt>
<pdfrwt beam="2">  1       21 0.19121011E+00 0.18229597E+03</pdfrwt>
<totfact> 0.31747919E+04</totfact>
</mgrwt>
</event>
<event>
12    1  0.1074575E-001  0.1861427E+03  0.7546771E-02  0.1162346E+00
         21   -1    0    0  503  502  0.00000000000E+00  0.00000000000E+00  0.55777202195E+02  0.55777202195E+02  0.00000000000E+00 0.  1.
         21   -1    0    0  501  503 -0.00000000000E+00 -0.00000000000E+00 -0.73949192629E+03  0.73949192629E+03  0.00000000000E+00 0.  1.
          6    2    1    2  501    0  0.72050999505E+02 -0.13068956681E+02 -0.50312079163E+03  0.53591748488E+03  0.16945464135E+03 0.  0.
         24    2    3    3    0    0  0.81250513345E+02 -0.15925124742E+02 -0.51023457917E+03  0.52305339828E+03  0.79939202907E+02 0.  0.
         -6    2    1    2    0  502 -0.72050999505E+02  0.13068956681E+02 -0.18059393246E+03  0.25935164360E+03  0.17113434032E+03 0.  0.
        -24    2    5    5    0    0 -0.43665121249E+02 -0.33862527374E+02 -0.36134760428E+02  0.10475906724E+03  0.81335279456E+02 0.  0.
          5    1    3    3  501    0 -0.91995138404E+01  0.28561680604E+01  0.71137875380E+01  0.12864086599E+02  0.47000000000E+01 0. -1.
        -13    1    4    4    0    0  0.38657760006E+02 -0.47011009046E+02 -0.31482197429E+03  0.32065141957E+03  0.00000000000E+00 0.  1.
         14    1    4    4    0    0  0.42592753339E+02  0.31085884304E+02 -0.19541260488E+03  0.20240197871E+03  0.00000000000E+00 0. -1.
         -5    1    5    5    0  502 -0.28385878256E+02  0.46931484055E+02 -0.14445917204E+03  0.15459257636E+03  0.47000000000E+01 0.  1.
         11    1    6    6    0    0  0.14957017602E+02  0.15388028708E+02 -0.45561773159E+01  0.21937697117E+02  0.00000000000E+00 0. -1.
        -12    1    6    6    0    0 -0.58622138851E+02 -0.49250556082E+02 -0.31578583113E+02  0.82821370124E+02  0.00000000000E+00 0.  1.
<mgrwt>
<rscale>  2 0.18575573E+03</rscale>
<asrwt>0</asrwt>
<pdfrwt beam="1">  1       21 0.85811079E-02 0.18614270E+03</pdfrwt>
<pdfrwt beam="2">  1       21 0.11376799E+00 0.18614270E+03</pdfrwt>
<totfact> 0.64106301E+04</totfact>
</mgrwt>
</event>
<event>
12    1  0.1074575E-001  0.2008424E+03  0.7546771E-02  0.1149251E+00
         21   -1    0    0  501  502  0.00000000000E+00  0.00000000000E+00  0.14439500642E+03  0.14439500642E+03  0.00000000000E+00 0. -1.
         21   -1    0    0  502  503 -0.00000000000E+00 -0.00000000000E+00 -0.27815106848E+03  0.27815106848E+03  0.00000000000E+00 0.  1.
         -6    2    1    2    0  503 -0.99977697042E+02 -0.60342857150E+01 -0.73414739247E+02  0.21383966005E+03  0.17408539216E+03 0.  0.
        -24    2    3    3    0    0 -0.27005278871E+02  0.49035129445E+02 -0.83679459026E+02  0.12172522703E+03  0.68418199519E+02 0.  0.
          6    2    1    2  501    0  0.99977697042E+02  0.60342857150E+01 -0.60341322810E+02  0.20870641484E+03  0.17287376853E+03 0.  0.
         24    2    5    5    0    0  0.79121755475E+02 -0.19312302886E+02 -0.10343914798E+03  0.15432873204E+03  0.80526287420E+02 0.  0.
          5    1    5    5  501    0  0.20855941567E+02  0.25346588601E+02  0.43097825170E+02  0.54377682800E+02  0.47000000000E+01 0. -1.
        -13    1    6    6    0    0 -0.90789306161E+01  0.14163322145E+01 -0.46320895676E+02  0.47223493669E+02  0.00000000000E+00 0.  1.
         14    1    6    6    0    0  0.88200686091E+02 -0.20728635100E+02 -0.57118252305E+02  0.10710523837E+03  0.00000000000E+00 0. -1.
         -5    1    3    3    0  503 -0.72972418171E+02 -0.55069415160E+02  0.10264719779E+02  0.92114433028E+02  0.47000000000E+01 0.  1.
         13    1    4    4    0    0 -0.10501364005E+02  0.13743833742E+02  0.10201780598E+02  0.20081034318E+02  0.00000000000E+00 0. -1.
        -14    1    4    4    0    0 -0.16503914865E+02  0.35291295703E+02 -0.93881239623E+02  0.10164419271E+03  0.00000000000E+00 0.  1.
<mgrwt>
<rscale>  2 0.20057958E+03</rscale>
<asrwt>0</asrwt>
<pdfrwt beam="1">  1       21 0.22214617E-01 0.20084242E+03</pdfrwt>
<pdfrwt beam="2">  1       21 0.42792472E-01 0.20084242E+03</pdfrwt>
<totfact> 0.99219444E+04</totfact>
</mgrwt>
</event>
<event>
12    1  0.1074575E-001  0.1806784E+03  0.7546771E-02  0.1167288E+00
         21   -1    0    0  503  502  0.00000000000E+00  0.00000000000E+00  0.51650415392E+03  0.51650415392E+03  0.00000000000E+00 0.  1.
         21   -1    0    0  501  503 -0.00000000000E+00 -0.00000000000E+00 -0.36333031784E+03  0.36333031784E+03  0.00000000000E+00 0.  1.
          6    2    1    2  501    0  0.45473157675E+02  0.22749361939E+02 -0.32335410556E+03  0.37040865782E+03  0.17337633827E+03 0.  0.
         24    2    3    3    0    0  0.94029218023E+02 -0.52623023414E+01 -0.20188678771E+03  0.23654774629E+03  0.79544802185E+02 0.  0.
         -6    2    1    2    0  502 -0.45473157675E+02 -0.22749361939E+02  0.47652794164E+03  0.50942581393E+03  0.17277279647E+03 0.  0.
        -24    2    5    5    0    0 -0.47693673349E+02  0.47332915939E+02  0.34117510874E+03  0.35691700849E+03  0.80462442917E+02 0.  0.
          5    1    3    3  501    0 -0.48556060348E+02  0.28011664281E+02 -0.12146731784E+03  0.13386091153E+03  0.47000000000E+01 0. -1.
        -13    1    4    4    0    0  0.25672325857E+02 -0.39126218725E+02 -0.70419614176E+02  0.84550880346E+02  0.00000000000E+00 0.  1.
         14    1    4    4    0    0  0.68356892166E+02  0.33863916383E+02 -0.13146717354E+03  0.15199686594E+03  0.00000000000E+00 0. -1.
         -5    1    5    5    0  502  0.22205156744E+01 -0.70082277878E+02  0.13535283290E+03  0.15250880544E+03  0.47000000000E+01 0.  1.
         13    1    6    6    0    0  0.37906109917E+01  0.26404388363E+02  0.27333450690E+02  0.38192643050E+02  0.00000000000E+00 0. -1.
        -14    1    6    6    0    0 -0.51484284341E+02  0.20928527576E+02  0.31384165805E+03  0.31872436544E+03  0.00000000000E+00 0.  1.
<mgrwt>
<rscale>  2 0.18053349E+03</rscale>
<asrwt>0</asrwt>
<pdfrwt beam="1">  1       21 0.79462177E-01 0.18067843E+03</pdfrwt>
<pdfrwt beam="2">  1       21 0.55896972E-01 0.18067843E+03</pdfrwt>
<totfact> 0.42504835E+03</totfact>
</mgrwt>
</event>
<event>
12    1  0.1074575E-001  0.5545933E+03  0.7546771E-02  0.1000495E+00
         21   -1    0    0  501  502  0.00000000000E+00  0.00000000000E+00  0.55370270466E+03  0.55370270466E+03  0.00000000000E+00 0.  1.
         21   -1    0    0  502  503 -0.00000000000E+00 -0.00000000000E+00 -0.56141463374E+03  0.56141463374E+03  0.00000000000E+00 0.  1.
         -6    2    1    2    0  503  0.40751688916E+03 -0.33393311208E+03 -0.65900663360E+02  0.55747975528E+03  0.16988066936E+03 0.  0.
        -24    2    3    3    0    0  0.27201598312E+03 -0.27419567792E+03 -0.95465968826E+02  0.40639946581E+03  0.82890347729E+02 0.  0.
          6    2    1    2  501    0 -0.40751688916E+03  0.33393311208E+03  0.58188734280E+02  0.55763758313E+03  0.17318316034E+03 0.  0.
         24    2    5    5    0    0 -0.28146876766E+03  0.18502207493E+03 -0.21018760364E+02  0.34702290385E+03  0.80779156539E+02 0.  0.
          5    1    5    5  501    0 -0.12604812150E+03  0.14891103715E+03  0.79207494644E+02  0.21061467928E+03  0.47000000000E+01 0. -1.
        -11    1    6    6    0    0 -0.60988811025E+02  0.84040865012E+02 -0.87808739867E+01  0.10420943244E+03  0.00000000000E+00 0.  1.
         12    1    6    6    0    0 -0.22047995663E+03  0.10098120991E+03 -0.12237886378E+02  0.24281347141E+03  0.00000000000E+00 0. -1.
         -5    1    3    3    0  503  0.13550090604E+03 -0.59737434159E+02  0.29565305466E+02  0.15108028946E+03  0.47000000000E+01 0.  1.
         11    1    4    4    0    0  0.21738666149E+02 -0.16892202843E+02  0.14327137508E+02  0.31035189576E+02  0.00000000000E+00 0. -1.
        -12    1    4    4    0    0  0.25027731697E+03 -0.25730347508E+03 -0.10979310633E+03  0.37536427624E+03  0.00000000000E+00 0.  1.
<mgrwt>
<rscale>  2 0.55433754E+03</rscale>
<asrwt>0</asrwt>
<pdfrwt beam="1">  1       21 0.85185032E-01 0.55459332E+03</pdfrwt>
<pdfrwt beam="2">  1       21 0.86371481E-01 0.55459332E+03</pdfrwt>
<totfact> 0.11320332E+03</totfact>
</mgrwt>
</event>
<event>
12    1  0.1074575E-001  0.1743129E+03  0.7546771E-02  0.1173646E+00
         21   -1    0    0  503  502  0.00000000000E+00  0.00000000000E+00  0.27895161826E+03  0.27895161826E+03  0.00000000000E+00 0. -1.
         21   -1    0    0  501  503 -0.00000000000E+00 -0.00000000000E+00 -0.11126131317E+03  0.11126131317E+03  0.00000000000E+00 0. -1.
          6    2    1    2  501    0 -0.11365629957E+02  0.17247912807E+02  0.52630913886E+02  0.18208515675E+03  0.17308472830E+03 0.  0.
         24    2    3    3    0    0  0.52005405355E+02 -0.20239095575E+02  0.12601885095E+02  0.98147220989E+02  0.79748895316E+02 0.  0.
         -6    2    1    2    0  502  0.11365629957E+02 -0.17247912807E+02  0.11505939120E+03  0.20812777468E+03  0.17219709362E+03 0.  0.
        -24    2    5    5    0    0  0.15471953071E+02 -0.71769636275E+02  0.10632949019E+03  0.15255996573E+03  0.81106847050E+02 0.  0.
          5    1    3    3  501    0 -0.63371035312E+02  0.37487008382E+02  0.40029028791E+02  0.83937935762E+02  0.47000000000E+01 0. -1.
        -13    1    4    4    0    0  0.37724405861E+02 -0.47685139451E+02  0.23727248595E+02  0.65268565542E+02  0.00000000000E+00 0.  1.
         14    1    4    4    0    0  0.14280999493E+02  0.27446043877E+02 -0.11125363499E+02  0.32878655447E+02  0.00000000000E+00 0. -1.
         -5    1    5    5    0  502 -0.41063231138E+01  0.54521723468E+02  0.87299010069E+01  0.55567808945E+02  0.47000000000E+01 0.  1.
         13    1    6    6    0    0  0.37267150801E+02 -0.59459985506E+02  0.38025687856E+02  0.79814054790E+02  0.00000000000E+00 0. -1.
        -14    1    6    6    0    0 -0.21795197730E+02 -0.12309650770E+02  0.68303802332E+02  0.72745910945E+02  0.00000000000E+00 0.  1.
<mgrwt>
<rscale>  2 0.17409216E+03</rscale>
<asrwt>0</asrwt>
<pdfrwt beam="1">  1       21 0.42915633E-01 0.17431291E+03</pdfrwt>
<pdfrwt beam="2">  1       21 0.17117125E-01 0.17431291E+03</pdfrwt>
<totfact> 0.16179281E+05</totfact>
</mgrwt>
</event>
<event>
12    1  0.1074575E-001  0.2617510E+03  0.7546771E-02  0.1107122E+00
         21   -1    0    0  503  502  0.00000000000E+00  0.00000000000E+00  0.84330576182E+03  0.84330576182E+03  0.00000000000E+00 0. -1.
         21   -1    0    0  501  503 -0.00000000000E+00 -0.00000000000E+00 -0.24726950098E+03  0.24726950098E+03  0.00000000000E+00 0. -1.
          6    2    1    2  501    0  0.36578511326E+02  0.18512862627E+03 -0.15284991286E+03  0.29726317521E+03  0.17144008785E+03 0.  0.
         24    2    3    3    0    0  0.71438785195E+02  0.15429248632E+03 -0.63369012324E+02  0.19629274497E+03  0.74870145204E+02 0.  0.
         -6    2    1    2    0  502 -0.36578511326E+02 -0.18512862627E+03  0.74888617371E+03  0.79331208758E+03  0.18139176215E+03 0.  0.
        -24    2    5    5    0    0 -0.91191666229E+02 -0.13053700438E+03  0.43538005894E+03  0.47040185878E+03  0.79788993704E+02 0.  0.
          5    1    3    3  501    0 -0.34860273869E+02  0.30836139953E+02 -0.89480900540E+02  0.10097043024E+03  0.47000000000E+01 0. -1.
        -13    1    4    4    0    0  0.46440886410E+02  0.31725481763E+02 -0.39271781162E+00  0.56244256160E+02  0.00000000000E+00 0.  1.
         14    1    4    4    0    0  0.24997898784E+02  0.12256700455E+03 -0.62976294512E+02  0.14004848881E+03  0.00000000000E+00 0. -1.
         -5    1    5    5    0  502  0.54613154903E+02 -0.54591621885E+02  0.31350611477E+03  0.32291022880E+03  0.47000000000E+01 0.  1.
         11    1    6    6    0    0 -0.81118944397E+02 -0.77902011683E+02  0.20452633538E+03  0.23340957227E+03  0.00000000000E+00 0. -1.
        -12    1    6    6    0    0 -0.10072721831E+02 -0.52634992702E+02  0.23085372356E+03  0.23699228651E+03  0.00000000000E+00 0.  1.
<mgrwt>
<rscale>  2 0.26003530E+03</rscale>
<asrwt>0</asrwt>
<pdfrwt beam="1">  1       21 0.12973935E+00 0.26175096E+03</pdfrwt>
<pdfrwt beam="2">  1       21 0.38041462E-01 0.26175096E+03</pdfrwt>
<totfact> 0.27431696E+03</totfact>
</mgrwt>
</event>
<event>
12    1  0.1074575E-001  0.1789647E+03  0.7546771E-02  0.1169589E+00
         21   -1    0    0  501  502  0.00000000000E+00  0.00000000000E+00  0.10930091852E+03  0.10930091852E+03  0.00000000000E+00 0. -1.
         21   -1    0    0  502  503 -0.00000000000E+00 -0.00000000000E+00 -0.29048967820E+03  0.29048967820E+03  0.00000000000E+00 0. -1.
         -6    2    1    2    0  503 -0.27801867948E+02 -0.17684161121E+02 -0.11041007863E+03  0.21028254246E+03  0.17590534041E+03 0.  0.
        -24    2    3    3    0    0 -0.41469147116E+01  0.19945140614E+02 -0.13541212862E+03  0.15907010583E+03  0.80943489282E+02 0.  0.
          6    2    1    2  501    0  0.27801867948E+02  0.17684161121E+02 -0.70778681051E+02  0.18950805426E+03  0.17267891452E+03 0.  0.
         24    2    5    5    0    0  0.35472331506E+02  0.60100377815E+02 -0.94519149420E+00  0.10730843313E+03  0.81509905640E+02 0.  0.
          5    1    5    5  501    0 -0.76704635578E+01 -0.42416216694E+02 -0.69833489557E+02  0.82199621128E+02  0.47000000000E+01 0. -1.
        -11    1    6    6    0    0  0.55060378167E+02  0.64439402687E+02  0.84031920197E+01  0.85174500284E+02  0.00000000000E+00 0.  1.
         12    1    6    6    0    0 -0.19588046661E+02 -0.43390248721E+01 -0.93483835139E+01  0.22133932844E+02  0.00000000000E+00 0. -1.
         -5    1    3    3    0  503 -0.23654953237E+02 -0.37629301735E+02  0.25002049985E+02  0.51212436626E+02  0.47000000000E+01 0.  1.
         11    1    4    4    0    0 -0.40649593044E+02  0.22825551556E+02 -0.81679327021E+02  0.94047369347E+02  0.00000000000E+00 0. -1.
        -12    1    4    4    0    0  0.36502678333E+02 -0.28804109420E+01 -0.53732801598E+02  0.65022736487E+02  0.00000000000E+00 0.  1.
<mgrwt>
<rscale>  2 0.17816681E+03</rscale>
<asrwt>0</asrwt>
<pdfrwt beam="1">  1       21 0.16815526E-01 0.17896470E+03</pdfrwt>
<pdfrwt beam="2">  1       21 0.44690719E-01 0.17896470E+03</pdfrwt>
<totfact> 0.15365182E+05</totfact>
</mgrwt>
</event>
<event>
11    1  0.1074575E-001  0.1784089E+03  0.7546771E-02  0.1169496E+00
         21   -1    0    0  503  502  0.00000000000E+00  0.00000000000E+00  0.37079006979E+03  0.37079006979E+03  0.00000000000E+00 0. -1.
         21   -1    0    0  501  503 -0.00000000000E+00 -0.00000000000E+00 -0.28713139340E+03  0.28713139340E+03  0.00000000000E+00 0. -1.
          6    2    1    2  501    0 -0.39396504246E+02 -0.14941732836E+02 -0.23381625497E+03  0.29375107007E+03  0.17275505826E+03 0.  0.
         -6    2    1    2    0  502  0.39396504246E+02  0.14941732836E+02  0.31747493136E+03  0.36417039313E+03  0.17336205832E+03 0.  0.
        -24    2    4    4    0    0  0.58737799812E+02  0.25372348667E+02  0.32460839601E+03  0.34059371443E+03  0.80867684176E+02 0.  0.
          5    1    3    3  501    0  0.24462121939E+02 -0.60489888989E+01 -0.41898400774E+02  0.49117732682E+02  0.47000000000E+01 0. -1.
        -13    1    3    3    0    0  0.16064414924E+02 -0.56381545069E+02 -0.78743056798E+02  0.98170326704E+02  0.00000000000E+00 0.  1.
         14    1    3    3    0    0 -0.79923041108E+02  0.47488801132E+02 -0.11317479739E+03  0.14646301068E+03  0.00000000000E+00 0. -1.
         -5    1    4    4    0  502 -0.19341295566E+02 -0.10430615831E+02 -0.71334646523E+01  0.23576678704E+02  0.47000000000E+01 0.  1.
         13    1    5    5    0    0  0.41245016089E+02  0.15836098878E+01  0.51997181610E+02  0.66387996414E+02  0.00000000000E+00 0. -1.
        -14    1    5    5    0    0  0.17492783723E+02  0.23788738779E+02  0.27261121440E+03  0.27420571801E+03  0.00000000000E+00 0.  1.
<mgrwt>
<rscale>  2 0.17826130E+03</rscale>
<asrwt>0</asrwt>
<pdfrwt beam="1">  1       21 0.57044626E-01 0.17840892E+03</pdfrwt>
<pdfrwt beam="2">  1       21 0.44174061E-01 0.17840892E+03</pdfrwt>
<totfact> 0.14340130E+04</totfact>
</mgrwt>
</event>
<event>
12    1  0.1074575E-001  0.2013064E+03  0.7546771E-02  0.1148659E+00
         21   -1    0    0  503  502  0.00000000000E+00  0.00000000000E+00  0.94879963578E+02  0.94879963578E+02  0.00000000000E+00 0. -1.
         21   -1    0    0  501  503 -0.00000000000E+00 -0.00000000000E+00 -0.50217555742E+03  0.50217555742E+03  0.00000000000E+00 0. -1.
          6    2    1    2  501    0  0.99634146467E+02  0.24000232705E+02 -0.31923455782E+03  0.37740558414E+03  0.17326655107E+03 0.  0.
         24    2    3    3    0    0  0.12630722511E+02  0.57637276104E+02 -0.13248915813E+03  0.16860668382E+03  0.85983987226E+02 0.  0.
         -6    2    1    2    0  502 -0.99634146467E+02 -0.24000232705E+02 -0.88061036022E+02  0.21964993686E+03  0.17317151724E+03 0.  0.
        -24    2    5    5    0    0 -0.84735109392E+02 -0.80472493643E+02 -0.51978223745E+02  0.15083746050E+03  0.79964634361E+02 0.  0.
          5    1    3    3  501    0  0.87003423956E+02 -0.33637043399E+02 -0.18674539969E+03  0.20879890032E+03  0.47000000000E+01 0. -1.
        -11    1    4    4    0    0 -0.23758844302E+02 -0.83002968705E+01 -0.15771955574E+02  0.29700710317E+02  0.00000000000E+00 0.  1.
         12    1    4    4    0    0  0.36389566813E+02  0.65937572975E+02 -0.11671720256E+03  0.13890597351E+03  0.00000000000E+00 0. -1.
         -5    1    5    5    0  502 -0.14899037075E+02  0.56472260938E+02 -0.36082812277E+02  0.68812476362E+02  0.47000000000E+01 0.  1.
         11    1    6    6    0    0 -0.84423615705E+02 -0.56910466304E+02 -0.67917799497E+02  0.12238862509E+03  0.00000000000E+00 0. -1.
        -12    1    6    6    0    0 -0.31149368691E+00 -0.23562027340E+02  0.15939575752E+02  0.28448835404E+02  0.00000000000E+00 0.  1.
<mgrwt>
<rscale>  2 0.20128596E+03</rscale>
<asrwt>0</asrwt>
<pdfrwt beam="1">  1       21 0.14596917E-01 0.20130641E+03</pdfrwt>
<pdfrwt beam="2">  1       21 0.77257779E-01 0.20130641E+03</pdfrwt>
<totfact> 0.61075691E+04</totfact>
</mgrwt>
</event>
<event>
12    1  0.1074575E-001  0.1907436E+03  0.7546771E-02  0.1157959E+00
         21   -1    0    0  501  502  0.00000000000E+00  0.00000000000E+00  0.60367829650E+02  0.60367829650E+02  0.00000000000E+00 0.  1.
         21   -1    0    0  502  503 -0.00000000000E+00 -0.00000000000E+00 -0.86698427081E+03  0.86698427081E+03  0.00000000000E+00 0.  1.
         -6    2    1    2    0  503  0.77620332840E+02  0.40324913289E+02 -0.66099031764E+03  0.68796172059E+03  0.16950549927E+03 0.  0.
        -24    2    3    3    0    0 -0.10840242959E+02  0.38229242494E+02 -0.45420315329E+03  0.46298908526E+03  0.80494737495E+02 0.  0.
          6    2    1    2  501    0 -0.77620332840E+02 -0.40324913289E+02 -0.14562612353E+03  0.23939037988E+03  0.16867060035E+03 0.  0.
         24    2    5    5    0    0 -0.62110827233E+02  0.34655665094E+02 -0.11838401449E+03  0.15798488618E+03  0.76718181629E+02 0.  0.
          5    1    5    5  501    0 -0.15509505607E+02 -0.74980578382E+02 -0.27242109033E+02  0.81405493692E+02  0.47000000000E+01 0. -1.
        -13    1    6    6    0    0 -0.54283332364E+02  0.27955992491E+02 -0.28273936304E+02  0.67287689534E+02  0.00000000000E+00 0.  1.
         14    1    6    6    0    0 -0.78274948688E+01  0.66996726026E+01 -0.90110078189E+02  0.90697196650E+02  0.00000000000E+00 0. -1.
         -5    1    3    3    0  503  0.88460575798E+02  0.20956707945E+01 -0.20678716435E+03  0.22497263533E+03  0.47000000000E+01 0.  1.
         13    1    4    4    0    0 -0.21258427581E+02  0.28118202813E+02 -0.44363196664E+03  0.44503019662E+03  0.00000000000E+00 0. -1.
        -14    1    4    4    0    0  0.10418184622E+02  0.10111039681E+02 -0.10571186645E+02  0.17958888644E+02  0.00000000000E+00 0.  1.
<mgrwt>
<rscale>  2 0.19055796E+03</rscale>
<asrwt>0</asrwt>
<pdfrwt beam="1">  1       21 0.92873586E-02 0.19074362E+03</pdfrwt>
<pdfrwt beam="2">  1       21 0.13338219E+00 0.19074362E+03</pdfrwt>
<totfact> 0.37483624E+04</totfact>
</mgrwt>
</event>
<event>
12    1  0.1074575E-001  0.2104181E+03  0.7546771E-02  0.1143418E+00
         21   -1    0    0  501  502  0.00000000000E+00  0.00000000000E+00  0.29589752786E+03  0.29589752786E+03  0.00000000000E+00 0.  1.
         21   -1    0    0  502  503 -0.00000000000E+00 -0.00000000000E+00 -0.19954121730E+03  0.19954121730E+03  0.00000000000E+00 0.  1.
         -6    2    1    2    0  503  0.84092443874E+02 -0.52272382647E+02 -0.83814853043E+02  0.22649660322E+03  0.18566593811E+03 0.  0.
        -24    2    3    3    0    0  0.12393079842E+03 -0.68926087832E+02 -0.83596275979E+02  0.18306184565E+03  0.80085289485E+02 0.  0.
          6    2    1    2  501    0 -0.84092443874E+02  0.52272382647E+02  0.18017116360E+03  0.26894214194E+03  0.17339056033E+03 0.  0.
         24    2    5    5    0    0  0.18631943453E+02  0.51338989514E+02  0.92671096417E+02  0.13391798583E+03  0.79770004744E+02 0.  0.
          5    1    5    5  501    0 -0.10272438733E+03  0.93339313246E+00  0.87500067184E+02  0.13502415610E+03  0.47000000000E+01 0. -1.
        -11    1    6    6    0    0  0.80917329410E+01 -0.15211064331E+02  0.52993251753E+02  0.55723759308E+02  0.00000000000E+00 0.  1.
         12    1    6    6    0    0  0.10540210512E+02  0.66550053845E+02  0.39677844665E+02  0.78194226524E+02  0.00000000000E+00 0. -1.
         -5    1    3    3    0  503 -0.39838354549E+02  0.16653705185E+02 -0.21857706412E+00  0.43434757574E+02  0.47000000000E+01 0.  1.
         11    1    4    4    0    0  0.32451111682E+02 -0.63129057755E+02 -0.31831073594E+02  0.77791836517E+02  0.00000000000E+00 0. -1.
        -12    1    4    4    0    0  0.91479686741E+02 -0.57970300761E+01 -0.51765202385E+02  0.10527000913E+03  0.00000000000E+00 0.  1.
<mgrwt>
<rscale>  2 0.20767810E+03</rscale>
<asrwt>0</asrwt>
<pdfrwt beam="1">  1       21 0.45522697E-01 0.21041811E+03</pdfrwt>
<pdfrwt beam="2">  1       21 0.30698649E-01 0.21041811E+03</pdfrwt>
<totfact> 0.46735796E+04</totfact>
</mgrwt>
</event>
<event>
12    1  0.1074575E-001  0.1806665E+03  0.7546771E-02  0.1167629E+00
         21   -1    0    0  503  502  0.00000000000E+00  0.00000000000E+00  0.20933376829E+03  0.20933376829E+03  0.00000000000E+00 0.  1.
         21   -1    0    0  501  503 -0.00000000000E+00 -0.00000000000E+00 -0.37916577994E+03  0.37916577994E+03  0.00000000000E+00 0. -1.
          6    2    1    2  501    0 -0.31329560000E+02 -0.32058592000E+02 -0.31172400308E+03  0.36029465634E+03  0.17501740096E+03 0.  0.
         24    2    3    3    0    0  0.38560781216E+02 -0.41582896391E+02 -0.24166375183E+03  0.26076626353E+03  0.79884943057E+02 0.  0.
         -6    2    1    2    0  502  0.31329560000E+02  0.32058592000E+02  0.14189199143E+03  0.22820489189E+03  0.17301688010E+03 0.  0.
        -24    2    5    5    0    0  0.67638851975E+02 -0.26351470148E+02  0.75012416695E+02  0.13215767662E+03  0.81051678310E+02 0.  0.
          5    1    3    3  501    0 -0.69890341216E+02  0.95243043905E+01 -0.70060251251E+02  0.99528392807E+02  0.47000000000E+01 0. -1.
        -13    1    4    4    0    0  0.41803934119E+02 -0.51923440520E+02 -0.10975094143E+03  0.12840904068E+03  0.00000000000E+00 0.  1.
         14    1    4    4    0    0 -0.32431529029E+01  0.10340544129E+02 -0.13191281040E+03  0.13235722285E+03  0.00000000000E+00 0. -1.
         -5    1    5    5    0  502 -0.36309291975E+02  0.58410062148E+02  0.66879574739E+02  0.96047215270E+02  0.47000000000E+01 0.  1.
         13    1    6    6    0    0  0.26956061443E+02 -0.14305904126E+02 -0.13981269012E+02  0.33567305888E+02  0.00000000000E+00 0. -1.
        -14    1    6    6    0    0  0.40682790532E+02 -0.12045566022E+02  0.88993685707E+02  0.98590370737E+02  0.00000000000E+00 0.  1.
<mgrwt>
<rscale>  2 0.18018022E+03</rscale>
<asrwt>0</asrwt>
<pdfrwt beam="1">  1       21 0.32205196E-01 0.18066650E+03</pdfrwt>
<pdfrwt beam="2">  1       21 0.58333196E-01 0.18066650E+03</pdfrwt>
<totfact> 0.25701536E+04</totfact>
</mgrwt>
</event>
<event>
12    1  0.1074575E-001  0.1869026E+03  0.7546771E-02  0.1161361E+00
         21   -1    0    0  503  502  0.00000000000E+00  0.00000000000E+00  0.78991062134E+03  0.78991062134E+03  0.00000000000E+00 0. -1.
         21   -1    0    0  501  503 -0.00000000000E+00 -0.00000000000E+00 -0.56194464798E+02  0.56194464798E+02  0.00000000000E+00 0. -1.
          6    2    1    2  501    0 -0.62798989529E+02 -0.31323513102E+02  0.17071284218E+03  0.25288901305E+03  0.17287308315E+03 0.  0.
         24    2    3    3    0    0 -0.63061542806E+01  0.43596582729E+02  0.97874895872E+02  0.13401127075E+03  0.80243976954E+02 0.  0.
         -6    2    1    2    0  502  0.62798989529E+02  0.31323513102E+02  0.56300331436E+03  0.59321607309E+03  0.17322731258E+03 0.  0.
        -24    2    5    5    0    0  0.49137849489E+02  0.41549111878E+02  0.56593797039E+03  0.57527472911E+03  0.80711651440E+02 0.  0.
          5    1    3    3  501    0 -0.56492835248E+02 -0.74920095832E+02  0.72837946303E+02  0.11887774230E+03  0.47000000000E+01 0. -1.
        -11    1    4    4    0    0  0.22303881825E+02 -0.14431228432E+02  0.23879726348E+02  0.35720649896E+02  0.00000000000E+00 0.  1.
         12    1    4    4    0    0 -0.28610036105E+02  0.58027811162E+02  0.73995169525E+02  0.98290620850E+02  0.00000000000E+00 0. -1.
         -5    1    5    5    0  502  0.13661140040E+02 -0.10225598775E+02 -0.29346560255E+01  0.17941343971E+02  0.47000000000E+01 0.  1.
         13    1    6    6    0    0 -0.16993198523E+02  0.27999637901E+02  0.12597572304E+03  0.13016386332E+03  0.00000000000E+00 0. -1.
        -14    1    6    6    0    0  0.66131048011E+02  0.13549473977E+02  0.43996224735E+03  0.44511086579E+03  0.00000000000E+00 0.  1.
<mgrwt>
<rscale>  2 0.18682047E+03</rscale>
<asrwt>0</asrwt>
<pdfrwt beam="1">  1       21 0.12152470E+00 0.18690259E+03</pdfrwt>
<pdfrwt beam="2">  1       21 0.86453029E-02 0.18690259E+03</pdfrwt>
<totfact> 0.53798361E+04</totfact>
</mgrwt>
</event>
<event>
12    1  0.1074575E-001  0.2844728E+03  0.7546771E-02  0.1093387E+00
         21   -1    0    0  503  502  0.00000000000E+00  0.00000000000E+00  0.11695332018E+04  0.11695332018E+04  0.00000000000E+00 0.  1.
         21   -1    0    0  501  503 -0.00000000000E+00 -0.00000000000E+00 -0.20617298744E+03  0.20617298744E+03  0.00000000000E+00 0.  1.
          6    2    1    2  501    0 -0.22458674113E+03 -0.23192107708E+02 -0.79667946755E+02  0.29458060498E+03  0.17162072409E+03 0.  0.
         24    2    3    3    0    0 -0.21085624932E+03  0.88848408979E+01 -0.21461021100E+02  0.22655418929E+03  0.79541982510E+02 0.  0.
         -6    2    1    2    0  502  0.22458674113E+03  0.23192107708E+02  0.10430281611E+04  0.10811255842E+04  0.17305405491E+03 0.  0.
        -24    2    5    5    0    0  0.20908377382E+03  0.52183364682E+02  0.10050365065E+04  0.10306647995E+04  0.75712756810E+02 0.  0.
          5    1    3    3  501    0 -0.13730491810E+02 -0.32076948606E+02 -0.58206925655E+02  0.68026415688E+02  0.47000000000E+01 0. -1.
        -11    1    4    4    0    0 -0.15202345485E+03 -0.25371594502E+02 -0.32690742594E+02  0.15755485802E+03  0.00000000000E+00 0.  1.
         12    1    4    4    0    0 -0.58832794471E+02  0.34256435400E+02  0.11229721494E+02  0.68999331275E+02  0.00000000000E+00 0. -1.
         -5    1    5    5    0  502  0.15502967316E+02 -0.28991256974E+02  0.37991654598E+02  0.50460784731E+02  0.47000000000E+01 0.  1.
         13    1    6    6    0    0  0.18911743857E+02 -0.17584162871E+02  0.10922829674E+03  0.11223937655E+03  0.00000000000E+00 0. -1.
        -14    1    6    6    0    0  0.19017202996E+03  0.69767527553E+02  0.89580820974E+03  0.91842542295E+03  0.00000000000E+00 0.  1.
<mgrwt>
<rscale>  2 0.28425515E+03</rscale>
<asrwt>0</asrwt>
<pdfrwt beam="1">  1       21 0.17992818E+00 0.28447282E+03</pdfrwt>
<pdfrwt beam="2">  1       21 0.31718922E-01 0.28447282E+03</pdfrwt>
<totfact> 0.16094981E+03</totfact>
</mgrwt>
</event>
<event>
12    1  0.1074575E-001  0.1766468E+03  0.7546771E-02  0.1171665E+00
         21   -1    0    0  501  502  0.00000000000E+00  0.00000000000E+00  0.52327262876E+03  0.52327262876E+03  0.00000000000E+00 0. -1.
         21   -1    0    0  502  503 -0.00000000000E+00 -0.00000000000E+00 -0.70026663196E+02  0.70026663196E+02  0.00000000000E+00 0. -1.
         -6    2    1    2    0  503 -0.79522695647E+01  0.18483746217E+01  0.10688793911E+03  0.20449604580E+03  0.17414633543E+03 0.  0.
        -24    2    3    3    0    0 -0.73950377637E+02 -0.45328029115E+01  0.62409861432E+02  0.12451567890E+03  0.78230165753E+02 0.  0.
          6    2    1    2  501    0  0.79522695647E+01 -0.18483746217E+01  0.34635802645E+03  0.38880324615E+03  0.17645800250E+03 0.  0.
         24    2    5    5    0    0  0.54900368635E+02  0.45932032760E+02  0.24420727355E+03  0.26655776503E+03  0.79322427670E+02 0.  0.
          5    1    5    5  501    0 -0.46948099071E+02 -0.47780407382E+02  0.10215075290E+03  0.12224548112E+03  0.47000000000E+01 0. -1.
        -13    1    6    6    0    0  0.73384293993E+01  0.40716984019E+02  0.42731978889E+02  0.59478965639E+02  0.00000000000E+00 0.  1.
         14    1    6    6    0    0  0.47561939236E+02  0.52150487407E+01  0.20147529466E+03  0.20707879939E+03  0.00000000000E+00 0. -1.
         -5    1    3    3    0  503  0.65998108073E+02  0.63811775332E+01  0.44478077675E+02  0.79980366900E+02  0.47000000000E+01 0.  1.
         13    1    4    4    0    0 -0.42247940747E+02  0.36283389784E+02  0.27181937265E+02  0.61969594036E+02  0.00000000000E+00 0. -1.
        -14    1    4    4    0    0 -0.31702436891E+02 -0.40816192696E+02  0.35227924167E+02  0.62546084866E+02  0.00000000000E+00 0.  1.
<mgrwt>
<rscale>  2 0.17606663E+03</rscale>
<asrwt>0</asrwt>
<pdfrwt beam="1">  1       21 0.80503479E-01 0.17664677E+03</pdfrwt>
<pdfrwt beam="2">  1       21 0.10773333E-01 0.17664677E+03</pdfrwt>
<totfact> 0.97052817E+04</totfact>
</mgrwt>
</event>
<event>
12    1  0.1074575E-001  0.2098830E+03  0.7546771E-02  0.1141861E+00
         21   -1    0    0  501  502  0.00000000000E+00  0.00000000000E+00  0.13269342466E+04  0.13269342466E+04  0.00000000000E+00 0. -1.
         21   -1    0    0  502  503 -0.00000000000E+00 -0.00000000000E+00 -0.38085851272E+02  0.38085851272E+02  0.00000000000E+00 0. -1.
         -6    2    1    2    0  503 -0.11338799936E+03 -0.27681016132E+02  0.39454478826E+03  0.44641800049E+03  0.17320613201E+03 0.  0.
        -24    2    3    3    0    0 -0.38586024794E+02  0.40431881256E+02  0.25999026369E+03  0.27800864127E+03  0.81057072959E+02 0.  0.
          6    2    1    2  501    0  0.11338799936E+03  0.27681016132E+02  0.89430360707E+03  0.91860209738E+03  0.17443564615E+03 0.  0.
         24    2    5    5    0    0  0.82448038995E+02 -0.24698359504E+02  0.32211772409E+03  0.34317212352E+03  0.81237861198E+02 0.  0.
          5    1    5    5  501    0  0.30939960366E+02  0.52379375636E+02  0.57218588298E+03  0.57542997387E+03  0.47000000000E+01 0. -1.
        -13    1    6    6    0    0  0.86577510650E+02  0.65504225348E+01  0.23795760159E+03  0.25330296788E+03  0.00000000000E+00 0.  1.
         14    1    6    6    0    0 -0.41294716544E+01 -0.31248782039E+02  0.84160122502E+02  0.89869155635E+02  0.00000000000E+00 0. -1.
         -5    1    3    3    0  503 -0.74801974568E+02 -0.68112897388E+02  0.13455452457E+03  0.16840935922E+03  0.47000000000E+01 0.  1.
         13    1    4    4    0    0 -0.71451752598E+01  0.33896369793E+01 -0.44957229018E+01  0.90969606328E+01  0.00000000000E+00 0. -1.
        -14    1    4    4    0    0 -0.31440849534E+02  0.37042244277E+02  0.26448598659E+03  0.26891168064E+03  0.00000000000E+00 0.  1.
<mgrwt>
<rscale>  2 0.20962734E+03</rscale>
<asrwt>0</asrwt>
<pdfrwt beam="1">  1       21 0.20414369E+00 0.20988300E+03</pdfrwt>
<pdfrwt beam="2">  1       21 0.58593628E-02 0.20988300E+03</pdfrwt>
<totfact> 0.25618679E+04</totfact>
</mgrwt>
</event>
<event>
12    1  0.1074575E-001  0.2582460E+03  0.7546771E-02  0.1108310E+00
         21   -1    0    0  503  502  0.00000000000E+00  0.00000000000E+00  0.21739602327E+04  0.21739602327E+04  0.00000000000E+00 0. -1.
         21   -1    0    0  501  503 -0.00000000000E+00 -0.00000000000E+00 -0.31983461266E+02  0.31983461266E+02  0.00000000000E+00 0.  1.
          6    2    1    2  501    0 -0.13944968553E+03 -0.12996524486E+03  0.83952796171E+03  0.87813952714E+03  0.17316076622E+03 0.  0.
         24    2    3    3    0    0 -0.13000135088E+03 -0.16341369317E+03  0.68955818351E+03  0.72412298875E+03  0.72520535332E+02 0.  0.
         -6    2    1    2    0  502  0.13944968553E+03  0.12996524486E+03  0.13024488097E+04  0.13278041668E+04  0.17422348819E+03 0.  0.
        -24    2    5    5    0    0  0.15748350277E+03  0.62752105371E+02  0.90554895605E+03  0.92482227079E+03  0.80860623200E+02 0.  0.
          5    1    3    3  501    0 -0.94483346488E+01  0.33448448312E+02  0.14996977821E+03  0.15401653839E+03  0.47000000000E+01 0. -1.
        -11    1    4    4    0    0 -0.43373282990E+02 -0.73297629069E+02  0.39606706385E+03  0.40512085008E+03  0.00000000000E+00 0.  1.
         12    1    4    4    0    0 -0.86628067889E+02 -0.90116064106E+02  0.29349111966E+03  0.31900213867E+03  0.00000000000E+00 0. -1.
         -5    1    5    5    0  502 -0.18033817247E+02  0.67213139492E+02  0.39689985367E+03  0.40298189603E+03  0.47000000000E+01 0.  1.
         13    1    6    6    0    0  0.10804240386E+03  0.77577091831E+02  0.56907188740E+03  0.58440925664E+03  0.00000000000E+00 0. -1.
        -14    1    6    6    0    0  0.49441098918E+02 -0.14824986460E+02  0.33647706864E+03  0.34041301416E+03  0.00000000000E+00 0.  1.
<mgrwt>
<rscale>  2 0.25806689E+03</rscale>
<asrwt>0</asrwt>
<pdfrwt beam="1">  1       21 0.33445531E+00 0.25824601E+03</pdfrwt>
<pdfrwt beam="2">  1       21 0.49205342E-02 0.25824601E+03</pdfrwt>
<totfact> 0.55625956E+03</totfact>
</mgrwt>
</event>
<event>
12    1  0.1074575E-001  0.2422508E+03  0.7546771E-02  0.1118629E+00
         21   -1    0    0  501  502  0.00000000000E+00  0.00000000000E+00  0.58324804196E+03  0.58324804196E+03  0.00000000000E+00 0. -1.
         21   -1    0    0  502  503 -0.00000000000E+00 -0.00000000000E+00 -0.10007875576E+03  0.10007875576E+03  0.00000000000E+00 0.  1.
         -6    2    1    2    0  503  0.73933058348E+02 -0.15374457443E+03  0.22251634716E+03  0.32748216225E+03  0.16919678058E+03 0.  0.
        -24    2    3    3    0    0  0.11891545268E+02 -0.11357857483E+03  0.21049489840E+03  0.25245508648E+03  0.79899730462E+02 0.  0.
          6    2    1    2  501    0 -0.73933058348E+02  0.15374457443E+03  0.26065293903E+03  0.35584463547E+03  0.17199406584E+03 0.  0.
         24    2    5    5    0    0 -0.56884702052E+02  0.48350210999E+02  0.46538080145E+02  0.11654172890E+03  0.76436702184E+02 0.  0.
          5    1    5    5  501    0 -0.17048356296E+02  0.10539436343E+03  0.21411485888E+03  0.23930290656E+03  0.47000000000E+01 0. -1.
        -13    1    6    6    0    0 -0.74920616525E+02  0.47644441117E+02  0.38074047102E+02  0.96606027827E+02  0.00000000000E+00 0.  1.
         14    1    6    6    0    0  0.18035914473E+02  0.70576988181E+00  0.84640330429E+01  0.19935701075E+02  0.00000000000E+00 0. -1.
         -5    1    3    3    0  503  0.62041513080E+02 -0.40165999600E+02  0.12021448762E+02  0.75027075776E+02  0.47000000000E+01 0.  1.
         13    1    4    4    0    0 -0.22728636636E+02 -0.15391481682E+02  0.85403496430E+02  0.89706442545E+02  0.00000000000E+00 0. -1.
        -14    1    4    4    0    0  0.34620181904E+02 -0.98187093145E+02  0.12509140197E+03  0.16274864393E+03  0.00000000000E+00 0.  1.
<mgrwt>
<rscale>  2 0.24175479E+03</rscale>
<asrwt>0</asrwt>
<pdfrwt beam="1">  1       21 0.89730466E-01 0.24225080E+03</pdfrwt>
<pdfrwt beam="2">  1       21 0.15396732E-01 0.24225080E+03</pdfrwt>
<totfact> 0.38609245E+04</totfact>
</mgrwt>
</event>
<event>
12    1  0.1074575E-001  0.1790946E+03  0.7546771E-02  0.1168726E+00
         21   -1    0    0  503  502  0.00000000000E+00  0.00000000000E+00  0.32125035715E+03  0.32125035715E+03  0.00000000000E+00 0. -1.
         21   -1    0    0  501  503 -0.00000000000E+00 -0.00000000000E+00 -0.10421006205E+03  0.10421006205E+03  0.00000000000E+00 0.  1.
          6    2    1    2  501    0  0.48547295575E+02  0.87106156112E+01  0.64430947910E+02  0.19016380732E+03  0.17198317312E+03 0.  0.
         24    2    3    3    0    0 -0.38097675601E+02  0.13978567662E+02  0.53422482837E+02  0.10253744912E+03  0.77544397344E+02 0.  0.
         -6    2    1    2    0  502 -0.48547295575E+02 -0.87106156112E+01  0.15260934719E+03  0.23529661187E+03  0.17216900991E+03 0.  0.
        -24    2    5    5    0    0 -0.21875326026E+02 -0.49909043462E+02  0.15895370484E+03  0.18558700222E+03  0.78783326946E+02 0.  0.
          5    1    3    3  501    0  0.86644971176E+02 -0.52679520510E+01  0.11008465073E+02  0.87626358205E+02  0.47000000000E+01 0. -1.
        -11    1    4    4    0    0 -0.37514450074E+02 -0.20219578614E+02  0.45126519616E+01  0.42854747128E+02  0.00000000000E+00 0.  1.
         12    1    4    4    0    0 -0.58322552657E+00  0.34198146276E+02  0.48909830876E+02  0.59682701992E+02  0.00000000000E+00 0. -1.
         -5    1    5    5    0  502 -0.26671969550E+02  0.41198427851E+02 -0.63443576483E+01  0.49709609644E+02  0.47000000000E+01 0.  1.
         11    1    6    6    0    0 -0.49293381740E+02 -0.46960602102E+02  0.11749572712E+03  0.13579536636E+03  0.00000000000E+00 0. -1.
        -12    1    6    6    0    0  0.27418055714E+02 -0.29484413598E+01  0.41457977721E+02  0.49791635867E+02  0.00000000000E+00 0.  1.
<mgrwt>
<rscale>  2 0.17904994E+03</rscale>
<asrwt>0</asrwt>
<pdfrwt beam="1">  1       21 0.49423131E-01 0.17909462E+03</pdfrwt>
<pdfrwt beam="2">  1       21 0.16032317E-01 0.17909462E+03</pdfrwt>
<totfact> 0.13623564E+05</totfact>
</mgrwt>
</event>
<event>
12    1  0.1074575E-001  0.2042270E+03  0.7546771E-02  0.1146291E+00
         21   -1    0    0  501  502  0.00000000000E+00  0.00000000000E+00  0.21259483480E+03  0.21259483480E+03  0.00000000000E+00 0.  1.
         21   -1    0    0  502  503 -0.00000000000E+00 -0.00000000000E+00 -0.23525353762E+03  0.23525353762E+03  0.00000000000E+00 0.  1.
         -6    2    1    2    0  503  0.43786374665E+02  0.10219015125E+03 -0.10296590785E+03  0.22871518765E+03  0.17131428797E+03 0.  0.
        -24    2    3    3    0    0  0.34555956092E+02 -0.11199950223E+02 -0.16163238198E+02  0.85539389423E+02  0.75737598901E+02 0.  0.
          6    2    1    2  501    0 -0.43786374665E+02 -0.10219015125E+03  0.80307205030E+02  0.21913318477E+03  0.17090942593E+03 0.  0.
         24    2    5    5    0    0 -0.66834794673E+02 -0.11507170113E+03  0.26230517782E+02  0.15877142456E+03  0.82534471669E+02 0.  0.
          5    1    5    5  501    0  0.23048420008E+02  0.12881549883E+02  0.54076687248E+02  0.60361760213E+02  0.47000000000E+01 0. -1.
        -13    1    6    6    0    0 -0.39598185278E+01 -0.29442285588E+02  0.41926224653E+02  0.51384206300E+02  0.00000000000E+00 0.  1.
         14    1    6    6    0    0 -0.62874976145E+02 -0.85629415544E+02 -0.15695706871E+02  0.10738721826E+03  0.00000000000E+00 0. -1.
         -5    1    3    3    0  503  0.92304185730E+01  0.11339010147E+03 -0.86802669649E+02  0.14317579822E+03  0.47000000000E+01 0.  1.
         13    1    4    4    0    0  0.43673939910E+02 -0.15713391905E+02 -0.38945005596E+02  0.60589084605E+02  0.00000000000E+00 0. -1.
        -14    1    4    4    0    0 -0.91179838174E+01  0.45134416813E+01  0.22781767398E+02  0.24950304818E+02  0.00000000000E+00 0.  1.
<mgrwt>
<rscale>  2 0.20414205E+03</rscale>
<asrwt>0</asrwt>
<pdfrwt beam="1">  1       21 0.32706898E-01 0.20422698E+03</pdfrwt>
<pdfrwt beam="2">  1       21 0.36192852E-01 0.20422698E+03</pdfrwt>
<totfact> 0.65891266E+04</totfact>
</mgrwt>
</event>
<event>
12    1  0.1074575E-001  0.2250881E+03  0.7546771E-02  0.1130376E+00
         21   -1    0    0  503  502  0.00000000000E+00  0.00000000000E+00  0.59057948125E+03  0.59057948125E+03  0.00000000000E+00 0. -1.
         21   -1    0    0  501  503 -0.00000000000E+00 -0.00000000000E+00 -0.14090557938E+03  0.14090557938E+03  0.00000000000E+00 0. -1.
          6    2    1    2  501    0 -0.93439017386E+02 -0.11050512943E+03 -0.52957222895E+01  0.22388088329E+03  0.17074065604E+03 0.  0.
         24    2    3    3    0    0 -0.10545221882E+03 -0.26984537081E+02 -0.23527644555E+02  0.13742569636E+03  0.80522892810E+02 0.  0.
         -6    2    1    2    0  502  0.93439017386E+02  0.11050512943E+03  0.45496962416E+03  0.50760417735E+03  0.17240188037E+03 0.  0.
        -24    2    5    5    0    0  0.11274898647E+03  0.91121872201E+02  0.44950437974E+03  0.47931028289E+03  0.81661682184E+02 0.  0.
          5    1    3    3  501    0  0.12013201439E+02 -0.83520592354E+02  0.18231922265E+02  0.86455186920E+02  0.47000000000E+01 0. -1.
        -11    1    4    4    0    0 -0.55717680423E+02  0.22053267473E+02  0.86163349097E+01  0.60539637803E+02  0.00000000000E+00 0.  1.
         12    1    4    4    0    0 -0.49734538402E+02 -0.49037804554E+02 -0.32143979465E+02  0.76886058562E+02  0.00000000000E+00 0. -1.
         -5    1    5    5    0  502 -0.19309969087E+02  0.19383257234E+02  0.54652444204E+01  0.28293894460E+02  0.47000000000E+01 0.  1.
         11    1    6    6    0    0  0.63803786269E+02  0.49906673786E+02  0.12783636602E+03  0.15133980213E+03  0.00000000000E+00 0. -1.
        -12    1    6    6    0    0  0.48945200205E+02  0.41215198415E+02  0.32166801372E+03  0.32797048076E+03  0.00000000000E+00 0.  1.
<mgrwt>
<rscale>  2 0.22476994E+03</rscale>
<asrwt>0</asrwt>
<pdfrwt beam="1">  1       21 0.90858381E-01 0.22508808E+03</pdfrwt>
<pdfrwt beam="2">  1       21 0.21677782E-01 0.22508808E+03</pdfrwt>
<totfact> 0.20010864E+04</totfact>
</mgrwt>
</event>
<event>
12    1  0.1074575E-001  0.2216679E+03  0.7546771E-02  0.1132724E+00
         21   -1    0    0  503  502  0.00000000000E+00  0.00000000000E+00  0.83605664204E+03  0.83605664204E+03  0.00000000000E+00 0.  1.
         21   -1    0    0  501  503 -0.00000000000E+00 -0.00000000000E+00 -0.69676963061E+03  0.69676963061E+03  0.00000000000E+00 0. -1.
          6    2    1    2  501    0 -0.13763341357E+03  0.18705028059E+02 -0.66380438999E+03  0.69970416174E+03  0.17221153033E+03 0.  0.
         24    2    3    3    0    0 -0.27942903967E+02 -0.34876794442E+02 -0.36916321615E+03  0.38073938167E+03  0.81754510134E+02 0.  0.
         -6    2    1    2    0  502  0.13763341357E+03 -0.18705028059E+02  0.80309140142E+03  0.83312211092E+03  0.17275363404E+03 0.  0.
        -24    2    5    5    0    0  0.15468222650E+03 -0.52078843095E+02  0.63245875622E+03  0.65835923397E+03  0.82425757790E+02 0.  0.
          5    1    3    3  501    0 -0.10969050960E+03  0.53581822502E+02 -0.29464117384E+03  0.31896478006E+03  0.47000000000E+01 0. -1.
        -13    1    4    4    0    0 -0.15369997702E+02  0.21186480071E+02 -0.49907773780E+02  0.56355032169E+02  0.00000000000E+00 0.  1.
         14    1    4    4    0    0 -0.12572906265E+02 -0.56063274513E+02 -0.31925544237E+03  0.32438434950E+03  0.00000000000E+00 0. -1.
         -5    1    5    5    0  502 -0.17048812930E+02  0.33373815035E+02  0.17063264520E+03  0.17476287695E+03  0.47000000000E+01 0.  1.
         13    1    6    6    0    0  0.33312894240E+02 -0.50034834538E+02  0.17342158387E+03  0.18354367148E+03  0.00000000000E+00 0. -1.
        -14    1    6    6    0    0  0.12136933226E+03 -0.20440085567E+01  0.45903717235E+03  0.47481556249E+03  0.00000000000E+00 0.  1.
<mgrwt>
<rscale>  2 0.22156226E+03</rscale>
<asrwt>0</asrwt>
<pdfrwt beam="1">  1       21 0.12862410E+00 0.22166789E+03</pdfrwt>
<pdfrwt beam="2">  1       21 0.10719533E+00 0.22166789E+03</pdfrwt>
<totfact> 0.29860976E+02</totfact>
</mgrwt>
</event>
<event>
12    1  0.1074575E-001  0.1907018E+03  0.7546771E-02  0.1157994E+00
         21   -1    0    0  501  502  0.00000000000E+00  0.00000000000E+00  0.23308553321E+03  0.23308553321E+03  0.00000000000E+00 0. -1.
         21   -1    0    0  502  503 -0.00000000000E+00 -0.00000000000E+00 -0.23506740595E+03  0.23506740595E+03  0.00000000000E+00 0. -1.
         -6    2    1    2    0  503  0.75551222347E+02 -0.28896858912E+02 -0.13723439618E+03  0.23435727259E+03  0.17189251312E+03 0.  0.
        -24    2    3    3    0    0  0.98639307145E+02 -0.16241254432E+02 -0.46429122457E+02  0.13969518028E+03  0.85823008111E+02 0.  0.
          6    2    1    2  501    0 -0.75551222347E+02  0.28896858912E+02  0.13525252344E+03  0.23379566657E+03  0.17269670800E+03 0.  0.
         24    2    5    5    0    0 -0.22547279995E+02  0.66575452650E+02  0.30206325014E+02  0.11015955479E+03  0.79259287848E+02 0.  0.
          5    1    5    5  501    0 -0.53003942352E+02 -0.37678593738E+02  0.10504619843E+03  0.12363611178E+03  0.47000000000E+01 0. -1.
        -11    1    6    6    0    0  0.20437720759E+02  0.36391604254E+02  0.38741041460E+02  0.56946620474E+02  0.00000000000E+00 0.  1.
         12    1    6    6    0    0 -0.42985000754E+02  0.30183848397E+02 -0.85347164458E+01  0.53212934317E+02  0.00000000000E+00 0. -1.
         -5    1    3    3    0  503 -0.23088084798E+02 -0.12655604480E+02 -0.90805273726E+02  0.94662092312E+02  0.47000000000E+01 0.  1.
         13    1    4    4    0    0  0.37493027229E+02 -0.30468867729E+02 -0.58390552197E+02  0.75786117313E+02  0.00000000000E+00 0. -1.
        -14    1    4    4    0    0  0.61146279916E+02  0.14227613297E+02  0.11961429740E+02  0.63909062965E+02  0.00000000000E+00 0.  1.
<mgrwt>
<rscale>  2 0.19051953E+03</rscale>
<asrwt>0</asrwt>
<pdfrwt beam="1">  1       21 0.35859313E-01 0.19070178E+03</pdfrwt>
<pdfrwt beam="2">  1       21 0.36164216E-01 0.19070178E+03</pdfrwt>
<totfact> 0.55344873E+04</totfact>
</mgrwt>
</event>
<event>
12    1  0.1074575E-001  0.1929231E+03  0.7546771E-02  0.1156079E+00
         21   -1    0    0  503  502  0.00000000000E+00  0.00000000000E+00  0.13942414238E+03  0.13942414238E+03  0.00000000000E+00 0.  1.
         21   -1    0    0  501  503 -0.00000000000E+00 -0.00000000000E+00 -0.55913798516E+03  0.55913798516E+03  0.00000000000E+00 0.  1.
          6    2    1    2  501    0  0.81253698952E+02 -0.19447200485E+02 -0.46322812411E+03  0.50179638234E+03  0.17389352249E+03 0.  0.
         24    2    3    3    0    0  0.10975707684E+03 -0.64259084034E+02 -0.34168583926E+03  0.36907424981E+03  0.57365000849E+02 0.  0.
         -6    2    1    2    0  502 -0.81253698952E+02  0.19447200485E+02  0.43514281341E+02  0.19676574519E+03  0.17275100174E+03 0.  0.
        -24    2    5    5    0    0  0.14767653396E+01  0.24140544384E+02 -0.27263429820E+02  0.87688104972E+02  0.79755641989E+02 0.  0.
          5    1    3    3  501    0 -0.28503377885E+02  0.44811883549E+02 -0.12154228485E+03  0.13272213254E+03  0.47000000000E+01 0. -1.
        -13    1    4    4    0    0  0.12107803124E+02 -0.34690911894E+02 -0.10824216387E+03  0.11430846121E+03  0.00000000000E+00 0.  1.
         14    1    4    4    0    0  0.97649273712E+02 -0.29568172140E+02 -0.23344367539E+03  0.25476578860E+03  0.00000000000E+00 0. -1.
         -5    1    5    5    0  502 -0.82730464291E+02 -0.46933438989E+01  0.70777711161E+02  0.10907764022E+03  0.47000000000E+01 0.  1.
         11    1    6    6    0    0  0.38194423618E+02  0.96377267956E+01  0.55130798996E+00  0.39395478342E+02  0.00000000000E+00 0. -1.
        -12    1    6    6    0    0 -0.36717658278E+02  0.14502817588E+02 -0.27814737810E+02  0.48292626631E+02  0.00000000000E+00 0.  1.
<mgrwt>
<rscale>  2 0.19266527E+03</rscale>
<asrwt>0</asrwt>
<pdfrwt beam="1">  1       21 0.21449868E-01 0.19292308E+03</pdfrwt>
<pdfrwt beam="2">  1       21 0.86021230E-01 0.19292308E+03</pdfrwt>
<totfact> 0.23602741E+04</totfact>
</mgrwt>
</event>
<event>
12    1  0.1074575E-001  0.1849414E+03  0.7546771E-02  0.1164006E+00
         21   -1    0    0  503  502  0.00000000000E+00  0.00000000000E+00  0.56805227489E+02  0.56805227489E+02  0.00000000000E+00 0. -1.
         21   -1    0    0  501  503 -0.00000000000E+00 -0.00000000000E+00 -0.59106516415E+03  0.59106516415E+03  0.00000000000E+00 0.  1.
          6    2    1    2  501    0  0.63786100566E+02 -0.14582648936E+02 -0.25464575907E+03  0.31471856092E+03  0.17297973782E+03 0.  0.
         24    2    3    3    0    0 -0.13631793967E+02  0.37721646413E+02 -0.12327757022E+03  0.15344562224E+03  0.82094160889E+02 0.  0.
         -6    2    1    2    0  502 -0.63786100566E+02  0.14582648936E+02 -0.27961417759E+03  0.33315183072E+03  0.16889266926E+03 0.  0.
        -24    2    5    5    0    0 -0.64025976696E+02  0.56761791589E+02 -0.12101894281E+03  0.16897608309E+03  0.81154824017E+02 0.  0.
          5    1    3    3  501    0  0.77417894533E+02 -0.52304295349E+02 -0.13136818885E+03  0.16127293867E+03  0.47000000000E+01 0. -1.
        -11    1    4    4    0    0  0.15731802962E+02  0.52844929942E+02 -0.95566116623E+02  0.11033113292E+03  0.00000000000E+00 0.  1.
         12    1    4    4    0    0 -0.29363596929E+02 -0.15123283529E+02 -0.27711453596E+02  0.43114489324E+02  0.00000000000E+00 0. -1.
         -5    1    5    5    0  502  0.23987613071E+00 -0.42179142653E+02 -0.15859523478E+03  0.16417574763E+03  0.47000000000E+01 0.  1.
         11    1    6    6    0    0 -0.26197215160E+02  0.39881500960E+02 -0.77132170607E+01  0.48335514049E+02  0.00000000000E+00 0. -1.
        -12    1    6    6    0    0 -0.37828761537E+02  0.16880290629E+02 -0.11330572575E+03  0.12064056904E+03  0.00000000000E+00 0.  1.
<mgrwt>
<rscale>  2 0.18397966E+03</rscale>
<asrwt>0</asrwt>
<pdfrwt beam="1">  1       21 0.87392657E-02 0.18494137E+03</pdfrwt>
<pdfrwt beam="2">  1       21 0.90933103E-01 0.18494137E+03</pdfrwt>
<totfact> 0.10581793E+05</totfact>
</mgrwt>
</event>
<event>
12    1  0.1074575E-001  0.3346496E+03  0.7546771E-02  0.1069101E+00
         21   -1    0    0  503  502  0.00000000000E+00  0.00000000000E+00  0.12040953978E+03  0.12040953978E+03  0.00000000000E+00 0. -1.
         21   -1    0    0  501  503 -0.00000000000E+00 -0.00000000000E+00 -0.11961138140E+04  0.11961138140E+04  0.00000000000E+00 0.  1.
          6    2    1    2  501    0  0.24790613825E+03  0.14330506322E+03 -0.84831973787E+03  0.91193210978E+03  0.17314733802E+03 0.  0.
         24    2    3    3    0    0  0.87982688951E+02 -0.59429940155E+00 -0.32599733730E+03  0.34702033230E+03  0.80047113353E+02 0.  0.
         -6    2    1    2    0  502 -0.24790613825E+03 -0.14330506322E+03 -0.22738453641E+03  0.40459124405E+03  0.17319512936E+03 0.  0.
        -24    2    5    5    0    0 -0.26169552158E+03 -0.14200138063E+03 -0.23539519381E+03  0.38791469426E+03  0.80112262707E+02 0.  0.
          5    1    3    3  501    0  0.15992344930E+03  0.14389936262E+03 -0.52232240057E+03  0.56491177748E+03  0.47000000000E+01 0. -1.
        -13    1    4    4    0    0  0.98373007811E+02  0.42784767502E+01 -0.31834882561E+03  0.33322894352E+03  0.00000000000E+00 0.  1.
         14    1    4    4    0    0 -0.10390318861E+02 -0.48727761517E+01 -0.76485116826E+01  0.13791388778E+02  0.00000000000E+00 0. -1.
         -5    1    5    5    0  502  0.13789383328E+02 -0.13036825919E+01  0.80106574022E+01  0.16676549789E+02  0.47000000000E+01 0.  1.
         13    1    6    6    0    0 -0.18735978034E+03 -0.13495354306E+03 -0.19911518971E+03  0.30489835166E+03  0.00000000000E+00 0. -1.
        -14    1    6    6    0    0 -0.74335741244E+02 -0.70478375710E+01 -0.36280004098E+02  0.83016342597E+02  0.00000000000E+00 0.  1.
<mgrwt>
<rscale>  2 0.33464341E+03</rscale>
<asrwt>0</asrwt>
<pdfrwt beam="1">  1       21 0.18524544E-01 0.33464959E+03</pdfrwt>
<pdfrwt beam="2">  1       21 0.18401751E+00 0.33464959E+03</pdfrwt>
<totfact> 0.41217583E+03</totfact>
</mgrwt>
</event>
<event>
12    1  0.1074575E-001  0.2150379E+03  0.7546771E-02  0.1137650E+00
         21   -1    0    0  503  502  0.00000000000E+00  0.00000000000E+00  0.37986876974E+03  0.37986876974E+03  0.00000000000E+00 0.  1.
         21   -1    0    0  501  503 -0.00000000000E+00 -0.00000000000E+00 -0.30052008613E+03  0.30052008613E+03  0.00000000000E+00 0.  1.
          6    2    1    2  501    0 -0.87749347601E+02 -0.91207638422E+02 -0.22275022025E+03  0.30961099364E+03  0.17384626959E+03 0.  0.
         24    2    3    3    0    0  0.14410417855E+02 -0.80687115426E+01 -0.68042983740E+02  0.10637438801E+03  0.80080575289E+02 0.  0.
         -6    2    1    2    0  502  0.87749347601E+02  0.91207638422E+02  0.30209890387E+03  0.37077786222E+03  0.17376332780E+03 0.  0.
        -24    2    5    5    0    0  0.71677795037E+02 -0.64501556249E+01  0.10474306629E+03  0.14994589858E+03  0.79582358329E+02 0.  0.
          5    1    3    3  501    0 -0.10215976546E+03 -0.83138926879E+02 -0.15470723651E+03  0.20323660564E+03  0.47000000000E+01 0. -1.
        -13    1    4    4    0    0 -0.34079559127E+01 -0.20292188728E+02 -0.79358600686E+02  0.81982770078E+02  0.00000000000E+00 0.  1.
         14    1    4    4    0    0  0.17818373768E+02  0.12223477186E+02  0.11315616946E+02  0.24391617927E+02  0.00000000000E+00 0. -1.
         -5    1    5    5    0  502  0.16071552564E+02  0.97657794047E+02  0.19735583757E+03  0.22083196364E+03  0.47000000000E+01 0.  1.
         11    1    6    6    0    0  0.18021483296E+02 -0.14186141271E+02  0.91239899000E+02  0.94078369639E+02  0.00000000000E+00 0. -1.
        -12    1    6    6    0    0  0.53656311741E+02  0.77359856463E+01  0.13503167291E+02  0.55867528945E+02  0.00000000000E+00 0.  1.
<mgrwt>
<rscale>  2 0.21502116E+03</rscale>
<asrwt>0</asrwt>
<pdfrwt beam="1">  1       21 0.58441349E-01 0.21503792E+03</pdfrwt>
<pdfrwt beam="2">  1       21 0.46233859E-01 0.21503792E+03</pdfrwt>
<totfact> 0.12110391E+04</totfact>
</mgrwt>
</event>
<event>
12    1  0.1074575E-001  0.1814237E+03  0.7546771E-02  0.1166578E+00
         21   -1    0    0  501  502  0.00000000000E+00  0.00000000000E+00  0.53548734359E+02  0.53548734359E+02  0.00000000000E+00 0. -1.
         21   -1    0    0  502  503 -0.00000000000E+00 -0.00000000000E+00 -0.62330011779E+03  0.62330011779E+03  0.00000000000E+00 0. -1.
         -6    2    1    2    0  503 -0.20337612754E+02  0.49978449806E+02 -0.24009330542E+03  0.30056572680E+03  0.17257895839E+03 0.  0.
        -24    2    3    3    0    0 -0.25187817605E+02  0.40668190128E+02 -0.45387991013E+02  0.10552097582E+03  0.82378873302E+02 0.  0.
          6    2    1    2  501    0  0.20337612754E+02 -0.49978449806E+02 -0.32965807801E+03  0.37628312535E+03  0.17321396622E+03 0.  0.
         24    2    5    5    0    0 -0.44454601257E+02 -0.63464656594E+02 -0.23617570054E+03  0.26164912662E+03  0.81714929621E+02 0.  0.
          5    1    5    5  501    0  0.64792214010E+02  0.13486206788E+02 -0.93482377465E+02  0.11463399874E+03  0.47000000000E+01 0. -1.
        -13    1    6    6    0    0 -0.11052460049E+02 -0.90662045959E+01  0.25633297121E+01  0.14523208947E+02  0.00000000000E+00 0.  1.
         14    1    6    6    0    0 -0.33402141207E+02 -0.54398451998E+02 -0.23873903026E+03  0.24712591767E+03  0.00000000000E+00 0. -1.
         -5    1    3    3    0  503  0.48502048508E+01  0.93102596778E+01 -0.19470531441E+03  0.19504475097E+03  0.47000000000E+01 0.  1.
         11    1    4    4    0    0 -0.41250789170E+02  0.60575255731E+01  0.53517380451E+01  0.42035250960E+02  0.00000000000E+00 0. -1.
        -12    1    4    4    0    0  0.16062971565E+02  0.34610664555E+02 -0.50739729058E+02  0.63485724862E+02  0.00000000000E+00 0.  1.
<mgrwt>
<rscale>  2 0.18127192E+03</rscale>
<asrwt>0</asrwt>
<pdfrwt beam="1">  1       21 0.82382670E-02 0.18142365E+03</pdfrwt>
<pdfrwt beam="2">  1       21 0.95892324E-01 0.18142365E+03</pdfrwt>
<totfact> 0.10380059E+05</totfact>
</mgrwt>
</event>
<event>
12    1  0.1074575E-001  0.1976486E+03  0.7546771E-02  0.1152000E+00
         21   -1    0    0  501  502  0.00000000000E+00  0.00000000000E+00  0.33510744666E+03  0.33510744666E+03  0.00000000000E+00 0. -1.
         21   -1    0    0  502  503 -0.00000000000E+00 -0.00000000000E+00 -0.13066535385E+03  0.13066535385E+03  0.00000000000E+00 0. -1.
         -6    2    1    2    0  503 -0.46088098472E+01  0.95396266843E+02  0.24098837001E+02  0.19911232722E+03  0.17304125534E+03 0.  0.
        -24    2    3    3    0    0  0.39440444630E+00 -0.16599064278E+02 -0.41567257076E+01  0.83403843652E+02  0.81628660883E+02 0.  0.
          6    2    1    2  501    0  0.46088098472E+01 -0.95396266843E+02  0.18034325581E+03  0.26666047328E+03  0.17164623281E+03 0.  0.
         24    2    5    5    0    0 -0.18088096521E+02 -0.95736382357E+02  0.52900440675E+02  0.13712659213E+03  0.80700752797E+02 0.  0.
          5    1    5    5  501    0  0.22696906368E+02  0.34011551397E+00  0.12744281514E+03  0.12953388116E+03  0.47000000000E+01 0. -1.
        -11    1    6    6    0    0  0.20501350751E+02  0.24807156016E+01  0.50549438432E+01  0.21260568896E+02  0.00000000000E+00 0.  1.
         12    1    6    6    0    0 -0.38589447272E+02 -0.98217097959E+02  0.47845496831E+02  0.11586602323E+03  0.00000000000E+00 0. -1.
         -5    1    3    3    0  503 -0.50032142935E+01  0.11199533112E+03  0.28255562709E+02  0.11570848357E+03  0.47000000000E+01 0.  1.
         11    1    4    4    0    0  0.63112528856E+01  0.32379284545E+02  0.45694628446E+01  0.33303602978E+02  0.00000000000E+00 0. -1.
        -12    1    4    4    0    0 -0.59168484393E+01 -0.48978348823E+02 -0.87261885522E+01  0.50100240674E+02  0.00000000000E+00 0.  1.
<mgrwt>
<rscale>  2 0.19734283E+03</rscale>
<asrwt>0</asrwt>
<pdfrwt beam="1">  1       21 0.51554992E-01 0.19764859E+03</pdfrwt>
<pdfrwt beam="2">  1       21 0.20102362E-01 0.19764859E+03</pdfrwt>
<totfact> 0.81545711E+04</totfact>
</mgrwt>
</event>
<event>
12    1  0.1074575E-001  0.2419665E+03  0.7546771E-02  0.1118820E+00
         21   -1    0    0  501  502  0.00000000000E+00  0.00000000000E+00  0.18879759161E+02  0.18879759161E+02  0.00000000000E+00 0.  1.
         21   -1    0    0  502  503 -0.00000000000E+00 -0.00000000000E+00 -0.34600340657E+04  0.34600340657E+04  0.00000000000E+00 0.  1.
         -6    2    1    2    0  503  0.82823572201E+02  0.14279789437E+03 -0.22940702478E+04  0.23065872304E+04  0.17417051097E+03 0.  0.
        -24    2    3    3    0    0  0.11047941381E+03  0.14537419503E+03 -0.16767459747E+04  0.16886205395E+04  0.81381234509E+02 0.  0.
          6    2    1    2  501    0 -0.82823572201E+02 -0.14279789437E+03 -0.11470840587E+04  0.11723265944E+04  0.17690908258E+03 0.  0.
         24    2    5    5    0    0 -0.75391648737E+02 -0.36642760391E+02 -0.36892316026E+03  0.38690911319E+03  0.81041786150E+02 0.  0.
          5    1    5    5  501    0 -0.74319234638E+01 -0.10615513398E+03 -0.77816089846E+03  0.78541748125E+03  0.47000000000E+01 0. -1.
        -11    1    6    6    0    0 -0.85368189482E+02 -0.39376708111E+02 -0.36302677897E+03  0.37500226022E+03  0.00000000000E+00 0.  1.
         12    1    6    6    0    0  0.99765407454E+01  0.27339477203E+01 -0.58963812910E+01  0.11906852973E+02  0.00000000000E+00 0. -1.
         -5    1    3    3    0  503 -0.27655841607E+02 -0.25763006545E+01 -0.61732427310E+03  0.61796669090E+03  0.47000000000E+01 0.  1.
         11    1    4    4    0    0  0.21430737455E+02  0.18178597987E+02 -0.89743849338E+02  0.94040929529E+02  0.00000000000E+00 0. -1.
        -12    1    4    4    0    0  0.89048676352E+02  0.12719559704E+03 -0.15870021254E+04  0.15945796100E+04  0.00000000000E+00 0.  1.
<mgrwt>
<rscale>  2 0.24146625E+03</rscale>
<asrwt>0</asrwt>
<pdfrwt beam="1">  1       21 0.29045794E-02 0.24196654E+03</pdfrwt>
<pdfrwt beam="2">  1       21 0.53231274E+00 0.24196654E+03</pdfrwt>
<totfact> 0.68982370E+02</totfact>
</mgrwt>
</event>
<event>
12    1  0.1074575E-001  0.1879686E+03  0.7546771E-02  0.1161196E+00
         21   -1    0    0  501  502  0.00000000000E+00  0.00000000000E+00  0.12723442749E+03  0.12723442749E+03  0.00000000000E+00 0.  1.
         21   -1    0    0  502  503 -0.00000000000E+00 -0.00000000000E+00 -0.28765856031E+03  0.28765856031E+03  0.00000000000E+00 0.  1.
         -6    2    1    2    0  503  0.73053476113E+02  0.82125323106E+01 -0.12776806182E+03  0.22410879295E+03  0.16880704190E+03 0.  0.
        -24    2    3    3    0    0  0.35518163485E+02  0.37724260265E+02 -0.10035465887E+02  0.96975414456E+02  0.81356380718E+02 0.  0.
          6    2    1    2  501    0 -0.73053476113E+02 -0.82125323106E+01 -0.32656070998E+02  0.19078419486E+03  0.17299691898E+03 0.  0.
         24    2    5    5    0    0 -0.18366289376E+02  0.28317490282E+02  0.37628020932E+02  0.94414726032E+02  0.79743787790E+02 0.  0.
          5    1    5    5  501    0 -0.54687186737E+02 -0.36530022592E+02 -0.70284091930E+02  0.96369468828E+02  0.47000000000E+01 0. -1.
        -13    1    6    6    0    0  0.11066229278E+01  0.51882441494E+02  0.37185717118E+02  0.63841913405E+02  0.00000000000E+00 0.  1.
         14    1    6    6    0    0 -0.19472912304E+02 -0.23564951212E+02  0.44230381481E+00  0.30572812627E+02  0.00000000000E+00 0. -1.
         -5    1    3    3    0  503  0.37535312628E+02 -0.29511727954E+02 -0.11773259593E+03  0.12713337849E+03  0.47000000000E+01 0.  1.
         13    1    4    4    0    0  0.42134962869E+02  0.56902450741E+02  0.60817727296E+01  0.71064984035E+02  0.00000000000E+00 0. -1.
        -14    1    4    4    0    0 -0.66167993842E+01 -0.19178190476E+02 -0.16117238617E+02  0.25910430422E+02  0.00000000000E+00 0.  1.
<mgrwt>
<rscale>  2 0.18699889E+03</rscale>
<asrwt>0</asrwt>
<pdfrwt beam="1">  1       21 0.19574527E-01 0.18796859E+03</pdfrwt>
<pdfrwt beam="2">  1       21 0.44255163E-01 0.18796859E+03</pdfrwt>
<totfact> 0.11802332E+05</totfact>
</mgrwt>
</event>
<event>
12    1  0.1074575E-001  0.1863535E+03  0.7546771E-02  0.1162148E+00
         21   -1    0    0  501  502  0.00000000000E+00  0.00000000000E+00  0.37418111313E+02  0.37418111313E+02  0.00000000000E+00 0.  1.
         21   -1    0    0  502  503 -0.00000000000E+00 -0.00000000000E+00 -0.13926209319E+04  0.13926209319E+04  0.00000000000E+00 0. -1.
         -6    2    1    2    0  503  0.51933847262E+02 -0.40773881789E+02 -0.10920780275E+04  0.11076071998E+04  0.17262577117E+03 0.  0.
        -24    2    3    3    0    0  0.51374791314E+02 -0.31848754102E+02 -0.10927719541E+04  0.10974808983E+04  0.81609227810E+02 0.  0.
          6    2    1    2  501    0 -0.51933847262E+02  0.40773881789E+02 -0.26312479306E+03  0.32243184343E+03  0.17426417592E+03 0.  0.
         24    2    5    5    0    0 -0.84495250303E+02 -0.11441943155E+02 -0.21075850758E+03  0.24149325438E+03  0.81421606509E+02 0.  0.
          5    1    5    5  501    0  0.32561403042E+02  0.52215824944E+02 -0.52366285478E+02  0.80938589050E+02  0.47000000000E+01 0. -1.
        -11    1    6    6    0    0  0.76707435148E+01 -0.10910754585E+02 -0.82396835320E+02  0.83469295806E+02  0.00000000000E+00 0.  1.
         12    1    6    6    0    0 -0.92165993818E+02 -0.53118856979E+00 -0.12836167226E+03  0.15802395857E+03  0.00000000000E+00 0. -1.
         -5    1    3    3    0  503  0.55905594764E+00 -0.89251276872E+01  0.69392659920E+00  0.10126301492E+02  0.47000000000E+01 0.  1.
         13    1    4    4    0    0  0.58741337926E+02  0.90870906602E+01 -0.58713756873E+03  0.59013866558E+03  0.00000000000E+00 0. -1.
        -14    1    4    4    0    0 -0.73665466116E+01 -0.40935844762E+02 -0.50563438539E+03  0.50734223270E+03  0.00000000000E+00 0.  1.
<mgrwt>
<rscale>  2 0.18596954E+03</rscale>
<asrwt>0</asrwt>
<pdfrwt beam="1">  1       21 0.57566327E-02 0.18635353E+03</pdfrwt>
<pdfrwt beam="2">  1       21 0.21424937E+00 0.18635353E+03</pdfrwt>
<totfact> 0.23217915E+04</totfact>
</mgrwt>
</event>
<event>
12    1  0.1074575E-001  0.2760021E+03  0.7546771E-02  0.1097916E+00
         21   -1    0    0  501  502  0.00000000000E+00  0.00000000000E+00  0.10588085349E+03  0.10588085349E+03  0.00000000000E+00 0. -1.
         21   -1    0    0  502  503 -0.00000000000E+00 -0.00000000000E+00 -0.11699946770E+04  0.11699946770E+04  0.00000000000E+00 0. -1.
         -6    2    1    2    0  503  0.55317857192E+02  0.20712113005E+03 -0.92801545735E+03  0.96814198942E+03  0.17357129591E+03 0.  0.
        -24    2    3    3    0    0  0.16116487139E+02  0.21976890747E+03 -0.77252668837E+03  0.80722101203E+03  0.79057979735E+02 0.  0.
          6    2    1    2  501    0 -0.55317857192E+02 -0.20712113005E+03 -0.13609836619E+03  0.30773354111E+03  0.17383307858E+03 0.  0.
         24    2    5    5    0    0 -0.32025495081E+02 -0.11708300518E+03 -0.15423602574E+03  0.21286277240E+03  0.82387777020E+02 0.  0.
          5    1    5    5  501    0 -0.23292362111E+02 -0.90038124863E+02  0.18137659544E+02  0.94870768708E+02  0.47000000000E+01 0. -1.
        -11    1    6    6    0    0 -0.83044743827E+01  0.23937247102E+01 -0.55203934443E+02  0.55876368804E+02  0.00000000000E+00 0.  1.
         12    1    6    6    0    0 -0.23721020698E+02 -0.11947672989E+03 -0.99032091294E+02  0.15698640360E+03  0.00000000000E+00 0. -1.
         -5    1    3    3    0  503  0.39201370053E+02 -0.12647777423E+02 -0.15548876897E+03  0.16092097739E+03  0.47000000000E+01 0.  1.
         13    1    4    4    0    0  0.15794686904E+02  0.12822921330E+02 -0.14576405533E+03  0.14717696583E+03  0.00000000000E+00 0. -1.
        -14    1    4    4    0    0  0.32180023509E+00  0.20694598614E+03 -0.62676263304E+03  0.66004404619E+03  0.00000000000E+00 0.  1.
<mgrwt>
<rscale>  2 0.27596090E+03</rscale>
<asrwt>0</asrwt>
<pdfrwt beam="1">  1       21 0.16289363E-01 0.27600211E+03</pdfrwt>
<pdfrwt beam="2">  1       21 0.17999918E+00 0.27600211E+03</pdfrwt>
<totfact> 0.57721717E+03</totfact>
</mgrwt>
</event>
<event>
12    1  0.1074575E-001  0.1825900E+03  0.7546771E-02  0.1165559E+00
         21   -1    0    0  501  502  0.00000000000E+00  0.00000000000E+00  0.77243941223E+03  0.77243941223E+03  0.00000000000E+00 0.  1.
         21   -1    0    0  502  503 -0.00000000000E+00 -0.00000000000E+00 -0.52254510734E+02  0.52254510734E+02  0.00000000000E+00 0. -1.
         -6    2    1    2    0  503  0.10646020665E+02  0.53067988393E+02  0.18666069287E+03  0.26111552513E+03  0.17438335371E+03 0.  0.
        -24    2    3    3    0    0  0.48459302881E+01  0.78968268411E+02  0.55015270940E+02  0.12673891753E+03  0.82320123444E+02 0.  0.
          6    2    1    2  501    0 -0.10646020665E+02 -0.53067988393E+02  0.53352420863E+03  0.56357839784E+03  0.17332910943E+03 0.  0.
         24    2    5    5    0    0  0.21427747747E+02 -0.96133351827E+02  0.39404511066E+03  0.41404625776E+03  0.80386470392E+02 0.  0.
          5    1    5    5  501    0 -0.32073768412E+02  0.43065363435E+02  0.13947909797E+03  0.14953214008E+03  0.47000000000E+01 0. -1.
        -11    1    6    6    0    0 -0.21901565402E+02 -0.33641967841E+01  0.10743513185E+03  0.10969641718E+03  0.00000000000E+00 0.  1.
         12    1    6    6    0    0  0.43329313149E+02 -0.92769155043E+02  0.28660997881E+03  0.30434984058E+03  0.00000000000E+00 0. -1.
         -5    1    3    3    0  503  0.58000903766E+01 -0.25900280018E+02  0.13164542193E+03  0.13437660760E+03  0.47000000000E+01 0.  1.
         13    1    4    4    0    0  0.35068956174E+02  0.72012592885E+02  0.25848391678E+02  0.84165221876E+02  0.00000000000E+00 0. -1.
        -14    1    4    4    0    0 -0.30223025886E+02  0.69556755265E+01  0.29166879262E+02  0.42573695654E+02  0.00000000000E+00 0.  1.
<mgrwt>
<rscale>  2 0.18233782E+03</rscale>
<asrwt>0</asrwt>
<pdfrwt beam="1">  1       21 0.11883682E+00 0.18258999E+03</pdfrwt>
<pdfrwt beam="2">  1       21 0.80391560E-02 0.18258999E+03</pdfrwt>
<totfact> 0.64685897E+04</totfact>
</mgrwt>
</event>
<event>
12    1  0.1074575E-001  0.2108551E+03  0.7546771E-02  0.1140929E+00
         21   -1    0    0  501  502  0.00000000000E+00  0.00000000000E+00  0.37288056213E+02  0.37288056213E+02  0.00000000000E+00 0. -1.
         21   -1    0    0  502  503 -0.00000000000E+00 -0.00000000000E+00 -0.12408794896E+04  0.12408794896E+04  0.00000000000E+00 0. -1.
         -6    2    1    2    0  503  0.78651524055E+02  0.92391782168E+02 -0.47369675398E+03  0.51842672674E+03  0.17220729550E+03 0.  0.
        -24    2    3    3    0    0  0.42788211224E+02  0.10933446743E+03 -0.45006059138E+03  0.47201562922E+03  0.80370153195E+02 0.  0.
          6    2    1    2  501    0 -0.78651524055E+02 -0.92391782168E+02 -0.72989467938E+03  0.75974081904E+03  0.17244583348E+03 0.  0.
         24    2    5    5    0    0  0.13370212314E+02 -0.76001686004E+02 -0.37335074610E+03  0.39111865262E+03  0.87338433486E+02 0.  0.
          5    1    5    5  501    0 -0.92021736369E+02 -0.16390096164E+02 -0.35654393328E+03  0.36862216642E+03  0.47000000000E+01 0. -1.
        -13    1    6    6    0    0  0.63941951863E+01 -0.68527438615E+02 -0.37455332040E+03  0.38082421850E+03  0.00000000000E+00 0.  1.
         14    1    6    6    0    0  0.69760171280E+01 -0.74742473898E+01  0.12025742963E+01  0.10294434125E+02  0.00000000000E+00 0. -1.
         -5    1    3    3    0  503  0.35863312831E+02 -0.16942685259E+02 -0.23636162598E+02  0.46411097524E+02  0.47000000000E+01 0.  1.
         11    1    4    4    0    0  0.55232071183E+02  0.63046832616E+02 -0.19135317981E+03  0.20890553897E+03  0.00000000000E+00 0. -1.
        -12    1    4    4    0    0 -0.12443859959E+02  0.46287634811E+02 -0.25870741157E+03  0.26311009025E+03  0.00000000000E+00 0.  1.
<mgrwt>
<rscale>  2 0.21080631E+03</rscale>
<asrwt>0</asrwt>
<pdfrwt beam="1">  1       21 0.57366247E-02 0.21085509E+03</pdfrwt>
<pdfrwt beam="2">  1       21 0.19090451E+00 0.21085509E+03</pdfrwt>
<totfact> 0.32354477E+04</totfact>
</mgrwt>
</event>
<event>
12    1  0.1074575E-001  0.1787385E+03  0.7546771E-02  0.1169919E+00
         21   -1    0    0  501  502  0.00000000000E+00  0.00000000000E+00  0.92930379868E+02  0.92930379868E+02  0.00000000000E+00 0.  1.
         21   -1    0    0  502  503 -0.00000000000E+00 -0.00000000000E+00 -0.33898240133E+03  0.33898240133E+03  0.00000000000E+00 0.  1.
         -6    2    1    2    0  503  0.14781652469E+02 -0.16372452429E+02 -0.10478683216E+03  0.20408982771E+03  0.17374067783E+03 0.  0.
        -24    2    3    3    0    0 -0.24830326828E+02  0.46571439730E+02 -0.62775704184E+02  0.11854412450E+03  0.85594837977E+02 0.  0.
          6    2    1    2  501    0 -0.14781652469E+02  0.16372452429E+02 -0.14126518930E+03  0.22782295349E+03  0.17737217927E+03 0.  0.
         24    2    5    5    0    0  0.22603581681E+02 -0.52515822056E+02 -0.93607502195E+02  0.13597201319E+03  0.80356645225E+02 0.  0.
          5    1    5    5  501    0 -0.37385234151E+02  0.68888274486E+02 -0.47657687109E+02  0.91850940304E+02  0.47000000000E+01 0. -1.
        -11    1    6    6    0    0  0.20026033694E+02  0.15450808914E+02 -0.47458696622E+02  0.53778224280E+02  0.00000000000E+00 0.  1.
         12    1    6    6    0    0  0.25775479871E+01 -0.67966630971E+02 -0.46148805573E+02  0.82193788907E+02  0.00000000000E+00 0. -1.
         -5    1    3    3    0  503  0.39611979298E+02 -0.62943892160E+02 -0.42011127977E+02  0.85545703212E+02  0.47000000000E+01 0.  1.
         11    1    4    4    0    0  0.14392013943E+02 -0.88209203943E+01 -0.45466729598E+02  0.48499094860E+02  0.00000000000E+00 0. -1.
        -12    1    4    4    0    0 -0.39222340772E+02  0.55392360125E+02 -0.17308974587E+02  0.70045029638E+02  0.00000000000E+00 0.  1.
<mgrwt>
<rscale>  2 0.17783080E+03</rscale>
<asrwt>0</asrwt>
<pdfrwt beam="1">  1       21 0.14296982E-01 0.17873848E+03</pdfrwt>
<pdfrwt beam="2">  1       21 0.52151138E-01 0.17873848E+03</pdfrwt>
<totfact> 0.15002776E+05</totfact>
</mgrwt>
</event>
<event>
12    1  0.1074575E-001  0.1751698E+03  0.7546771E-02  0.1173000E+00
         21   -1    0    0  503  502  0.00000000000E+00  0.00000000000E+00  0.22554803439E+02  0.22554803439E+02  0.00000000000E+00 0.  1.
         21   -1    0    0  501  503 -0.00000000000E+00 -0.00000000000E+00 -0.18408713109E+04  0.18408713109E+04  0.00000000000E+00 0.  1.
          6    2    1    2  501    0  0.10848766347E+02  0.14158164588E+02 -0.13884451521E+04  0.13992345111E+04  0.17250833931E+03 0.  0.
         24    2    3    3    0    0  0.36544453095E+02 -0.44129186067E+02 -0.10318785172E+04  0.10369921354E+04  0.85419743406E+02 0.  0.
         -6    2    1    2    0  502 -0.10848766347E+02 -0.14158164588E+02 -0.42987135535E+03  0.46419160329E+03  0.17425932704E+03 0.  0.
        -24    2    5    5    0    0 -0.31132699563E+02  0.36858318143E+02 -0.13597596953E+03  0.16517537085E+03  0.80409316920E+02 0.  0.
          5    1    3    3  501    0 -0.25695686748E+02  0.58287350655E+02 -0.35656663497E+03  0.36224237568E+03  0.47000000000E+01 0. -1.
        -11    1    4    4    0    0  0.23165595704E+02 -0.11919731298E+02 -0.90590652830E+03  0.90628106172E+03  0.00000000000E+00 0.  1.
         12    1    4    4    0    0  0.13378857391E+02 -0.32209454770E+02 -0.12597198888E+03  0.13071107369E+03  0.00000000000E+00 0. -1.
         -5    1    5    5    0  502  0.20283933216E+02 -0.51016482731E+02 -0.29389538582E+03  0.29901623244E+03  0.47000000000E+01 0.  1.
         11    1    6    6    0    0 -0.32257614608E+02 -0.16598247782E+01 -0.11857219530E+03  0.12289293803E+03  0.00000000000E+00 0. -1.
        -12    1    6    6    0    0  0.11249150455E+01  0.38518142921E+02 -0.17403774227E+02  0.42282432821E+02  0.00000000000E+00 0.  1.
<mgrwt>
<rscale>  2 0.17473273E+03</rscale>
<asrwt>0</asrwt>
<pdfrwt beam="1">  1       21 0.34699693E-02 0.17516981E+03</pdfrwt>
<pdfrwt beam="2">  1       21 0.28321101E+00 0.17516981E+03</pdfrwt>
<totfact> 0.21559137E+04</totfact>
</mgrwt>
</event>
<event>
12    1  0.1074575E-001  0.2479740E+03  0.7546771E-02  0.1114703E+00
         21   -1    0    0  503  502  0.00000000000E+00  0.00000000000E+00  0.49966323002E+03  0.49966323002E+03  0.00000000000E+00 0. -1.
         21   -1    0    0  501  503 -0.00000000000E+00 -0.00000000000E+00 -0.21094757105E+03  0.21094757105E+03  0.00000000000E+00 0. -1.
          6    2    1    2  501    0 -0.14823940398E+03  0.97358308553E+02 -0.85540995806E+02  0.26165740114E+03  0.17231881056E+03 0.  0.
         24    2    3    3    0    0 -0.82940518186E+02  0.46595760135E+02 -0.11917919840E+03  0.17224599537E+03  0.80091867068E+02 0.  0.
         -6    2    1    2    0  502  0.14823940398E+03 -0.97358308553E+02  0.37425665477E+03  0.44895339994E+03  0.17331344592E+03 0.  0.
        -24    2    5    5    0    0  0.14615965045E+03 -0.37674787498E+02  0.19103430226E+03  0.25618678322E+03  0.79721579415E+02 0.  0.
          5    1    3    3  501    0 -0.65298885790E+02  0.50762548418E+02  0.33638202597E+02  0.89411405767E+02  0.47000000000E+01 0. -1.
        -11    1    4    4    0    0 -0.36232735847E+02  0.52508531915E+02 -0.28084826958E+02  0.69704480316E+02  0.00000000000E+00 0.  1.
         12    1    4    4    0    0 -0.46707782339E+02 -0.59127717806E+01 -0.91094371445E+02  0.10254151506E+03  0.00000000000E+00 0. -1.
         -5    1    5    5    0  502  0.20797535302E+01 -0.59683521055E+02  0.18322235251E+03  0.19276661672E+03  0.47000000000E+01 0.  1.
         11    1    6    6    0    0  0.13718862551E+03 -0.40287356435E+02  0.12628281933E+03  0.19076462071E+03  0.00000000000E+00 0. -1.
        -12    1    6    6    0    0  0.89710249317E+01  0.26125689373E+01  0.64751482932E+02  0.65422162503E+02  0.00000000000E+00 0.  1.
<mgrwt>
<rscale>  2 0.24780030E+03</rscale>
<asrwt>0</asrwt>
<pdfrwt beam="1">  1       21 0.76871266E-01 0.24797401E+03</pdfrwt>
<pdfrwt beam="2">  1       21 0.32453473E-01 0.24797401E+03</pdfrwt>
<totfact> 0.13298877E+04</totfact>
</mgrwt>
</event>
<event>
12    1  0.1074575E-001  0.2082353E+03  0.7546771E-02  0.1143223E+00
         21   -1    0    0  501  502  0.00000000000E+00  0.00000000000E+00  0.16717158638E+03  0.16717158638E+03  0.00000000000E+00 0.  1.
         21   -1    0    0  502  503 -0.00000000000E+00 -0.00000000000E+00 -0.45865040781E+03  0.45865040781E+03  0.00000000000E+00 0.  1.
         -6    2    1    2    0  503  0.10551551416E+03  0.34375708738E+02 -0.35304200663E+03  0.40987874140E+03  0.17620076938E+03 0.  0.
        -24    2    3    3    0    0  0.20080998536E+02  0.33100940967E+02 -0.28947028302E+03  0.30327604192E+03  0.81758143682E+02 0.  0.
          6    2    1    2  501    0 -0.10551551416E+03 -0.34375708738E+02  0.61563185198E+02  0.21594325278E+03  0.17471762811E+03 0.  0.
         24    2    5    5    0    0 -0.34895153692E+02 -0.82537345345E+02  0.12338806325E+02  0.11719150328E+03  0.74508504030E+02 0.  0.
          5    1    5    5  501    0 -0.70620360472E+02  0.48161636607E+02  0.49224378873E+02  0.98751749500E+02  0.47000000000E+01 0. -1.
        -11    1    6    6    0    0  0.12092312362E+02 -0.75676317471E+01  0.24029657744E+02  0.27944901500E+02  0.00000000000E+00 0.  1.
         12    1    6    6    0    0 -0.46987466054E+02 -0.74969713598E+02 -0.11690851419E+02  0.89246601784E+02  0.00000000000E+00 0. -1.
         -5    1    3    3    0  503  0.85434515629E+02  0.12747677713E+01 -0.63571723610E+02  0.10660269948E+03  0.47000000000E+01 0.  1.
         13    1    4    4    0    0 -0.21499426575E+02  0.31087858512E+02 -0.66840146901E+02  0.76787274516E+02  0.00000000000E+00 0. -1.
        -14    1    4    4    0    0  0.41580425111E+02  0.20130824543E+01 -0.22263013612E+03  0.22648876741E+03  0.00000000000E+00 0.  1.
<mgrwt>
<rscale>  2 0.20792118E+03</rscale>
<asrwt>0</asrwt>
<pdfrwt beam="1">  1       21 0.25718706E-01 0.20823526E+03</pdfrwt>
<pdfrwt beam="2">  1       21 0.70561600E-01 0.20823526E+03</pdfrwt>
<totfact> 0.25889670E+04</totfact>
</mgrwt>
</event>
<event>
12    1  0.1074575E-001  0.2492517E+03  0.7546771E-02  0.1114013E+00
         21   -1    0    0  503  502  0.00000000000E+00  0.00000000000E+00  0.27857191088E+03  0.27857191088E+03  0.00000000000E+00 0.  1.
         21   -1    0    0  501  503 -0.00000000000E+00 -0.00000000000E+00 -0.26066628318E+03  0.26066628318E+03  0.00000000000E+00 0. -1.
          6    2    1    2  501    0  0.35013130854E+01 -0.17923650254E+03 -0.95311332921E+02  0.26547831874E+03  0.17104532880E+03 0.  0.
         24    2    3    3    0    0  0.26072478276E+02 -0.23667122523E+02 -0.48759580468E+02  0.10146476700E+03  0.81717167377E+02 0.  0.
         -6    2    1    2    0  502 -0.35013130854E+01  0.17923650254E+03  0.11321696061E+03  0.27375987532E+03  0.17317160889E+03 0.  0.
        -24    2    5    5    0    0  0.46872216314E+02  0.42578779528E+02  0.32204167657E+02  0.10703258797E+03  0.80055664038E+02 0.  0.
          5    1    3    3  501    0 -0.22571165190E+02 -0.15556938002E+03 -0.46551752453E+02  0.16401355174E+03  0.47000000000E+01 0. -1.
        -13    1    4    4    0    0 -0.20353111710E+02 -0.12085055296E+02  0.99926266483E+01  0.25693390300E+02  0.00000000000E+00 0.  1.
         14    1    4    4    0    0  0.46425589985E+02 -0.11582067227E+02 -0.58752207116E+02  0.75771376705E+02  0.00000000000E+00 0. -1.
         -5    1    5    5    0  502 -0.50373529400E+02  0.13665772301E+03  0.81012792958E+02  0.16672728735E+03  0.47000000000E+01 0.  1.
         11    1    6    6    0    0  0.16517994997E+02 -0.21767003901E+02  0.22159822221E+02  0.35181022419E+02  0.00000000000E+00 0. -1.
        -12    1    6    6    0    0  0.30354221317E+02  0.64345783429E+02  0.10044345436E+02  0.71851565551E+02  0.00000000000E+00 0.  1.
<mgrwt>
<rscale>  2 0.24888270E+03</rscale>
<asrwt>0</asrwt>
<pdfrwt beam="1">  1       21 0.42857217E-01 0.24925166E+03</pdfrwt>
<pdfrwt beam="2">  1       21 0.40102505E-01 0.24925166E+03</pdfrwt>
<totfact> 0.30504748E+04</totfact>
</mgrwt>
</event>
<event>
12    1  0.1074575E-001  0.2008800E+03  0.7546771E-02  0.1149060E+00
         21   -1    0    0  503  502  0.00000000000E+00  0.00000000000E+00  0.46179491089E+03  0.46179491089E+03  0.00000000000E+00 0. -1.
         21   -1    0    0  501  503 -0.00000000000E+00 -0.00000000000E+00 -0.16048817252E+03  0.16048817252E+03  0.00000000000E+00 0. -1.
          6    2    1    2  501    0 -0.71082023265E+02  0.72704054964E+02 -0.59465789454E+02  0.20949686675E+03  0.17324613537E+03 0.  0.
         24    2    3    3    0    0 -0.23735472277E+02 -0.16601594180E+02  0.11674116234E+02  0.85803006588E+02  0.79917991567E+02 0.  0.
         -6    2    1    2    0  502  0.71082023265E+02 -0.72704054964E+02  0.36077252783E+03  0.41278621666E+03  0.17290780835E+03 0.  0.
        -24    2    5    5    0    0  0.98123790412E+01 -0.10127480881E+03  0.20269880981E+03  0.24079886943E+03  0.80897579308E+02 0.  0.
          5    1    3    3  501    0 -0.47346550988E+02  0.89305649145E+02 -0.71139905688E+02  0.12369386016E+03  0.47000000000E+01 0. -1.
        -13    1    4    4    0    0 -0.16925744351E+02  0.88951150743E+01  0.41671774134E+02  0.45849107445E+02  0.00000000000E+00 0.  1.
         14    1    4    4    0    0 -0.68097279260E+01 -0.25496709255E+02 -0.29997657900E+02  0.39953899143E+02  0.00000000000E+00 0. -1.
         -5    1    5    5    0  502  0.61269644224E+02  0.28570753850E+02  0.15807371801E+03  0.17198734723E+03  0.47000000000E+01 0.  1.
         13    1    6    6    0    0  0.57699886095E-01 -0.23577980455E+01  0.91975722860E+02  0.92005957071E+02  0.00000000000E+00 0. -1.
        -14    1    6    6    0    0  0.97546791551E+01 -0.98917010769E+02  0.11072308695E+03  0.14879291236E+03  0.00000000000E+00 0.  1.
<mgrwt>
<rscale>  2 0.20080699E+03</rscale>
<asrwt>0</asrwt>
<pdfrwt beam="1">  1       21 0.71045370E-01 0.20087996E+03</pdfrwt>
<pdfrwt beam="2">  1       21 0.24690488E-01 0.20087996E+03</pdfrwt>
<totfact> 0.27685766E+04</totfact>
</mgrwt>
</event>
<event>
12    1  0.1074575E-001  0.1827741E+03  0.7546771E-02  0.1165865E+00
         21   -1    0    0  503  502  0.00000000000E+00  0.00000000000E+00  0.13433845506E+04  0.13433845506E+04  0.00000000000E+00 0.  1.
         21   -1    0    0  501  503 -0.00000000000E+00 -0.00000000000E+00 -0.61183337503E+02  0.61183337503E+02  0.00000000000E+00 0.  1.
          6    2    1    2  501    0 -0.42940850561E+02 -0.38206510646E+02  0.94889463191E+02  0.20327044414E+03  0.17032677163E+03 0.  0.
         24    2    3    3    0    0 -0.71785870508E+02 -0.53338081934E+02  0.11371587838E+03  0.16535575657E+03  0.80081602419E+02 0.  0.
         -6    2    1    2    0  502  0.42940850561E+02  0.38206510646E+02  0.11873117499E+04  0.12012974440E+04  0.17350130632E+03 0.  0.
        -24    2    5    5    0    0  0.67475000154E+02  0.74851990627E+02  0.10174632268E+04  0.10257542113E+04  0.82368611441E+02 0.  0.
          5    1    3    3  501    0  0.28845019947E+02  0.15131571288E+02 -0.18826415186E+02  0.37914687578E+02  0.47000000000E+01 0. -1.
        -13    1    4    4    0    0 -0.22778331727E+02 -0.23278350531E+02  0.10147716078E+03  0.10657555141E+03  0.00000000000E+00 0.  1.
         14    1    4    4    0    0 -0.49007538780E+02 -0.30059731403E+02  0.12238717599E+02  0.58780205152E+02  0.00000000000E+00 0. -1.
         -5    1    5    5    0  502 -0.24534149593E+02 -0.36645479981E+02  0.16984852317E+03  0.17554323263E+03  0.47000000000E+01 0.  1.
         13    1    6    6    0    0  0.81651251890E+01  0.12093743921E+02  0.21088219295E+02  0.25644510220E+02  0.00000000000E+00 0. -1.
        -14    1    6    6    0    0  0.59309874965E+02  0.62758246706E+02  0.99637500746E+03  0.10001097011E+04  0.00000000000E+00 0.  1.
<mgrwt>
<rscale>  2 0.18201669E+03</rscale>
<asrwt>0</asrwt>
<pdfrwt beam="1">  1       21 0.20667452E+00 0.18277406E+03</pdfrwt>
<pdfrwt beam="2">  1       21 0.94128222E-02 0.18277406E+03</pdfrwt>
<totfact> 0.11086055E+04</totfact>
</mgrwt>
</event>
<event>
12    1  0.1074575E-001  0.2933223E+03  0.7546771E-02  0.1088646E+00
         21   -1    0    0  503  502  0.00000000000E+00  0.00000000000E+00  0.38308665252E+02  0.38308665252E+02  0.00000000000E+00 0. -1.
         21   -1    0    0  501  503 -0.00000000000E+00 -0.00000000000E+00 -0.25118351995E+04  0.25118351995E+04  0.00000000000E+00 0.  1.
          6    2    1    2  501    0  0.15024558862E+03  0.18484999565E+03 -0.16522246912E+04  0.16780345461E+04  0.17091006402E+03 0.  0.
         24    2    3    3    0    0  0.16929796075E+03  0.14113798159E+03 -0.11580392563E+04  0.11815317091E+04  0.79878227527E+02 0.  0.
         -6    2    1    2    0  502 -0.15024558862E+03 -0.18484999565E+03 -0.82130184307E+03  0.87210931865E+03  0.17115691179E+03 0.  0.
        -24    2    5    5    0    0 -0.15960468084E+02 -0.29737311109E+02 -0.27687075887E+03  0.29028483141E+03  0.80428987424E+02 0.  0.
          5    1    3    3  501    0 -0.19052372124E+02  0.43712014062E+02 -0.49418543493E+03  0.49650283700E+03  0.47000000000E+01 0. -1.
        -13    1    4    4    0    0  0.61719883952E+02  0.76027354257E+02 -0.68918676917E+03  0.69610911894E+03  0.00000000000E+00 0.  1.
         14    1    4    4    0    0  0.10757807679E+03  0.65110627335E+02 -0.46885248710E+03  0.48542259018E+03  0.00000000000E+00 0. -1.
         -5    1    5    5    0  502 -0.13428512054E+03 -0.15511268454E+03 -0.54443108420E+03  0.58182448724E+03  0.47000000000E+01 0.  1.
         13    1    6    6    0    0 -0.38244338927E+02  0.94571465669E+01 -0.93668334145E+02  0.10161606124E+03  0.00000000000E+00 0. -1.
        -14    1    6    6    0    0  0.22283870844E+02 -0.39194457676E+02 -0.18320242472E+03  0.18866877017E+03  0.00000000000E+00 0.  1.
<mgrwt>
<rscale>  2 0.29328626E+03</rscale>
<asrwt>0</asrwt>
<pdfrwt beam="1">  1       21 0.58936401E-02 0.29332226E+03</pdfrwt>
<pdfrwt beam="2">  1       21 0.38643623E+00 0.29332226E+03</pdfrwt>
<totfact> 0.19120652E+03</totfact>
</mgrwt>
</event>
<event>
12    1  0.1074575E-001  0.1864404E+03  0.7546771E-02  0.1161897E+00
         21   -1    0    0  501  502  0.00000000000E+00  0.00000000000E+00  0.13112456362E+03  0.13112456362E+03  0.00000000000E+00 0.  1.
         21   -1    0    0  502  503 -0.00000000000E+00 -0.00000000000E+00 -0.27178289254E+03  0.27178289254E+03  0.00000000000E+00 0.  1.
         -6    2    1    2    0  503  0.75025597214E+01  0.67329137998E+02 -0.36286824289E+02  0.18993881921E+03  0.17369663267E+03 0.  0.
        -24    2    3    3    0    0 -0.35915665719E+02  0.96556251544E+02 -0.36552134104E+02  0.13738858747E+03  0.83225721406E+02 0.  0.
          6    2    1    2  501    0 -0.75025597214E+01 -0.67329137998E+02 -0.10437150462E+03  0.21296863695E+03  0.17283728799E+03 0.  0.
         24    2    5    5    0    0  0.45347137827E+02 -0.87596454305E+02 -0.60542510308E+02  0.14122656154E+03  0.80932344669E+02 0.  0.
          5    1    5    5  501    0 -0.52849697549E+02  0.20267316307E+02 -0.43828994315E+02  0.71742075409E+02  0.47000000000E+01 0. -1.
        -13    1    6    6    0    0 -0.18744051517E+02 -0.32207801218E+02 -0.38746710681E+02  0.53758622705E+02  0.00000000000E+00 0.  1.
         14    1    6    6    0    0  0.64091189344E+02 -0.55388653087E+02 -0.21795799627E+02  0.87467938833E+02  0.00000000000E+00 0. -1.
         -5    1    3    3    0  503  0.43418225441E+02 -0.29227113546E+02  0.26530981537E+00  0.52550231741E+02  0.47000000000E+01 0.  1.
         11    1    4    4    0    0 -0.15449184138E+02  0.72841323649E+02 -0.62106083504E+02  0.96962370690E+02  0.00000000000E+00 0. -1.
        -12    1    4    4    0    0 -0.20466481581E+02  0.23714927895E+02  0.25553949400E+02  0.40426216782E+02  0.00000000000E+00 0.  1.
<mgrwt>
<rscale>  2 0.18623999E+03</rscale>
<asrwt>0</asrwt>
<pdfrwt beam="1">  1       21 0.20173010E-01 0.18644040E+03</pdfrwt>
<pdfrwt beam="2">  1       21 0.41812753E-01 0.18644040E+03</pdfrwt>
<totfact> 0.12533585E+05</totfact>
</mgrwt>
</event>
<event>
12    1  0.1074575E-001  0.2420508E+03  0.7546771E-02  0.1118492E+00
         21   -1    0    0  503  502  0.00000000000E+00  0.00000000000E+00  0.63302632808E+03  0.63302632808E+03  0.00000000000E+00 0.  1.
         21   -1    0    0  501  503 -0.00000000000E+00 -0.00000000000E+00 -0.11099592770E+03  0.11099592770E+03  0.00000000000E+00 0.  1.
          6    2    1    2  501    0  0.10011729302E+03  0.13646139950E+03  0.10866147350E+03  0.26499984358E+03  0.17254684974E+03 0.  0.
         24    2    3    3    0    0  0.11848123825E+03  0.13725013330E+03  0.50453365041E+02  0.20377786651E+03  0.78131132880E+02 0.  0.
         -6    2    1    2    0  502 -0.10011729302E+03 -0.13646139950E+03  0.41336892688E+03  0.47902241220E+03  0.17304165904E+03 0.  0.
        -24    2    5    5    0    0 -0.70819087084E+02 -0.13460457111E+03  0.20145513397E+03  0.26503321081E+03  0.80775603832E+02 0.  0.
          5    1    3    3  501    0 -0.18363945230E+02 -0.78873380117E+00  0.58208108464E+02  0.61221977070E+02  0.47000000000E+01 0. -1.
        -11    1    4    4    0    0  0.12766168254E+02  0.51299318082E+02 -0.11510281347E+02  0.54102510702E+02  0.00000000000E+00 0.  1.
         12    1    4    4    0    0  0.10571507000E+03  0.85950815221E+02  0.61963646389E+02  0.14967535581E+03  0.00000000000E+00 0. -1.
         -5    1    5    5    0  502 -0.29298205939E+02 -0.18568283955E+01  0.21191379292E+03  0.21398920139E+03  0.47000000000E+01 0.  1.
         13    1    6    6    0    0 -0.90444172210E+01 -0.46812550835E+02  0.12344887885E+03  0.13233609518E+03  0.00000000000E+00 0. -1.
        -14    1    6    6    0    0 -0.61774669863E+02 -0.87792020271E+02  0.78006255119E+02  0.13269711563E+03  0.00000000000E+00 0.  1.
<mgrwt>
<rscale>  2 0.24196240E+03</rscale>
<asrwt>0</asrwt>
<pdfrwt beam="1">  1       21 0.97388664E-01 0.24205082E+03</pdfrwt>
<pdfrwt beam="2">  1       21 0.17076297E-01 0.24205082E+03</pdfrwt>
<totfact> 0.26324094E+04</totfact>
</mgrwt>
</event>
<event>
12    1  0.1074575E-001  0.2701143E+03  0.7546771E-02  0.1101273E+00
         21   -1    0    0  501  502  0.00000000000E+00  0.00000000000E+00  0.39362146444E+03  0.39362146444E+03  0.00000000000E+00 0. -1.
         21   -1    0    0  502  503 -0.00000000000E+00 -0.00000000000E+00 -0.39556618803E+03  0.39556618803E+03  0.00000000000E+00 0.  1.
         -6    2    1    2    0  503  0.72626314233E+02  0.19461609774E+03 -0.28881290098E+03  0.39516345898E+03  0.17202110489E+03 0.  0.
        -24    2    3    3    0    0  0.69711947519E+02  0.19271305343E+03 -0.17644684311E+03  0.28264530013E+03  0.82199760673E+02 0.  0.
          6    2    1    2  501    0 -0.72626314233E+02 -0.19461609774E+03  0.28686817739E+03  0.39402419349E+03  0.17266066963E+03 0.  0.
         24    2    5    5    0    0 -0.10089912047E+03 -0.81177155129E+02  0.17391315346E+03  0.23139371447E+03  0.80789251302E+02 0.  0.
          5    1    5    5  501    0  0.28272806238E+02 -0.11343894261E+03  0.11295502393E+03  0.16263047902E+03  0.47000000000E+01 0. -1.
        -11    1    6    6    0    0 -0.42132469244E+02 -0.61133128724E+02  0.41287901127E+02  0.84953488284E+02  0.00000000000E+00 0.  1.
         12    1    6    6    0    0 -0.58766651227E+02 -0.20044026405E+02  0.13262525233E+03  0.14644022619E+03  0.00000000000E+00 0. -1.
         -5    1    3    3    0  503  0.29143667140E+01  0.19030443139E+01 -0.11236605787E+03  0.11251815885E+03  0.47000000000E+01 0.  1.
         13    1    4    4    0    0  0.19338589855E+02  0.26952175090E+02  0.28856659873E+01  0.33297565495E+02  0.00000000000E+00 0. -1.
        -14    1    4    4    0    0  0.50373357664E+02  0.16576087834E+03 -0.17933250910E+03  0.24934773464E+03  0.00000000000E+00 0.  1.
<mgrwt>
<rscale>  2 0.27001211E+03</rscale>
<asrwt>0</asrwt>
<pdfrwt beam="1">  1       21 0.60557149E-01 0.27011426E+03</pdfrwt>
<pdfrwt beam="2">  1       21 0.60856336E-01 0.27011426E+03</pdfrwt>
<totfact> 0.60708638E+03</totfact>
</mgrwt>
</event>
<event>
12    1  0.1074575E-001  0.1750902E+03  0.7546771E-02  0.1172685E+00
         21   -1    0    0  501  502  0.00000000000E+00  0.00000000000E+00  0.29215844685E+03  0.29215844685E+03  0.00000000000E+00 0. -1.
         21   -1    0    0  502  503 -0.00000000000E+00 -0.00000000000E+00 -0.16908582944E+03  0.16908582944E+03  0.00000000000E+00 0. -1.
         -6    2    1    2    0  503  0.18636018785E+02  0.20059763764E+02 -0.80617439549E+02  0.19275823895E+03  0.17293603385E+03 0.  0.
        -24    2    3    3    0    0  0.27421882882E+02  0.41882383775E+02 -0.11660113188E+03  0.14951087758E+03  0.79066964199E+02 0.  0.
          6    2    1    2  501    0 -0.18636018785E+02 -0.20059763764E+02  0.20369005695E+03  0.26848603734E+03  0.17275826356E+03 0.  0.
         24    2    5    5    0    0  0.25414073211E+02 -0.43796665719E+02  0.51567500209E+02  0.10827613319E+03  0.80625621826E+02 0.  0.
          5    1    5    5  501    0 -0.44050091997E+02  0.23736901955E+02  0.15212255675E+03  0.16020990416E+03  0.47000000000E+01 0. -1.
        -11    1    6    6    0    0 -0.33723856269E+01 -0.30200199585E+02 -0.15443611038E+02  0.34087096704E+02  0.00000000000E+00 0.  1.
         12    1    6    6    0    0  0.28786458838E+02 -0.13596466134E+02  0.67011111247E+02  0.74189036483E+02  0.00000000000E+00 0. -1.
         -5    1    3    3    0  503 -0.87858640963E+01 -0.21822620011E+02  0.35983692328E+02  0.43247361371E+02  0.47000000000E+01 0.  1.
         13    1    4    4    0    0  0.18585776436E+02  0.65427090209E+02 -0.78608717075E+02  0.10394934160E+03  0.00000000000E+00 0. -1.
        -14    1    4    4    0    0  0.88361064456E+01 -0.23544706434E+02 -0.37992414802E+02  0.45561535978E+02  0.00000000000E+00 0.  1.
<mgrwt>
<rscale>  2 0.17504626E+03</rscale>
<asrwt>0</asrwt>
<pdfrwt beam="1">  1       21 0.44947453E-01 0.17509017E+03</pdfrwt>
<pdfrwt beam="2">  1       21 0.26013205E-01 0.17509017E+03</pdfrwt>
<totfact> 0.67193229E+04</totfact>
</mgrwt>
</event>
<event>
12    1  0.1074575E-001  0.1946176E+03  0.7546771E-02  0.1154582E+00
         21   -1    0    0  503  502  0.00000000000E+00  0.00000000000E+00  0.15231324463E+03  0.15231324463E+03  0.00000000000E+00 0.  1.
         21   -1    0    0  501  503 -0.00000000000E+00 -0.00000000000E+00 -0.24791896061E+03  0.24791896061E+03  0.00000000000E+00 0.  1.
          6    2    1    2  501    0 -0.68332283444E+02 -0.57412998708E+02 -0.57176171345E+02  0.20284256981E+03  0.17294635058E+03 0.  0.
         24    2    3    3    0    0 -0.80051381956E+02 -0.93151165930E+02 -0.17981997275E+02  0.14831893139E+03  0.81177519761E+02 0.  0.
         -6    2    1    2    0  502  0.68332283444E+02  0.57412998708E+02 -0.38429544632E+02  0.19738963542E+03  0.17181468182E+03 0.  0.
        -24    2    5    5    0    0  0.83193219310E+01  0.92188190220E+02 -0.36233653854E+02  0.12783547357E+03  0.80381323071E+02 0.  0.
          5    1    3    3  501    0  0.11719098512E+02  0.35738167222E+02 -0.39194174069E+02  0.54523638427E+02  0.47000000000E+01 0. -1.
        -13    1    4    4    0    0 -0.77801704855E+02 -0.51692006581E+02 -0.39660946190E+02  0.10147984763E+03  0.00000000000E+00 0.  1.
         14    1    4    4    0    0 -0.22496771015E+01 -0.41459159348E+02  0.21678948915E+02  0.46839083755E+02  0.00000000000E+00 0. -1.
         -5    1    5    5    0  502  0.60012961513E+02 -0.34775191512E+02 -0.21958907779E+01  0.69554161850E+02  0.47000000000E+01 0.  1.
         11    1    6    6    0    0  0.34086186668E+01  0.20383114016E+02 -0.50408293605E+02  0.54480143928E+02  0.00000000000E+00 0. -1.
        -12    1    6    6    0    0  0.49107032642E+01  0.71805076204E+02  0.14174639752E+02  0.73355329645E+02  0.00000000000E+00 0.  1.
<mgrwt>
<rscale>  2 0.19436583E+03</rscale>
<asrwt>0</asrwt>
<pdfrwt beam="1">  1       21 0.23432807E-01 0.19461756E+03</pdfrwt>
<pdfrwt beam="2">  1       21 0.38141378E-01 0.19461756E+03</pdfrwt>
<totfact> 0.11349148E+05</totfact>
</mgrwt>
</event>
<event>
12    1  0.1074575E-001  0.1775091E+03  0.7546771E-02  0.1170955E+00
         21   -1    0    0  503  502  0.00000000000E+00  0.00000000000E+00  0.16169736777E+03  0.16169736777E+03  0.00000000000E+00 0. -1.
         21   -1    0    0  501  503 -0.00000000000E+00 -0.00000000000E+00 -0.23732475277E+03  0.23732475277E+03  0.00000000000E+00 0. -1.
          6    2    1    2  501    0  0.39135294952E+02  0.10051869382E+02 -0.12553581734E+03  0.21741373363E+03  0.17284929490E+03 0.  0.
         24    2    3    3    0    0  0.25512339290E+02  0.71929086573E+02 -0.61011288066E+02  0.12686054591E+03  0.80910740242E+02 0.  0.
         -6    2    1    2    0  502 -0.39135294952E+02 -0.10051869382E+02  0.49908432336E+02  0.18160838691E+03  0.16987684712E+03 0.  0.
        -24    2    5    5    0    0 -0.83760725100E+02 -0.28350929553E+02  0.57031974707E+02  0.13262757970E+03  0.80732858746E+02 0.  0.
          5    1    3    3  501    0  0.13622955662E+02 -0.61877217190E+02 -0.64524529273E+02  0.90553187719E+02  0.47000000000E+01 0. -1.
        -13    1    4    4    0    0 -0.29207580171E+02  0.19662955111E+02 -0.24099529091E+02  0.42667339331E+02  0.00000000000E+00 0.  1.
         14    1    4    4    0    0  0.54719919462E+02  0.52266131461E+02 -0.36911758975E+02  0.84193206582E+02  0.00000000000E+00 0. -1.
         -5    1    5    5    0  502  0.44625430148E+02  0.18299060171E+02 -0.71235423714E+01  0.48980807210E+02  0.47000000000E+01 0.  1.
         11    1    6    6    0    0 -0.26268441213E+02  0.53043544517E+01  0.60239781477E+02  0.65931771190E+02  0.00000000000E+00 0. -1.
        -12    1    6    6    0    0 -0.57492283887E+02 -0.33655284005E+02 -0.32078067697E+01  0.66695808506E+02  0.00000000000E+00 0.  1.
<mgrwt>
<rscale>  2 0.17678139E+03</rscale>
<asrwt>0</asrwt>
<pdfrwt beam="1">  1       21 0.24876518E-01 0.17750913E+03</pdfrwt>
<pdfrwt beam="2">  1       21 0.36511500E-01 0.17750913E+03</pdfrwt>
<totfact> 0.11122726E+05</totfact>
</mgrwt>
</event>
<event>
12    1  0.1074575E-001  0.1861374E+03  0.7546771E-02  0.1165916E+00
         21   -1    0    0  501  502  0.00000000000E+00  0.00000000000E+00  0.58847399717E+03  0.58847399717E+03  0.00000000000E+00 0. -1.
         21   -1    0    0  502  503 -0.00000000000E+00 -0.00000000000E+00 -0.65840842722E+02  0.65840842722E+02  0.00000000000E+00 0. -1.
         -6    2    1    2    0  503 -0.61960427772E+02  0.20753862024E+02  0.13169455064E+03  0.22801442683E+03  0.17429086831E+03 0.  0.
        -24    2    3    3    0    0 -0.13873543340E+02 -0.50962793261E+02  0.53458631318E+02  0.11140149371E+03  0.82236160149E+02 0.  0.
          6    2    1    2  501    0  0.61960427772E+02 -0.20753862024E+02  0.39093860381E+03  0.42630041307E+03  0.15693703461E+03 0.  0.
         24    2    5    5    0    0 -0.82868918293E+00 -0.55129070402E+02  0.21688145297E+03  0.23803966326E+03  0.81150573086E+02 0.  0.
          5    1    5    5  501    0  0.62789116955E+02  0.34375208378E+02  0.17405715084E+03  0.18826074980E+03  0.47000000000E+01 0. -1.
        -11    1    6    6    0    0 -0.35889165506E+02 -0.20226490497E+02  0.54682891288E+02  0.68464309813E+02  0.00000000000E+00 0.  1.
         12    1    6    6    0    0  0.35060476323E+02 -0.34902579905E+02  0.16219856169E+03  0.16957535345E+03  0.00000000000E+00 0. -1.
         -5    1    3    3    0  503 -0.48086884432E+02  0.71716655285E+02  0.78235919322E+02  0.11661293312E+03  0.47000000000E+01 0.  1.
         11    1    4    4    0    0  0.69486271068E+01 -0.25308990068E+02 -0.18573692086E+02  0.32152922645E+02  0.00000000000E+00 0. -1.
        -12    1    4    4    0    0 -0.20822170447E+02 -0.25653803193E+02  0.72032323404E+02  0.79248571062E+02  0.00000000000E+00 0.  1.
<mgrwt>
<rscale>  2 0.18196407E+03</rscale>
<asrwt>0</asrwt>
<pdfrwt beam="1">  1       21 0.90534458E-01 0.18613738E+03</pdfrwt>
<pdfrwt beam="2">  1       21 0.10129361E-01 0.18613738E+03</pdfrwt>
<totfact> 0.82427910E+04</totfact>
</mgrwt>
</event>
<event>
11    1  0.1074575E-001  0.2285575E+03  0.7546771E-02  0.1127864E+00
         21   -1    0    0  501  502  0.00000000000E+00  0.00000000000E+00  0.63490705043E+02  0.63490705043E+02  0.00000000000E+00 0.  1.
         21   -1    0    0  502  503 -0.00000000000E+00 -0.00000000000E+00 -0.82816652538E+03  0.82816652538E+03  0.00000000000E+00 0. -1.
         -6    2    1    2    0  503  0.18152343271E+02  0.14752706211E+03 -0.42921072920E+03  0.48573190176E+03  0.17210429601E+03 0.  0.
          6    2    1    2  501    0 -0.18152343271E+02 -0.14752706211E+03 -0.33546509114E+03  0.40592532867E+03  0.17362258914E+03 0.  0.
         24    2    4    4    0    0  0.52007826919E+02 -0.94597166986E+02 -0.24638358842E+03  0.28069902390E+03  0.80209920292E+02 0.  0.
          5    1    4    4  501    0 -0.70160170190E+02 -0.52929895123E+02 -0.89081502721E+02  0.12522630477E+03  0.47000000000E+01 0. -1.
        -13    1    5    5    0    0  0.38659662807E+02 -0.39765755291E+02 -0.44589335895E+02  0.71162445839E+02  0.00000000000E+00 0.  1.
         14    1    5    5    0    0  0.13348164113E+02 -0.54831411694E+02 -0.20179425253E+03  0.20953657806E+03  0.00000000000E+00 0. -1.
         -5    1    3    3    0  503  0.46377931026E+02  0.28679404218E+02 -0.62697604860E+02  0.83225599233E+02  0.47000000000E+01 0.  1.
         11    1    3    3    0    0  0.24685966091E+02  0.72864323650E+02 -0.28400052416E+03  0.29423613698E+03  0.00000000000E+00 0. -1.
        -12    1    3    3    0    0 -0.52911553846E+02  0.45983334240E+02 -0.82512600181E+02  0.10827016554E+03  0.00000000000E+00 0.  1.
<mgrwt>
<rscale>  2 0.22826918E+03</rscale>
<asrwt>0</asrwt>
<pdfrwt beam="1">  1       21 0.97677999E-02 0.22855753E+03</pdfrwt>
<pdfrwt beam="2">  1       21 0.12741025E+00 0.22855753E+03</pdfrwt>
<totfact> 0.37713956E+04</totfact>
</mgrwt>
</event>
<event>
12    1  0.1074575E-001  0.3254081E+03  0.7546771E-02  0.1073419E+00
         21   -1    0    0  501  502  0.00000000000E+00  0.00000000000E+00  0.71093564255E+02  0.71093564255E+02  0.00000000000E+00 0. -1.
         21   -1    0    0  502  503 -0.00000000000E+00 -0.00000000000E+00 -0.18348890726E+04  0.18348890726E+04  0.00000000000E+00 0.  1.
         -6    2    1    2    0  503  0.57889770736E+02 -0.26979457252E+03 -0.12987243033E+04  0.13383721793E+04  0.16856730820E+03 0.  0.
        -24    2    3    3    0    0  0.85919830989E+01 -0.92732515111E+02 -0.33337726331E+03  0.35567271269E+03  0.81789591794E+02 0.  0.
          6    2    1    2  501    0 -0.57889770736E+02  0.26979457252E+03 -0.46507120503E+03  0.56761045755E+03  0.17248208272E+03 0.  0.
         24    2    5    5    0    0 -0.15736477283E+02  0.10805079930E+03 -0.31020965823E+03  0.33970228086E+03  0.85117540028E+02 0.  0.
          5    1    5    5  501    0 -0.42153293452E+02  0.16174377322E+03 -0.15486154680E+03  0.22790817669E+03  0.47000000000E+01 0. -1.
        -13    1    6    6    0    0  0.10332702684E+02  0.10131407756E+03 -0.18068625608E+03  0.20740981219E+03  0.00000000000E+00 0.  1.
         14    1    6    6    0    0 -0.26069179967E+02  0.67367217374E+01 -0.12952340215E+03  0.13229246867E+03  0.00000000000E+00 0. -1.
         -5    1    3    3    0  503  0.49297787637E+02 -0.17706205740E+03 -0.96534704000E+03  0.98269946661E+03  0.47000000000E+01 0.  1.
         11    1    4    4    0    0  0.24881304964E+02 -0.10209836034E+03 -0.27839087479E+03  0.29756450340E+03  0.00000000000E+00 0. -1.
        -12    1    4    4    0    0 -0.16289321865E+02  0.93658452243E+01 -0.54986388524E+02  0.58108209287E+02  0.00000000000E+00 0.  1.
<mgrwt>
<rscale>  2 0.32489234E+03</rscale>
<asrwt>0</asrwt>
<pdfrwt beam="1">  1       21 0.10937471E-01 0.32540806E+03</pdfrwt>
<pdfrwt beam="2">  1       21 0.28229064E+00 0.32540806E+03</pdfrwt>
<totfact> 0.26515667E+03</totfact>
</mgrwt>
</event>
<event>
12    1  0.1074575E-001  0.2573336E+03  0.7546771E-02  0.1108871E+00
         21   -1    0    0  501  502  0.00000000000E+00  0.00000000000E+00  0.10854956952E+03  0.10854956952E+03  0.00000000000E+00 0.  1.
         21   -1    0    0  502  503 -0.00000000000E+00 -0.00000000000E+00 -0.80890999561E+03  0.80890999561E+03  0.00000000000E+00 0.  1.
         -6    2    1    2    0  503  0.18665635152E+03  0.29258693648E+02 -0.57903125244E+03  0.63363852035E+03  0.17471095688E+03 0.  0.
        -24    2    3    3    0    0  0.20165060008E+03  0.24335925134E+01 -0.43250726789E+03  0.48385273468E+03  0.79887703648E+02 0.  0.
          6    2    1    2  501    0 -0.18665635152E+03 -0.29258693648E+02 -0.12132917366E+03  0.28382104478E+03  0.17359997801E+03 0.  0.
         24    2    5    5    0    0 -0.99769696512E+02 -0.26835600064E+02  0.48298967001E+01  0.13054559589E+03  0.79653518004E+02 0.  0.
          5    1    5    5  501    0 -0.86886655004E+02 -0.24230935844E+01 -0.12615907036E+03  0.15327544890E+03  0.47000000000E+01 0. -1.
        -13    1    6    6    0    0 -0.62240875252E+02  0.22292311316E+02  0.15257488952E+02  0.67850310722E+02  0.00000000000E+00 0.  1.
         14    1    6    6    0    0 -0.37528821260E+02 -0.49127911380E+02 -0.10427592252E+02  0.62695285165E+02  0.00000000000E+00 0. -1.
         -5    1    3    3    0  503 -0.14994248561E+02  0.26825101135E+02 -0.14652398454E+03  0.14978578567E+03  0.47000000000E+01 0.  1.
         13    1    4    4    0    0  0.44561767059E+02 -0.32740846394E+02 -0.95022872123E+02  0.10994116760E+03  0.00000000000E+00 0. -1.
        -14    1    4    4    0    0  0.15708883302E+03  0.35174438907E+02 -0.33748439577E+03  0.37391156708E+03  0.00000000000E+00 0.  1.
<mgrwt>
<rscale>  2 0.25714515E+03</rscale>
<asrwt>0</asrwt>
<pdfrwt beam="1">  1       21 0.16699934E-01 0.25733360E+03</pdfrwt>
<pdfrwt beam="2">  1       21 0.12444769E+00 0.25733360E+03</pdfrwt>
<totfact> 0.14952452E+04</totfact>
</mgrwt>
</event>
<event>
12    1  0.1074575E-001  0.1973497E+03  0.7546771E-02  0.1152322E+00
         21   -1    0    0  503  502  0.00000000000E+00  0.00000000000E+00  0.66571929423E+03  0.66571929423E+03  0.00000000000E+00 0. -1.
         21   -1    0    0  501  503 -0.00000000000E+00 -0.00000000000E+00 -0.60576346236E+02  0.60576346236E+02  0.00000000000E+00 0. -1.
          6    2    1    2  501    0 -0.90219840023E+02  0.91795276155E+01  0.22735809300E+03  0.30006999881E+03  0.17356963580E+03 0.  0.
         24    2    3    3    0    0 -0.80314420060E+02  0.37341248382E+02  0.23798035677E+03  0.26803685427E+03  0.85815675361E+02 0.  0.
         -6    2    1    2    0  502  0.90219840023E+02 -0.91795276155E+01  0.37778485499E+03  0.42622564165E+03  0.17527982679E+03 0.  0.
        -24    2    5    5    0    0  0.13089102278E+03 -0.14519174087E+02  0.31152005623E+03  0.34815022628E+03  0.82586732342E+02 0.  0.
          5    1    3    3  501    0 -0.99054199630E+01 -0.28161720766E+02 -0.10622263776E+02  0.32033144536E+02  0.47000000000E+01 0. -1.
        -11    1    4    4    0    0 -0.86767533475E+02  0.60233793877E+01  0.13851607798E+03  0.16355913250E+03  0.00000000000E+00 0.  1.
         12    1    4    4    0    0  0.64531134148E+01  0.31317868994E+02  0.99464278796E+02  0.10447772178E+03  0.00000000000E+00 0. -1.
         -5    1    5    5    0  502 -0.40671182761E+02  0.53396464718E+01  0.66264798761E+02  0.78075415378E+02  0.47000000000E+01 0.  1.
         13    1    6    6    0    0  0.63008501767E+02 -0.20443824739E+02  0.24160756974E+03  0.25052392903E+03  0.00000000000E+00 0. -1.
        -14    1    6    6    0    0  0.67882521018E+02  0.59246506514E+01  0.69912486498E+02  0.97626297243E+02  0.00000000000E+00 0.  1.
<mgrwt>
<rscale>  2 0.19696925E+03</rscale>
<asrwt>0</asrwt>
<pdfrwt beam="1">  1       21 0.10241835E+00 0.19734969E+03</pdfrwt>
<pdfrwt beam="2">  1       21 0.93194383E-02 0.19734969E+03</pdfrwt>
<totfact> 0.71094447E+04</totfact>
</mgrwt>
</event>
<event>
12    1  0.1074575E-001  0.1977231E+03  0.7546771E-02  0.1151857E+00
         21   -1    0    0  503  502  0.00000000000E+00  0.00000000000E+00  0.21183510137E+03  0.21183510137E+03  0.00000000000E+00 0. -1.
         21   -1    0    0  501  503 -0.00000000000E+00 -0.00000000000E+00 -0.30920830537E+03  0.30920830537E+03  0.00000000000E+00 0.  1.
          6    2    1    2  501    0 -0.85381296643E+02 -0.39855532341E+02 -0.21456463645E+03  0.29119943325E+03  0.17286034084E+03 0.  0.
         24    2    3    3    0    0 -0.41053352741E+01 -0.36319313101E+02 -0.18446422390E+03  0.20432934876E+03  0.79921752887E+02 0.  0.
         -6    2    1    2    0  502  0.85381296643E+02  0.39855532341E+02  0.11719143244E+03  0.22984397350E+03  0.17382747493E+03 0.  0.
        -24    2    5    5    0    0  0.91214779333E+02 -0.22518014764E+02  0.10632208635E+03  0.16608880443E+03  0.86336017704E+02 0.  0.
          5    1    3    3  501    0 -0.81275961369E+02 -0.35362192404E+01 -0.30100412546E+02  0.86870084485E+02  0.47000000000E+01 0. -1.
        -13    1    4    4    0    0 -0.20384176116E+02 -0.52614179746E+02 -0.83540327497E+02  0.10081047993E+03  0.00000000000E+00 0.  1.
         14    1    4    4    0    0  0.16278840842E+02  0.16294866645E+02 -0.10092389640E+03  0.10351886883E+03  0.00000000000E+00 0. -1.
         -5    1    5    5    0  502 -0.58334826903E+01  0.62373547104E+02  0.10869346095E+02  0.63755169071E+02  0.47000000000E+01 0.  1.
         11    1    6    6    0    0  0.82840004696E+02  0.12349028411E+02  0.45068947810E+02  0.95111381745E+02  0.00000000000E+00 0. -1.
        -12    1    6    6    0    0  0.83747746373E+01 -0.34867043174E+02  0.61253138537E+02  0.70977422682E+02  0.00000000000E+00 0.  1.
<mgrwt>
<rscale>  2 0.19751032E+03</rscale>
<asrwt>0</asrwt>
<pdfrwt beam="1">  1       21 0.32590016E-01 0.19772309E+03</pdfrwt>
<pdfrwt beam="2">  1       21 0.47570508E-01 0.19772309E+03</pdfrwt>
<totfact> 0.38189558E+04</totfact>
</mgrwt>
</event>
<event>
12    1  0.1074575E-001  0.1988714E+03  0.7546771E-02  0.1150897E+00
         21   -1    0    0  501  502  0.00000000000E+00  0.00000000000E+00  0.17371809866E+02  0.17371809866E+02  0.00000000000E+00 0.  1.
         21   -1    0    0  502  503 -0.00000000000E+00 -0.00000000000E+00 -0.22658479069E+04  0.22658479069E+04  0.00000000000E+00 0.  1.
         -6    2    1    2    0  503  0.94447724589E+02 -0.19932429600E+02 -0.11232497407E+04  0.11407189978E+04  0.17387402778E+03 0.  0.
        -24    2    3    3    0    0  0.21696437535E+02  0.50549624312E+02 -0.51189557189E+03  0.52101222891E+03  0.79941642670E+02 0.  0.
          6    2    1    2  501    0 -0.94447724589E+02  0.19932429600E+02 -0.11252263564E+04  0.11425007190E+04  0.17278849907E+03 0.  0.
         24    2    5    5    0    0 -0.11607250372E+03 -0.27486122430E+02 -0.89004681037E+03  0.90156990112E+03  0.80103988030E+02 0.  0.
          5    1    5    5  501    0  0.21624779134E+02  0.47418552030E+02 -0.23517954599E+03  0.24093081787E+03  0.47000000000E+01 0. -1.
        -13    1    6    6    0    0 -0.38652113737E+02 -0.14817714742E+02 -0.10904221132E+03  0.11663513371E+03  0.00000000000E+00 0.  1.
         14    1    6    6    0    0 -0.77420389986E+02 -0.12668407688E+02 -0.78100459905E+03  0.78493476740E+03  0.00000000000E+00 0. -1.
         -5    1    3    3    0  503  0.72751287055E+02 -0.70482053912E+02 -0.61135416882E+03  0.61970676890E+03  0.47000000000E+01 0.  1.
         11    1    4    4    0    0 -0.42696638069E+01 -0.68806337436E+01 -0.29584905687E+03  0.29595985809E+03  0.00000000000E+00 0. -1.
        -12    1    4    4    0    0  0.25966101342E+02  0.57430258055E+02 -0.21604651502E+03  0.22505237082E+03  0.00000000000E+00 0.  1.
<mgrwt>
<rscale>  2 0.19863393E+03</rscale>
<asrwt>0</asrwt>
<pdfrwt beam="1">  1       21 0.26725871E-02 0.19887145E+03</pdfrwt>
<pdfrwt beam="2">  1       21 0.34859185E+00 0.19887145E+03</pdfrwt>
<totfact> 0.13552389E+04</totfact>
</mgrwt>
</event>
<event>
12    1  0.1074575E-001  0.2277362E+03  0.7546771E-02  0.1128300E+00
         21   -1    0    0  501  502  0.00000000000E+00  0.00000000000E+00  0.70079347716E+03  0.70079347716E+03  0.00000000000E+00 0.  1.
         21   -1    0    0  502  503 -0.00000000000E+00 -0.00000000000E+00 -0.19727397778E+03  0.19727397778E+03  0.00000000000E+00 0. -1.
         -6    2    1    2    0  503  0.74065185362E+02 -0.12793118702E+03 -0.10327225161E+03  0.25005790018E+03  0.17323901176E+03 0.  0.
        -24    2    3    3    0    0  0.10484520915E+03 -0.10733505782E+03 -0.12059630252E+03  0.20890181749E+03  0.81136728110E+02 0.  0.
          6    2    1    2  501    0 -0.74065185362E+02  0.12793118702E+03  0.60679175099E+03  0.64800955476E+03  0.17282393843E+03 0.  0.
         24    2    5    5    0    0 -0.33838723642E+02  0.15187913621E+03  0.42536878567E+03  0.46058475694E+03  0.83590569243E+02 0.  0.
          5    1    5    5  501    0 -0.40226461719E+02 -0.23947949190E+02  0.18142296532E+03  0.18742479782E+03  0.47000000000E+01 0. -1.
        -13    1    6    6    0    0 -0.32289838946E+02  0.10658300784E+03  0.38182287012E+03  0.39773266827E+03  0.00000000000E+00 0.  1.
         14    1    6    6    0    0 -0.15488846967E+01  0.45296128372E+02  0.43545915552E+02  0.62852088673E+02  0.00000000000E+00 0. -1.
         -5    1    3    3    0  503 -0.30780023787E+02 -0.20596129202E+02  0.17324050917E+02  0.41156082693E+02  0.47000000000E+01 0.  1.
         13    1    4    4    0    0  0.88108384965E+02 -0.34307556456E+02 -0.55407094686E+02  0.10959033750E+03  0.00000000000E+00 0. -1.
        -14    1    4    4    0    0  0.16736824184E+02 -0.73027501367E+02 -0.65189207838E+02  0.99311479992E+02  0.00000000000E+00 0.  1.
<mgrwt>
<rscale>  2 0.22765730E+03</rscale>
<asrwt>0</asrwt>
<pdfrwt beam="1">  1       21 0.10781438E+00 0.22773624E+03</pdfrwt>
<pdfrwt beam="2">  1       21 0.30349843E-01 0.22773624E+03</pdfrwt>
<totfact> 0.69642577E+03</totfact>
</mgrwt>
</event>
<event>
12    1  0.1074575E-001  0.2668046E+03  0.7546771E-02  0.1104212E+00
         21   -1    0    0  501  502  0.00000000000E+00  0.00000000000E+00  0.75406994959E+03  0.75406994959E+03  0.00000000000E+00 0. -1.
         21   -1    0    0  502  503 -0.00000000000E+00 -0.00000000000E+00 -0.11760289847E+03  0.11760289847E+03  0.00000000000E+00 0.  1.
         -6    2    1    2    0  503 -0.76237072193E+02  0.17791312266E+03  0.11760538459E+03  0.29157457394E+03  0.18362879756E+03 0.  0.
        -24    2    3    3    0    0 -0.88730615755E+02  0.13529529667E+03  0.18875792429E+02  0.18321411025E+03  0.83864027936E+02 0.  0.
          6    2    1    2  501    0  0.76237072193E+02 -0.17791312266E+03  0.51886166653E+03  0.58009827412E+03  0.17271771262E+03 0.  0.
         24    2    5    5    0    0 -0.26656502217E+02 -0.70879729397E+02  0.23522663597E+03  0.25991995585E+03  0.80574859795E+02 0.  0.
          5    1    5    5  501    0  0.10289357441E+03 -0.10703339326E+03  0.28363503055E+03  0.32017831826E+03  0.47000000000E+01 0. -1.
        -11    1    6    6    0    0 -0.36719523565E+02  0.16223298718E+00  0.57129901646E+02  0.67912998701E+02  0.00000000000E+00 0.  1.
         12    1    6    6    0    0  0.10063021348E+02 -0.71041962385E+02  0.17809673432E+03  0.19200695715E+03  0.00000000000E+00 0. -1.
         -5    1    3    3    0  503  0.12493543562E+02  0.42617825992E+02  0.98729592160E+02  0.10836046369E+03  0.47000000000E+01 0.  1.
         11    1    4    4    0    0  0.12614813684E+02 -0.66899048199E-01 -0.22111341966E+01  0.12807307063E+02  0.00000000000E+00 0. -1.
        -12    1    4    4    0    0 -0.10134542944E+03  0.13536219572E+03  0.21086926625E+02  0.17040680318E+03  0.00000000000E+00 0.  1.
<mgrwt>
<rscale>  2 0.26493793E+03</rscale>
<asrwt>0</asrwt>
<pdfrwt beam="1">  1       21 0.11601076E+00 0.26680462E+03</pdfrwt>
<pdfrwt beam="2">  1       21 0.18092754E-01 0.26680462E+03</pdfrwt>
<totfact> 0.15284138E+04</totfact>
</mgrwt>
</event>
<event>
12    1  0.1074575E-001  0.1992434E+03  0.7546771E-02  0.1151085E+00
         21   -1    0    0  503  502  0.00000000000E+00  0.00000000000E+00  0.51138713089E+02  0.51138713089E+02  0.00000000000E+00 0. -1.
         21   -1    0    0  501  503 -0.00000000000E+00 -0.00000000000E+00 -0.12833597382E+04  0.12833597382E+04  0.00000000000E+00 0. -1.
          6    2    1    2  501    0  0.19645917438E+02 -0.97563203461E+02 -0.10377276238E+04  0.10560642273E+04  0.16878533792E+03 0.  0.
         24    2    3    3    0    0  0.77145908821E+02 -0.62174599597E+02 -0.62835678124E+03  0.64113630704E+03  0.80039662628E+02 0.  0.
         -6    2    1    2    0  502 -0.19645917438E+02  0.97563203461E+02 -0.19449340128E+03  0.27843422393E+03  0.17260762780E+03 0.  0.
        -24    2    5    5    0    0  0.81275856174E+01 -0.14645391789E+02 -0.97362347444E+02  0.12737573215E+03  0.80402769184E+02 0.  0.
          5    1    3    3  501    0 -0.57499991383E+02 -0.35388603864E+02 -0.40937084257E+03  0.41492792030E+03  0.47000000000E+01 0. -1.
        -13    1    4    4    0    0  0.23751947362E+02 -0.22786189626E+01 -0.34885375558E+02  0.42265074657E+02  0.00000000000E+00 0.  1.
         14    1    4    4    0    0  0.53393961459E+02 -0.59895980634E+02 -0.59347140568E+03  0.59887123239E+03  0.00000000000E+00 0. -1.
         -5    1    5    5    0  502 -0.27773503056E+02  0.11220859525E+03 -0.97131053835E+02  0.15105849178E+03  0.47000000000E+01 0.  1.
         13    1    6    6    0    0 -0.83789379329E+01  0.29861709870E+02 -0.20979604311E+02  0.37444253422E+02  0.00000000000E+00 0. -1.
        -14    1    6    6    0    0  0.16506523550E+02 -0.44507101660E+02 -0.76382743133E+02  0.89931478729E+02  0.00000000000E+00 0.  1.
<mgrwt>
<rscale>  2 0.19841272E+03</rscale>
<asrwt>0</asrwt>
<pdfrwt beam="1">  1       21 0.78674943E-02 0.19924340E+03</pdfrwt>
<pdfrwt beam="2">  1       21 0.19743996E+00 0.19924340E+03</pdfrwt>
<totfact> 0.17142044E+04</totfact>
</mgrwt>
</event>
<event>
12    1  0.1074575E-001  0.1761519E+03  0.7546771E-02  0.1171608E+00
         21   -1    0    0  501  502  0.00000000000E+00  0.00000000000E+00  0.59839470403E+02  0.59839470403E+02  0.00000000000E+00 0. -1.
         21   -1    0    0  502  503 -0.00000000000E+00 -0.00000000000E+00 -0.57327296102E+03  0.57327296102E+03  0.00000000000E+00 0. -1.
         -6    2    1    2    0  503 -0.28105424501E+02  0.22029967874E+02 -0.35474488994E+03  0.39602268292E+03  0.17237979604E+03 0.  0.
        -24    2    3    3    0    0 -0.46081283269E+02  0.29685067499E+02 -0.87087361347E+02  0.12761185106E+03  0.75471107884E+02 0.  0.
          6    2    1    2  501    0  0.28105424501E+02 -0.22029967874E+02 -0.15868860068E+03  0.23708974850E+03  0.17249418103E+03 0.  0.
         24    2    5    5    0    0 -0.65000052747E+01  0.50316697750E+02 -0.90231740914E+02  0.13154351481E+03  0.81165935465E+02 0.  0.
          5    1    5    5  501    0  0.34605429776E+02 -0.72346665625E+02 -0.68456859771E+02  0.10554623369E+03  0.47000000000E+01 0. -1.
        -11    1    6    6    0    0 -0.40451703324E+02  0.15018446988E+02 -0.24656881254E+02  0.49697644259E+02  0.00000000000E+00 0.  1.
         12    1    6    6    0    0  0.33951698049E+02  0.35298250762E+02 -0.65574859660E+02  0.81845870554E+02  0.00000000000E+00 0. -1.
         -5    1    3    3    0  503  0.17975858768E+02 -0.76550996244E+01 -0.26765752859E+03  0.26841083186E+03  0.47000000000E+01 0.  1.
         11    1    4    4    0    0 -0.64443543711E+02  0.19443281440E+02 -0.81793768448E+02  0.10593031708E+03  0.00000000000E+00 0. -1.
        -12    1    4    4    0    0  0.18362260442E+02  0.10241786059E+02 -0.52935928992E+01  0.21681533986E+02  0.00000000000E+00 0.  1.
<mgrwt>
<rscale>  2 0.17612385E+03</rscale>
<asrwt>0</asrwt>
<pdfrwt beam="1">  1       21 0.92060727E-02 0.17615186E+03</pdfrwt>
<pdfrwt beam="2">  1       21 0.88195837E-01 0.17615186E+03</pdfrwt>
<totfact> 0.10402847E+05</totfact>
</mgrwt>
</event>
<event>
12    1  0.1074575E-001  0.2015919E+03  0.7546771E-02  0.1148445E+00
         21   -1    0    0  501  502  0.00000000000E+00  0.00000000000E+00  0.22530130847E+04  0.22530130847E+04  0.00000000000E+00 0. -1.
         21   -1    0    0  502  503 -0.00000000000E+00 -0.00000000000E+00 -0.10309111924E+03  0.10309111924E+03  0.00000000000E+00 0. -1.
         -6    2    1    2    0  503  0.53395616376E+02 -0.88690889210E+02  0.47136294061E+01  0.20144458206E+03  0.17274413351E+03 0.  0.
        -24    2    3    3    0    0  0.23925815815E+02  0.32017382349E+01  0.39567159083E+02  0.98733420763E+02  0.87178165314E+02 0.  0.
          6    2    1    2  501    0 -0.53395616376E+02  0.88690889210E+02  0.21452083361E+04  0.21546596219E+04  0.17298010125E+03 0.  0.
         24    2    5    5    0    0 -0.26882121463E+02  0.10838471651E+03  0.20313700247E+04  0.20360338937E+04  0.80622230053E+02 0.  0.
          5    1    5    5  501    0 -0.26513494913E+02 -0.19693827301E+02  0.11383831138E+03  0.11862572817E+03  0.47000000000E+01 0. -1.
        -11    1    6    6    0    0 -0.34809636793E-01  0.12422624210E+02  0.34315554497E+02  0.36494932311E+02  0.00000000000E+00 0.  1.
         12    1    6    6    0    0 -0.26847311827E+02  0.95962092301E+02  0.19970544702E+04  0.19995389614E+04  0.00000000000E+00 0. -1.
         -5    1    3    3    0  503  0.29469800562E+02 -0.91892627445E+02 -0.34853529677E+02  0.10271116130E+03  0.47000000000E+01 0.  1.
         13    1    4    4    0    0 -0.20949755388E+01 -0.31556178729E+02 -0.96850669009E+01  0.33075396587E+02  0.00000000000E+00 0. -1.
        -14    1    4    4    0    0  0.26020791353E+02  0.34757916964E+02  0.49252225984E+02  0.65658024176E+02  0.00000000000E+00 0.  1.
<mgrwt>
<rscale>  2 0.20154124E+03</rscale>
<asrwt>0</asrwt>
<pdfrwt beam="1">  1       21 0.34661736E+00 0.20159187E+03</pdfrwt>
<pdfrwt beam="2">  1       21 0.15860174E-01 0.20159187E+03</pdfrwt>
<totfact> 0.64022037E+02</totfact>
</mgrwt>
</event>
<event>
12    1  0.1074575E-001  0.1737272E+03  0.7546771E-02  0.1174079E+00
         21   -1    0    0  501  502  0.00000000000E+00  0.00000000000E+00  0.36643423462E+02  0.36643423462E+02  0.00000000000E+00 0.  1.
         21   -1    0    0  502  503 -0.00000000000E+00 -0.00000000000E+00 -0.84205578207E+03  0.84205578207E+03  0.00000000000E+00 0.  1.
         -6    2    1    2    0  503  0.14471818426E+02  0.97013840030E+01 -0.46945175560E+03  0.50047881355E+03  0.17259936732E+03 0.  0.
        -24    2    3    3    0    0 -0.30049304452E+02 -0.41761169778E+01 -0.43240020120E+03  0.44073249066E+03  0.79716959744E+02 0.  0.
          6    2    1    2  501    0 -0.14471818426E+02 -0.97013840030E+01 -0.33596060301E+03  0.37822039199E+03  0.17285134583E+03 0.  0.
         24    2    5    5    0    0 -0.67062534478E+02 -0.10459338362E+02 -0.27836179963E+03  0.30007904530E+03  0.89192828465E+02 0.  0.
          5    1    5    5  501    0  0.52590716051E+02  0.75795435857E+00 -0.57598803389E+02  0.78141346683E+02  0.47000000000E+01 0. -1.
        -11    1    6    6    0    0 -0.22004171111E+02 -0.23723095311E+02 -0.23142793186E+03  0.23367896020E+03  0.00000000000E+00 0.  1.
         12    1    6    6    0    0 -0.45058363367E+02  0.13263756949E+02 -0.46933867768E+02  0.66400085100E+02  0.00000000000E+00 0. -1.
         -5    1    3    3    0  503  0.44521122878E+02  0.13877500981E+02 -0.37051554392E+02  0.59746322888E+02  0.47000000000E+01 0.  1.
         11    1    4    4    0    0  0.24036166108E+02 -0.16434877584E+02 -0.12282936711E+03  0.12623349756E+03  0.00000000000E+00 0. -1.
        -12    1    4    4    0    0 -0.54085470560E+02  0.12258760606E+02 -0.30957083409E+03  0.31449899310E+03  0.00000000000E+00 0.  1.
<mgrwt>
<rscale>  2 0.17366448E+03</rscale>
<asrwt>0</asrwt>
<pdfrwt beam="1">  1       21 0.56374493E-02 0.17372719E+03</pdfrwt>
<pdfrwt beam="2">  1       21 0.12954705E+00 0.17372719E+03</pdfrwt>
<totfact> 0.96475498E+04</totfact>
</mgrwt>
</event>
<event>
12    1  0.1074575E-001  0.1739146E+03  0.7546771E-02  0.1175203E+00
         21   -1    0    0  503  502  0.00000000000E+00  0.00000000000E+00  0.26710336764E+03  0.26710336764E+03  0.00000000000E+00 0. -1.
         21   -1    0    0  501  503 -0.00000000000E+00 -0.00000000000E+00 -0.36436483403E+03  0.36436483403E+03  0.00000000000E+00 0. -1.
          6    2    1    2  501    0  0.19001624318E+02  0.44458550203E+02 -0.31276749513E+03  0.35786842545E+03  0.16705891032E+03 0.  0.
         24    2    3    3    0    0  0.16054932097E+02 -0.39325594124E+02 -0.13725361838E+03  0.16330307199E+03  0.77621352517E+02 0.  0.
         -6    2    1    2    0  502 -0.19001624318E+02 -0.44458550203E+02  0.21550602873E+03  0.27359977622E+03  0.16148177828E+03 0.  0.
        -24    2    5    5    0    0 -0.36506044856E+02 -0.78372531293E+02  0.20083183284E+03  0.23244172868E+03  0.78871967008E+02 0.  0.
          5    1    3    3  501    0  0.29466922212E+01  0.83784144328E+02 -0.17551387675E+03  0.19456535346E+03  0.47000000000E+01 0. -1.
        -13    1    4    4    0    0  0.30845575507E+01 -0.33122574647E+02 -0.92961014154E+01  0.34540366936E+02  0.00000000000E+00 0.  1.
         14    1    4    4    0    0  0.12970374546E+02 -0.62030194774E+01 -0.12795751696E+03  0.12876270506E+03  0.00000000000E+00 0. -1.
         -5    1    5    5    0  502  0.17504420538E+02  0.33913981090E+02  0.14674195888E+02  0.41158047533E+02  0.47000000000E+01 0.  1.
         13    1    6    6    0    0 -0.45631068925E+02 -0.12017191684E+02  0.10902564981E+03  0.11879898848E+03  0.00000000000E+00 0. -1.
        -14    1    6    6    0    0  0.91250240689E+01 -0.66355339609E+02  0.91806183032E+02  0.11364274021E+03  0.00000000000E+00 0.  1.
<mgrwt>
<rscale>  2 0.17256140E+03</rscale>
<asrwt>0</asrwt>
<pdfrwt beam="1">  1       21 0.41092826E-01 0.17391465E+03</pdfrwt>
<pdfrwt beam="2">  1       21 0.56056128E-01 0.17391465E+03</pdfrwt>
<totfact> 0.17289542E+04</totfact>
</mgrwt>
</event>
<event>
12    1  0.1074575E-001  0.2374386E+03  0.7546771E-02  0.1121629E+00
         21   -1    0    0  501  502  0.00000000000E+00  0.00000000000E+00  0.63607034246E+02  0.63607034246E+02  0.00000000000E+00 0.  1.
         21   -1    0    0  502  503 -0.00000000000E+00 -0.00000000000E+00 -0.89750596671E+03  0.89750596671E+03  0.00000000000E+00 0.  1.
         -6    2    1    2    0  503 -0.85970682816E+02 -0.13670473936E+03 -0.47707347906E+03  0.53289416021E+03  0.17406302737E+03 0.  0.
        -24    2    3    3    0    0 -0.11653696899E+03 -0.84549014647E+02 -0.41388984909E+03  0.44532259766E+03  0.79233880303E+02 0.  0.
          6    2    1    2  501    0  0.85970682816E+02  0.13670473936E+03 -0.35682545340E+03  0.42821884074E+03  0.17311218126E+03 0.  0.
         24    2    5    5    0    0  0.96286704157E+02  0.14746344902E+03 -0.23300403734E+03  0.30341498181E+03  0.82177682943E+02 0.  0.
          5    1    5    5  501    0 -0.10316021341E+02 -0.10758709652E+02 -0.12382141606E+03  0.12480385894E+03  0.47000000000E+01 0. -1.
        -11    1    6    6    0    0  0.27271675491E+02  0.78835777767E+02 -0.16435087784E+03  0.18430961773E+03  0.00000000000E+00 0.  1.
         12    1    6    6    0    0  0.69015028665E+02  0.68627671249E+02 -0.68653159502E+02  0.11910536408E+03  0.00000000000E+00 0. -1.
         -5    1    3    3    0  503  0.30566286177E+02 -0.52155724717E+02 -0.63183629966E+02  0.87571562548E+02  0.47000000000E+01 0.  1.
         13    1    4    4    0    0 -0.10137855869E+00  0.25325191491E+00  0.36368846635E+01  0.36471007938E+01  0.00000000000E+00 0. -1.
        -14    1    4    4    0    0 -0.11643559043E+03 -0.84802266562E+02 -0.41752673376E+03  0.44167549687E+03  0.00000000000E+00 0.  1.
<mgrwt>
<rscale>  2 0.23726435E+03</rscale>
<asrwt>0</asrwt>
<pdfrwt beam="1">  1       21 0.97856969E-02 0.23743858E+03</pdfrwt>
<pdfrwt beam="2">  1       21 0.13807785E+00 0.23743858E+03</pdfrwt>
<totfact> 0.30475800E+04</totfact>
</mgrwt>
</event>
<event>
12    1  0.1074575E-001  0.1843712E+03  0.7546771E-02  0.1163740E+00
         21   -1    0    0  501  502  0.00000000000E+00  0.00000000000E+00  0.57655247474E+02  0.57655247474E+02  0.00000000000E+00 0. -1.
         21   -1    0    0  502  503 -0.00000000000E+00 -0.00000000000E+00 -0.15437955984E+04  0.15437955984E+04  0.00000000000E+00 0. -1.
         -6    2    1    2    0  503 -0.38426793798E+02  0.51692261171E+02 -0.13727155021E+04  0.13849839011E+04  0.17229001182E+03 0.  0.
        -24    2    3    3    0    0 -0.36793335664E+02  0.71233003157E+02 -0.13492737444E+04  0.13540627953E+04  0.80737387647E+02 0.  0.
          6    2    1    2  501    0  0.38426793798E+02 -0.51692261171E+02 -0.11342484878E+03  0.21646694475E+03  0.17275425756E+03 0.  0.
         24    2    5    5    0    0  0.30670039532E+02 -0.75044750091E+02 -0.14668451608E+02  0.11458258895E+03  0.79634417038E+02 0.  0.
          5    1    5    5  501    0  0.77567542661E+01  0.23352488920E+02 -0.98756397169E+02  0.10188435580E+03  0.47000000000E+01 0. -1.
        -11    1    6    6    0    0  0.18606646692E+02  0.10806379154E+02 -0.17660206047E+02  0.27836451088E+02  0.00000000000E+00 0.  1.
         12    1    6    6    0    0  0.12063392841E+02 -0.85851129245E+02  0.29917544397E+01  0.86746137863E+02  0.00000000000E+00 0. -1.
         -5    1    3    3    0  503 -0.16334581348E+01 -0.19540741986E+02 -0.23441757659E+02  0.30921105818E+02  0.47000000000E+01 0.  1.
         11    1    4    4    0    0 -0.21398644421E+02  0.88053036742E+02 -0.10319276267E+04  0.10358985790E+04  0.00000000000E+00 0. -1.
        -12    1    4    4    0    0 -0.15394691243E+02 -0.16820033584E+02 -0.31734611777E+03  0.31816421626E+03  0.00000000000E+00 0.  1.
<mgrwt>
<rscale>  2 0.18426238E+03</rscale>
<asrwt>0</asrwt>
<pdfrwt beam="1">  1       21 0.88700398E-02 0.18437121E+03</pdfrwt>
<pdfrwt beam="2">  1       21 0.23750697E+00 0.18437121E+03</pdfrwt>
<totfact> 0.79635974E+03</totfact>
</mgrwt>
</event>
<event>
12    1  0.1074575E-001  0.2163925E+03  0.7546771E-02  0.1136699E+00
         21   -1    0    0  503  502  0.00000000000E+00  0.00000000000E+00  0.41899201066E+02  0.41899201066E+02  0.00000000000E+00 0.  1.
         21   -1    0    0  501  503 -0.00000000000E+00 -0.00000000000E+00 -0.13741111598E+04  0.13741111598E+04  0.00000000000E+00 0.  1.
          6    2    1    2  501    0  0.64549790467E+02 -0.11140273267E+03 -0.97422509624E+03  0.99796805951E+03  0.17392085951E+03 0.  0.
         24    2    3    3    0    0  0.32655161231E+02 -0.78567809476E+02 -0.29849854258E+03  0.32067649389E+03  0.80577748580E+02 0.  0.
         -6    2    1    2    0  502 -0.64549790467E+02  0.11140273267E+03 -0.35798686248E+03  0.41804230134E+03  0.17328452817E+03 0.  0.
        -24    2    5    5    0    0 -0.82941595553E+02  0.77420201818E+02 -0.35251182309E+03  0.37873407124E+03  0.79383344417E+02 0.  0.
          5    1    3    3  501    0  0.31894629236E+02 -0.32834923195E+02 -0.67572655366E+03  0.67729156563E+03  0.47000000000E+01 0. -1.
        -13    1    4    4    0    0  0.10237293343E+02 -0.14973030605E+02 -0.20279067691E+03  0.20360022707E+03  0.00000000000E+00 0.  1.
         14    1    4    4    0    0  0.22417867888E+02 -0.63594778871E+02 -0.95707865670E+02  0.11707626681E+03  0.00000000000E+00 0. -1.
         -5    1    5    5    0  502  0.18391805086E+02  0.33982530853E+02 -0.54750393863E+01  0.39308230102E+02  0.47000000000E+01 0.  1.
         13    1    6    6    0    0  0.95607478699E+01 -0.39281814572E+01 -0.86651909801E+01  0.13487922157E+02  0.00000000000E+00 0. -1.
        -14    1    6    6    0    0 -0.92502343423E+02  0.81348383276E+02 -0.34384663211E+03  0.36524614908E+03  0.00000000000E+00 0.  1.
<mgrwt>
<rscale>  2 0.21626460E+03</rscale>
<asrwt>0</asrwt>
<pdfrwt beam="1">  1       21 0.64460305E-02 0.21639249E+03</pdfrwt>
<pdfrwt beam="2">  1       21 0.21140173E+00 0.21639249E+03</pdfrwt>
<totfact> 0.19471950E+04</totfact>
</mgrwt>
</event>
<event>
12    1  0.1074575E-001  0.2178174E+03  0.7546771E-02  0.1135540E+00
         21   -1    0    0  501  502  0.00000000000E+00  0.00000000000E+00  0.59889724617E+03  0.59889724617E+03  0.00000000000E+00 0.  1.
         21   -1    0    0  502  503 -0.00000000000E+00 -0.00000000000E+00 -0.11153399378E+03  0.11153399378E+03  0.00000000000E+00 0.  1.
         -6    2    1    2    0  503 -0.70013491166E+02  0.11283712465E+03  0.52414780215E+02  0.22403507779E+03  0.17265659921E+03 0.  0.
        -24    2    3    3    0    0 -0.58347090999E+02  0.85892893427E+01  0.64505091645E+02  0.11833748232E+03  0.79779032039E+02 0.  0.
          6    2    1    2  501    0  0.70013491166E+02 -0.11283712465E+03  0.43494847217E+03  0.48639616216E+03  0.17253100440E+03 0.  0.
         24    2    5    5    0    0  0.24664489009E+02 -0.10736634865E+03  0.41459409818E+03  0.43616816273E+03  0.78857657145E+02 0.  0.
          5    1    5    5  501    0  0.45349002156E+02 -0.54707759974E+01  0.20354373988E+02  0.50227999433E+02  0.47000000000E+01 0. -1.
        -13    1    6    6    0    0  0.40268984268E+01 -0.93619179970E+01  0.57508181601E+00  0.10207455051E+02  0.00000000000E+00 0.  1.
         14    1    6    6    0    0  0.20637590582E+02 -0.98004430651E+02  0.41401901637E+03  0.42596070768E+03  0.00000000000E+00 0. -1.
         -5    1    3    3    0  503 -0.11666400167E+02  0.10424783530E+03 -0.12090311430E+02  0.10569759547E+03  0.47000000000E+01 0.  1.
         13    1    4    4    0    0 -0.19560324997E+02  0.27185880196E+02  0.67361778361E+02  0.75228236587E+02  0.00000000000E+00 0. -1.
        -14    1    4    4    0    0 -0.38786766002E+02 -0.18596590853E+02 -0.28566867162E+01  0.43109245728E+02  0.00000000000E+00 0.  1.
<mgrwt>
<rscale>  2 0.21779248E+03</rscale>
<asrwt>0</asrwt>
<pdfrwt beam="1">  1       21 0.92138036E-01 0.21781737E+03</pdfrwt>
<pdfrwt beam="2">  1       21 0.17159076E-01 0.21781737E+03</pdfrwt>
<totfact> 0.30088484E+04</totfact>
</mgrwt>
</event>
<event>
12    1  0.1074575E-001  0.1837581E+03  0.7546771E-02  0.1164974E+00
         21   -1    0    0  501  502  0.00000000000E+00  0.00000000000E+00  0.48785740671E+03  0.48785740671E+03  0.00000000000E+00 0.  1.
         21   -1    0    0  502  503 -0.00000000000E+00 -0.00000000000E+00 -0.74455213473E+02  0.74455213473E+02  0.00000000000E+00 0.  1.
         -6    2    1    2    0  503  0.50037540289E+02 -0.29448846716E+02  0.12568509407E+03  0.22262923807E+03  0.17434461495E+03 0.  0.
        -24    2    3    3    0    0  0.53927071970E+02  0.22590139471E+02  0.13721415355E+03  0.16898043797E+03  0.79424309808E+02 0.  0.
          6    2    1    2  501    0 -0.50037540289E+02  0.29448846716E+02  0.28771709917E+03  0.33968338211E+03  0.17097567346E+03 0.  0.
         24    2    5    5    0    0 -0.43780466623E+02  0.25166436657E+02  0.60039492263E+02  0.11183107755E+03  0.79695485962E+02 0.  0.
          5    1    5    5  501    0 -0.62570736654E+01  0.42824100593E+01  0.22767760691E+03  0.22785230456E+03  0.47000000000E+01 0. -1.
        -13    1    6    6    0    0 -0.16321059703E+02  0.48409731866E+02  0.13190289354E+02  0.52762324270E+02  0.00000000000E+00 0.  1.
         14    1    6    6    0    0 -0.27459406921E+02 -0.23243295209E+02  0.46849202909E+02  0.59068753278E+02  0.00000000000E+00 0. -1.
         -5    1    3    3    0  503 -0.38895316816E+01 -0.52038986188E+02 -0.11529059484E+02  0.53648800105E+02  0.47000000000E+01 0.  1.
         11    1    4    4    0    0 -0.16496916867E+02  0.82682298809E+01  0.60511610696E+01  0.19419795101E+02  0.00000000000E+00 0. -1.
        -12    1    4    4    0    0  0.70423988837E+02  0.14321909590E+02  0.13116299248E+03  0.14956064287E+03  0.00000000000E+00 0.  1.
<mgrwt>
<rscale>  2 0.18295453E+03</rscale>
<asrwt>0</asrwt>
<pdfrwt beam="1">  1       21 0.75054984E-01 0.18375809E+03</pdfrwt>
<pdfrwt beam="2">  1       21 0.11454649E-01 0.18375809E+03</pdfrwt>
<totfact> 0.10156493E+05</totfact>
</mgrwt>
</event>
<event>
12    1  0.1074575E-001  0.2080414E+03  0.7546771E-02  0.1143627E+00
         21   -1    0    0  503  502  0.00000000000E+00  0.00000000000E+00  0.74106900102E+03  0.74106900102E+03  0.00000000000E+00 0. -1.
         21   -1    0    0  501  503 -0.00000000000E+00 -0.00000000000E+00 -0.60106386007E+02  0.60106386007E+02  0.00000000000E+00 0. -1.
          6    2    1    2  501    0 -0.10561173323E+03  0.36751457229E+02  0.26244026226E+03  0.33489715299E+03  0.17543290461E+03 0.  0.
         24    2    3    3    0    0 -0.17973046794E+02  0.12113025751E+02  0.21854763410E+03  0.23372282585E+03  0.79959584464E+02 0.  0.
         -6    2    1    2    0  502  0.10561173323E+03 -0.36751457229E+02  0.41852235275E+03  0.46627823404E+03  0.17248166274E+03 0.  0.
        -24    2    5    5    0    0  0.12047599124E+03 -0.26981841181E+02  0.42266320574E+03  0.44742012630E+03  0.79360567774E+02 0.  0.
          5    1    3    3  501    0 -0.87638686433E+02  0.24638431478E+02  0.43892628161E+02  0.10117432714E+03  0.47000000000E+01 0. -1.
        -11    1    4    4    0    0 -0.48871888724E+02  0.15983380907E+02  0.14532880712E+03  0.15415703731E+03  0.00000000000E+00 0.  1.
         12    1    4    4    0    0  0.30898841930E+02 -0.38703551564E+01  0.73218826976E+02  0.79565788536E+02  0.00000000000E+00 0. -1.
         -5    1    5    5    0  502 -0.14864258012E+02 -0.97696160482E+01 -0.41408529861E+01  0.18858107737E+02  0.47000000000E+01 0.  1.
         13    1    6    6    0    0  0.92034361201E+02 -0.53189128093E+02  0.33845899756E+03  0.35475893226E+03  0.00000000000E+00 0. -1.
        -14    1    6    6    0    0  0.28441630037E+02  0.26207286912E+02  0.84204208173E+02  0.92661194038E+02  0.00000000000E+00 0.  1.
<mgrwt>
<rscale>  2 0.20741794E+03</rscale>
<asrwt>0</asrwt>
<pdfrwt beam="1">  1       21 0.11401061E+00 0.20804137E+03</pdfrwt>
<pdfrwt beam="2">  1       21 0.92471368E-02 0.20804137E+03</pdfrwt>
<totfact> 0.55332447E+04</totfact>
</mgrwt>
</event>
<event>
12    1  0.1074575E-001  0.1882929E+03  0.7546771E-02  0.1160618E+00
         21   -1    0    0  501  502  0.00000000000E+00  0.00000000000E+00  0.21867027930E+03  0.21867027930E+03  0.00000000000E+00 0.  1.
         21   -1    0    0  502  503 -0.00000000000E+00 -0.00000000000E+00 -0.18852765122E+03  0.18852765122E+03  0.00000000000E+00 0.  1.
         -6    2    1    2    0  503  0.65197170647E+02  0.13770311488E+02  0.94545800693E+02  0.21069674794E+03  0.17610769041E+03 0.  0.
        -24    2    3    3    0    0  0.10138198709E+03  0.27316120624E+02  0.30771557710E+02  0.13598346964E+03  0.80747368363E+02 0.  0.
          6    2    1    2  501    0 -0.65197170647E+02 -0.13770311488E+02 -0.64403172619E+02  0.19650118258E+03  0.17327623488E+03 0.  0.
         24    2    5    5    0    0 -0.75825757324E+02  0.39677582386E+02 -0.12736491854E+02  0.12126036842E+03  0.84958829484E+02 0.  0.
          5    1    5    5  501    0  0.10628586677E+02 -0.53447893875E+02 -0.51666680764E+02  0.75240814161E+02  0.47000000000E+01 0. -1.
        -13    1    6    6    0    0 -0.16865604225E+02  0.55694564365E+02 -0.15094005448E+02  0.60117901711E+02  0.00000000000E+00 0.  1.
         14    1    6    6    0    0 -0.58960153099E+02 -0.16016981978E+02  0.23575135939E+01  0.61142466711E+02  0.00000000000E+00 0. -1.
         -5    1    3    3    0  503 -0.36184816445E+02 -0.13545809136E+02  0.63774242982E+02  0.74713278300E+02  0.47000000000E+01 0.  1.
         13    1    4    4    0    0 -0.37632066307E+01  0.11776223245E+02 -0.15697965239E+02  0.19981673371E+02  0.00000000000E+00 0. -1.
        -14    1    4    4    0    0  0.10514519372E+03  0.15539897380E+02  0.46469522949E+02  0.11600179626E+03  0.00000000000E+00 0.  1.
<mgrwt>
<rscale>  2 0.18762799E+03</rscale>
<asrwt>0</asrwt>
<pdfrwt beam="1">  1       21 0.33641582E-01 0.18829289E+03</pdfrwt>
<pdfrwt beam="2">  1       21 0.29004254E-01 0.18829289E+03</pdfrwt>
<totfact> 0.97011186E+04</totfact>
</mgrwt>
</event>
<event>
12    1  0.1074575E-001  0.2382155E+03  0.7546771E-02  0.1121031E+00
         21   -1    0    0  503  502  0.00000000000E+00  0.00000000000E+00  0.15829757133E+03  0.15829757133E+03  0.00000000000E+00 0.  1.
         21   -1    0    0  501  503 -0.00000000000E+00 -0.00000000000E+00 -0.36852449416E+03  0.36852449416E+03  0.00000000000E+00 0. -1.
          6    2    1    2  501    0  0.73277674978E+02 -0.14528883418E+03 -0.14950185021E+03  0.28124262069E+03  0.17397742809E+03 0.  0.
         24    2    3    3    0    0  0.53675093803E+01 -0.13069214914E+03 -0.14377069184E+03  0.21138712712E+03  0.83097880085E+02 0.  0.
         -6    2    1    2    0  502 -0.73277674978E+02  0.14528883418E+03 -0.60725072621E+02  0.24557944480E+03  0.17361816228E+03 0.  0.
        -24    2    5    5    0    0 -0.10384869344E+03  0.65008527537E+02 -0.13788146587E+02  0.14757597634E+03  0.81104229381E+02 0.  0.
          5    1    3    3  501    0  0.67910165598E+02 -0.14596685049E+02 -0.57311583696E+01  0.69855493572E+02  0.47000000000E+01 0. -1.
        -13    1    4    4    0    0  0.34346595617E+01  0.58458629266E+01  0.57540151568E+01  0.88926762050E+01  0.00000000000E+00 0.  1.
         14    1    4    4    0    0  0.19328498186E+01 -0.13653801206E+03 -0.14952470700E+03  0.20249445091E+03  0.00000000000E+00 0. -1.
         -5    1    5    5    0  502  0.30571018461E+02  0.80280306647E+02 -0.46936926035E+02  0.98003468463E+02  0.47000000000E+01 0.  1.
         13    1    6    6    0    0 -0.98125063733E+02  0.67084138672E+02 -0.36277253276E+02  0.12427730645E+03  0.00000000000E+00 0. -1.
        -14    1    6    6    0    0 -0.57236297064E+01 -0.20756111351E+01  0.22489106690E+02  0.23298669882E+02  0.00000000000E+00 0.  1.
<mgrwt>
<rscale>  2 0.23814987E+03</rscale>
<asrwt>0</asrwt>
<pdfrwt beam="1">  1       21 0.24353473E-01 0.23821547E+03</pdfrwt>
<pdfrwt beam="2">  1       21 0.56696075E-01 0.23821547E+03</pdfrwt>
<totfact> 0.45584734E+04</totfact>
</mgrwt>
</event>
<event>
12    1  0.1074575E-001  0.2232077E+03  0.7546771E-02  0.1131543E+00
         21   -1    0    0  503  502  0.00000000000E+00  0.00000000000E+00  0.84898046333E+03  0.84898046333E+03  0.00000000000E+00 0.  1.
         21   -1    0    0  501  503 -0.00000000000E+00 -0.00000000000E+00 -0.58974640063E+02  0.58974640063E+02  0.00000000000E+00 0.  1.
          6    2    1    2  501    0  0.92791719177E+02  0.10307145660E+03  0.42891425862E+03  0.48344501297E+03  0.17469290485E+03 0.  0.
         24    2    3    3    0    0  0.10996091312E+03  0.11019260674E+03  0.25969181206E+03  0.31313993842E+03  0.79893496510E+02 0.  0.
         -6    2    1    2    0  502 -0.92791719177E+02 -0.10307145660E+03  0.36109156464E+03  0.42451009042E+03  0.17489331176E+03 0.  0.
        -24    2    5    5    0    0 -0.17259691671E+02  0.24560579353E+02  0.15941445580E+03  0.17412884110E+03  0.63299017127E+02 0.  0.
          5    1    3    3  501    0 -0.17169193942E+02 -0.71211501439E+01  0.16922244656E+03  0.17030507456E+03  0.47000000000E+01 0. -1.
        -13    1    4    4    0    0  0.99330145814E+02  0.80620379318E+02  0.24900811772E+03  0.27994850619E+03  0.00000000000E+00 0.  1.
         14    1    4    4    0    0  0.10630767305E+02  0.29572227424E+02  0.10683694344E+02  0.33191432225E+02  0.00000000000E+00 0. -1.
         -5    1    5    5    0  502 -0.75532027506E+02 -0.12763203595E+03  0.20167710884E+03  0.25038124932E+03  0.47000000000E+01 0.  1.
         11    1    6    6    0    0 -0.21608644951E+02  0.33830269647E+02  0.49466869161E+02  0.63705508597E+02  0.00000000000E+00 0. -1.
        -12    1    6    6    0    0  0.43489532801E+01 -0.92696902940E+01  0.10994758664E+03  0.11042333250E+03  0.00000000000E+00 0.  1.
<mgrwt>
<rscale>  2 0.22316849E+03</rscale>
<asrwt>0</asrwt>
<pdfrwt beam="1">  1       21 0.13061237E+00 0.22320775E+03</pdfrwt>
<pdfrwt beam="2">  1       21 0.90730222E-02 0.22320775E+03</pdfrwt>
<totfact> 0.40455629E+04</totfact>
</mgrwt>
</event>
<event>
12    1  0.1074575E-001  0.2092265E+03  0.7546771E-02  0.1143552E+00
         21   -1    0    0  503  502  0.00000000000E+00  0.00000000000E+00  0.78770262510E+03  0.78770262510E+03  0.00000000000E+00 0. -1.
         21   -1    0    0  501  503 -0.00000000000E+00 -0.00000000000E+00 -0.61719352364E+02  0.61719352364E+02  0.00000000000E+00 0.  1.
          6    2    1    2  501    0  0.58069851976E+02 -0.86764834009E+02  0.21597394084E+03  0.30069999811E+03  0.18131602690E+03 0.  0.
         24    2    3    3    0    0 -0.16116054136E+02 -0.31080639970E+00  0.39374168631E+02  0.90491965196E+02  0.79866431047E+02 0.  0.
         -6    2    1    2    0  502 -0.58069851976E+02  0.86764834009E+02  0.51000933190E+03  0.54872197936E+03  0.17345330173E+03 0.  0.
        -24    2    5    5    0    0 -0.15993124389E+02  0.85667896701E+02  0.48555356393E+03  0.49981565193E+03  0.80365750874E+02 0.  0.
          5    1    3    3  501    0  0.74185906112E+02 -0.86454027609E+02  0.17659977221E+03  0.21020803291E+03  0.47000000000E+01 0. -1.
        -11    1    4    4    0    0 -0.41885565671E+02 -0.22158754824E+02  0.19095765532E+02  0.51088739348E+02  0.00000000000E+00 0.  1.
         12    1    4    4    0    0  0.25769511534E+02  0.21847948424E+02  0.20278403099E+02  0.39403225849E+02  0.00000000000E+00 0. -1.
         -5    1    5    5    0  502 -0.42076727587E+02  0.10969373074E+01  0.24455767966E+02  0.48906327430E+02  0.47000000000E+01 0.  1.
         13    1    6    6    0    0  0.99483395296E+01  0.31665326950E+02  0.49079413295E+02  0.59249060749E+02  0.00000000000E+00 0. -1.
        -14    1    6    6    0    0 -0.25941463919E+02  0.54002569751E+02  0.43647415064E+03  0.44056659118E+03  0.00000000000E+00 0.  1.
<mgrwt>
<rscale>  2 0.20751162E+03</rscale>
<asrwt>0</asrwt>
<pdfrwt beam="1">  1       21 0.12118501E+00 0.20922654E+03</pdfrwt>
<pdfrwt beam="2">  1       21 0.94952855E-02 0.20922654E+03</pdfrwt>
<totfact> 0.45411747E+04</totfact>
</mgrwt>
</event>
<event>
12    1  0.1074575E-001  0.1808956E+03  0.7546771E-02  0.1167897E+00
         21   -1    0    0  501  502  0.00000000000E+00  0.00000000000E+00  0.13683822292E+03  0.13683822292E+03  0.00000000000E+00 0. -1.
         21   -1    0    0  502  503 -0.00000000000E+00 -0.00000000000E+00 -0.25859434359E+03  0.25859434359E+03  0.00000000000E+00 0. -1.
         -6    2    1    2    0  503  0.47862363534E+02  0.18257871384E+02 -0.12129142197E+03  0.21453640911E+03  0.16938153997E+03 0.  0.
        -24    2    3    3    0    0  0.80316238213E+02  0.56029139292E+02 -0.81078527548E+02  0.15035627559E+03  0.80270289708E+02 0.  0.
          6    2    1    2  501    0 -0.47862363534E+02 -0.18257871384E+02 -0.46469869575E+00  0.18089615740E+03  0.17349077240E+03 0.  0.
         24    2    5    5    0    0 -0.33632295405E+02 -0.78883224916E+02 -0.30294093460E+01  0.11839338890E+03  0.81572806412E+02 0.  0.
          5    1    5    5  501    0 -0.14230068129E+02  0.60625353532E+02  0.25647106502E+01  0.62502768504E+02  0.47000000000E+01 0. -1.
        -11    1    6    6    0    0  0.10305922231E+02 -0.71793124587E+02 -0.10431771424E+02  0.73275416246E+02  0.00000000000E+00 0.  1.
         12    1    6    6    0    0 -0.43938217636E+02 -0.70901003295E+01  0.74023620784E+01  0.45117972650E+02  0.00000000000E+00 0. -1.
         -5    1    3    3    0  503 -0.32453874680E+02 -0.37771267909E+02 -0.40212894420E+02  0.64180133521E+02  0.47000000000E+01 0.  1.
         13    1    4    4    0    0  0.69457472083E+02  0.72226047013E+02 -0.83851635487E+02  0.13066001328E+03  0.00000000000E+00 0. -1.
        -14    1    4    4    0    0  0.10858766130E+02 -0.16196907721E+02  0.27731079389E+01  0.19696262316E+02  0.00000000000E+00 0.  1.
<mgrwt>
<rscale>  2 0.17990312E+03</rscale>
<asrwt>0</asrwt>
<pdfrwt beam="1">  1       21 0.21052035E-01 0.18089556E+03</pdfrwt>
<pdfrwt beam="2">  1       21 0.39783744E-01 0.18089556E+03</pdfrwt>
<totfact> 0.12822167E+05</totfact>
</mgrwt>
</event>
<event>
12    1  0.1074575E-001  0.2173349E+03  0.7546771E-02  0.1135919E+00
         21   -1    0    0  503  502  0.00000000000E+00  0.00000000000E+00  0.27782699444E+03  0.27782699444E+03  0.00000000000E+00 0. -1.
         21   -1    0    0  501  503 -0.00000000000E+00 -0.00000000000E+00 -0.41219687141E+03  0.41219687141E+03  0.00000000000E+00 0.  1.
          6    2    1    2  501    0 -0.10279230376E+03  0.81683890206E+02 -0.33172654492E+03  0.39658156553E+03  0.17319330785E+03 0.  0.
         24    2    3    3    0    0 -0.12976128772E+03  0.87256093496E+02 -0.32100777595E+03  0.36665903967E+03  0.83314113510E+02 0.  0.
         -6    2    1    2    0  502  0.10279230376E+03 -0.81683890206E+02  0.19735666795E+03  0.29344230033E+03  0.17297460393E+03 0.  0.
        -24    2    5    5    0    0  0.13075447032E+03 -0.27334443842E+02  0.14037338620E+03  0.20974684359E+03  0.80281676099E+02 0.  0.
          5    1    3    3  501    0  0.26968983961E+02 -0.55722032900E+01 -0.10718768966E+02  0.29922525855E+02  0.47000000000E+01 0. -1.
        -11    1    4    4    0    0 -0.98656627437E+02  0.10132196027E+03 -0.23708599468E+03  0.27605984612E+03  0.00000000000E+00 0.  1.
         12    1    4    4    0    0 -0.31104660286E+02 -0.14065866774E+02 -0.83921781275E+02  0.90599193550E+02  0.00000000000E+00 0. -1.
         -5    1    5    5    0  502 -0.27962166555E+02 -0.54349446364E+02  0.56983281754E+02  0.83695456735E+02  0.47000000000E+01 0.  1.
         13    1    6    6    0    0  0.87134685388E+02 -0.18245172215E+02  0.35574236654E+02  0.95869004482E+02  0.00000000000E+00 0. -1.
        -14    1    6    6    0    0  0.43619784929E+02 -0.90892716267E+01  0.10479914954E+03  0.11387783911E+03  0.00000000000E+00 0.  1.
<mgrwt>
<rscale>  2 0.21729128E+03</rscale>
<asrwt>0</asrwt>
<pdfrwt beam="1">  1       21 0.42742615E-01 0.21733485E+03</pdfrwt>
<pdfrwt beam="2">  1       21 0.63414903E-01 0.21733485E+03</pdfrwt>
<totfact> 0.11914361E+04</totfact>
</mgrwt>
</event>
<event>
12    1  0.1074575E-001  0.2209536E+03  0.7546771E-02  0.1133451E+00
         21   -1    0    0  501  502  0.00000000000E+00  0.00000000000E+00  0.32085879261E+03  0.32085879261E+03  0.00000000000E+00 0. -1.
         21   -1    0    0  502  503 -0.00000000000E+00 -0.00000000000E+00 -0.16002304254E+03  0.16002304254E+03  0.00000000000E+00 0. -1.
         -6    2    1    2    0  503 -0.84647698364E+02 -0.10476507911E+03  0.13683517243E+03  0.25862855279E+03  0.17327408712E+03 0.  0.
        -24    2    3    3    0    0 -0.10628432957E+03 -0.12851788132E+03  0.12279051897E+03  0.22324943870E+03  0.83364235744E+02 0.  0.
          6    2    1    2  501    0  0.84647698364E+02  0.10476507911E+03  0.24000577637E+02  0.22225328236E+03  0.17515575683E+03 0.  0.
         24    2    5    5    0    0  0.86556523860E+02  0.15796858009E+02 -0.23714898618E+02  0.12116992737E+03  0.79863523196E+02 0.  0.
          5    1    5    5  501    0 -0.19088254964E+01  0.88968221100E+02  0.47715476255E+02  0.10108335498E+03  0.47000000000E+01 0. -1.
        -11    1    6    6    0    0  0.85682275014E+02 -0.15245705818E+02 -0.11438343773E+02  0.87776531635E+02  0.00000000000E+00 0.  1.
         12    1    6    6    0    0  0.87424884571E+00  0.31042563827E+02 -0.12276554846E+02  0.33393395738E+02  0.00000000000E+00 0. -1.
         -5    1    3    3    0  503  0.21636631209E+02  0.23752802208E+02  0.14044653458E+02  0.35379114087E+02  0.47000000000E+01 0.  1.
         11    1    4    4    0    0 -0.81565868690E+02 -0.67427304449E+02  0.31043253588E+02  0.11028651737E+03  0.00000000000E+00 0. -1.
        -12    1    4    4    0    0 -0.24718460883E+02 -0.61090576868E+02  0.91747265387E+02  0.11296292133E+03  0.00000000000E+00 0.  1.
<mgrwt>
<rscale>  2 0.22058049E+03</rscale>
<asrwt>0</asrwt>
<pdfrwt beam="1">  1       21 0.49362891E-01 0.22095360E+03</pdfrwt>
<pdfrwt beam="2">  1       21 0.24618930E-01 0.22095360E+03</pdfrwt>
<totfact> 0.60265291E+04</totfact>
</mgrwt>
</event>
<event>
12    1  0.1074575E-001  0.2111948E+03  0.7546771E-02  0.1140869E+00
         21   -1    0    0  501  502  0.00000000000E+00  0.00000000000E+00  0.35872035621E+03  0.35872035621E+03  0.00000000000E+00 0.  1.
         21   -1    0    0  502  503 -0.00000000000E+00 -0.00000000000E+00 -0.16784319704E+03  0.16784319704E+03  0.00000000000E+00 0. -1.
         -6    2    1    2    0  503  0.52475839334E+01  0.11804708078E+03 -0.39515228065E+02  0.21485971413E+03  0.17504454602E+03 0.  0.
        -24    2    3    3    0    0  0.13731916811E+02  0.10387604836E+03 -0.91070296811E+02  0.16051988364E+03  0.80585576378E+02 0.  0.
          6    2    1    2  501    0 -0.52475839334E+01 -0.11804708078E+03  0.23039238723E+03  0.31170383912E+03  0.17353956555E+03 0.  0.
         24    2    5    5    0    0  0.48202506749E+02 -0.11230683720E+03  0.12117509381E+03  0.18988278276E+03  0.80223191729E+02 0.  0.
          5    1    5    5  501    0 -0.53450090682E+02 -0.57402435784E+01  0.10921729343E+03  0.12182105636E+03  0.47000000000E+01 0. -1.
        -13    1    6    6    0    0  0.34026514533E+02 -0.10596728104E+03  0.13069921896E+03  0.17166582123E+03  0.00000000000E+00 0.  1.
         14    1    6    6    0    0  0.14175992215E+02 -0.63395561600E+01 -0.95241251500E+01  0.18216961532E+02  0.00000000000E+00 0. -1.
         -5    1    3    3    0  503 -0.84843328779E+01  0.14171032410E+02  0.51555068746E+02  0.54339830487E+02  0.47000000000E+01 0.  1.
         11    1    4    4    0    0  0.18756756350E+02  0.52383844610E+02 -0.93414817648E+02  0.10872999237E+03  0.00000000000E+00 0. -1.
        -12    1    4    4    0    0 -0.50248395384E+01  0.51492203755E+02  0.23445208370E+01  0.51789891271E+02  0.00000000000E+00 0.  1.
<mgrwt>
<rscale>  2 0.21088269E+03</rscale>
<asrwt>0</asrwt>
<pdfrwt beam="1">  1       21 0.55187747E-01 0.21119480E+03</pdfrwt>
<pdfrwt beam="2">  1       21 0.25822030E-01 0.21119480E+03</pdfrwt>
<totfact> 0.43685052E+04</totfact>
</mgrwt>
</event>
<event>
12    1  0.1074575E-001  0.2668740E+03  0.7546771E-02  0.1103124E+00
         21   -1    0    0  503  502  0.00000000000E+00  0.00000000000E+00  0.29338050400E+03  0.29338050400E+03  0.00000000000E+00 0. -1.
         21   -1    0    0  501  503 -0.00000000000E+00 -0.00000000000E+00 -0.33891538505E+03  0.33891538505E+03  0.00000000000E+00 0. -1.
          6    2    1    2  501    0 -0.19960737233E+03 -0.38361047954E+02 -0.19140050685E+03  0.32841417284E+03  0.17293652539E+03 0.  0.
         24    2    3    3    0    0 -0.74590212869E+02 -0.10542595625E+02 -0.16918251631E+02  0.11192097702E+03  0.81026117277E+02 0.  0.
         -6    2    1    2    0  502  0.19960737233E+03  0.38361047954E+02  0.14586562580E+03  0.30388171621E+03  0.17248954626E+03 0.  0.
        -24    2    5    5    0    0  0.18677649543E+03  0.79062962973E+02  0.97851794035E+02  0.23947134958E+03  0.81456382903E+02 0.  0.
          5    1    3    3  501    0 -0.12501715946E+03 -0.27818452328E+02 -0.17448225522E+03  0.21649319582E+03  0.47000000000E+01 0. -1.
        -13    1    4    4    0    0  0.27031121514E+01 -0.28937972432E+02 -0.14383563959E+02  0.32428382259E+02  0.00000000000E+00 0.  1.
         14    1    4    4    0    0 -0.77293325020E+02  0.18395376807E+02 -0.25346876722E+01  0.79492594763E+02  0.00000000000E+00 0. -1.
         -5    1    5    5    0  502  0.12830876897E+02 -0.40701915020E+02  0.48013831763E+02  0.64410366625E+02  0.47000000000E+01 0.  1.
         13    1    6    6    0    0  0.12394765190E+03  0.10800449750E+02  0.42698338302E+02  0.13154017721E+03  0.00000000000E+00 0. -1.
        -14    1    6    6    0    0  0.62828843534E+02  0.68262513223E+02  0.55153455733E+02  0.10793117238E+03  0.00000000000E+00 0.  1.
<mgrwt>
<rscale>  2 0.26680158E+03</rscale>
<asrwt>0</asrwt>
<pdfrwt beam="1">  1       21 0.45135462E-01 0.26687397E+03</pdfrwt>
<pdfrwt beam="2">  1       21 0.52140829E-01 0.26687397E+03</pdfrwt>
<totfact> 0.15779424E+04</totfact>
</mgrwt>
</event>
<event>
12    1  0.1074575E-001  0.1842387E+03  0.7546771E-02  0.1163866E+00
         21   -1    0    0  501  502  0.00000000000E+00  0.00000000000E+00  0.62265577984E+02  0.62265577984E+02  0.00000000000E+00 0. -1.
         21   -1    0    0  502  503 -0.00000000000E+00 -0.00000000000E+00 -0.55067825196E+03  0.55067825196E+03  0.00000000000E+00 0. -1.
         -6    2    1    2    0  503  0.34325033311E+02  0.52660540920E+02 -0.27806058076E+03  0.33331566069E+03  0.17271451186E+03 0.  0.
        -24    2    3    3    0    0  0.28570828841E+02  0.32041849871E+02 -0.29360750941E+03  0.30644489070E+03  0.76551479719E+02 0.  0.
          6    2    1    2  501    0 -0.34325033311E+02 -0.52660540920E+02 -0.21035209322E+03  0.27962816925E+03  0.17318362924E+03 0.  0.
         24    2    5    5    0    0 -0.16260732155E+02 -0.66546752659E+02 -0.22754687294E+03  0.25069900918E+03  0.79871973302E+02 0.  0.
          5    1    5    5  501    0 -0.18064301156E+02  0.13886211738E+02  0.17194779725E+02  0.28929160072E+02  0.47000000000E+01 0. -1.
        -13    1    6    6    0    0 -0.44566439955E+02 -0.22800931064E+02 -0.14163237917E+03  0.15021910950E+03  0.00000000000E+00 0.  1.
         14    1    6    6    0    0  0.28305707800E+02 -0.43745821595E+02 -0.85914493769E+02  0.10047989968E+03  0.00000000000E+00 0. -1.
         -5    1    3    3    0  503  0.57542044697E+01  0.20618691050E+02  0.15546928652E+02  0.26870769996E+02  0.47000000000E+01 0.  1.
         11    1    4    4    0    0 -0.53098722722E+01  0.44374221080E+02 -0.10033385889E+03  0.10983692220E+03  0.00000000000E+00 0. -1.
        -12    1    4    4    0    0  0.33880701114E+02 -0.12332371210E+02 -0.19327365052E+03  0.19660796849E+03  0.00000000000E+00 0.  1.
<mgrwt>
<rscale>  2 0.18412841E+03</rscale>
<asrwt>0</asrwt>
<pdfrwt beam="1">  1       21 0.95793192E-02 0.18423873E+03</pdfrwt>
<pdfrwt beam="2">  1       21 0.84719735E-01 0.18423873E+03</pdfrwt>
<totfact> 0.10603218E+05</totfact>
</mgrwt>
</event>
<event>
12    1  0.1074575E-001  0.2719701E+03  0.7546771E-02  0.1100276E+00
         21   -1    0    0  503  502  0.00000000000E+00  0.00000000000E+00  0.56606006958E+03  0.56606006958E+03  0.00000000000E+00 0. -1.
         21   -1    0    0  501  503 -0.00000000000E+00 -0.00000000000E+00 -0.55434601861E+03  0.55434601861E+03  0.00000000000E+00 0.  1.
          6    2    1    2  501    0  0.10434742961E+03 -0.18262653257E+03 -0.48411907173E+03  0.55528280258E+03  0.17241484495E+03 0.  0.
         24    2    3    3    0    0  0.95385425803E+02 -0.13326168358E+03 -0.46771055064E+03  0.50228718586E+03  0.81744737603E+02 0.  0.
         -6    2    1    2    0  502 -0.10434742961E+03  0.18262653257E+03  0.49583312271E+03  0.56512328561E+03  0.17109355892E+03 0.  0.
        -24    2    5    5    0    0 -0.15949403275E+02  0.11835479712E+03  0.37795810652E+03  0.40430762569E+03  0.79687417038E+02 0.  0.
          5    1    3    3  501    0  0.89620038110E+01 -0.49364848983E+02 -0.16408521089E+02  0.52995616722E+02  0.47000000000E+01 0. -1.
        -11    1    4    4    0    0  0.53726428730E+02 -0.13612701437E+02 -0.16772778918E+03  0.17664780228E+03  0.00000000000E+00 0.  1.
         12    1    4    4    0    0  0.41658997072E+02 -0.11964898215E+03 -0.29998276146E+03  0.32563938358E+03  0.00000000000E+00 0. -1.
         -5    1    5    5    0  502 -0.88398026338E+02  0.64271735447E+02  0.11787501618E+03  0.16081565993E+03  0.47000000000E+01 0.  1.
         13    1    6    6    0    0  0.10886664699E+02  0.83050671275E+01  0.14103627426E+03  0.14169941519E+03  0.00000000000E+00 0. -1.
        -14    1    6    6    0    0 -0.26836067974E+02  0.11004972999E+03  0.23692183226E+03  0.26260821049E+03  0.00000000000E+00 0.  1.
<mgrwt>
<rscale>  2 0.27176090E+03</rscale>
<asrwt>0</asrwt>
<pdfrwt beam="1">  1       21 0.87086165E-01 0.27197006E+03</pdfrwt>
<pdfrwt beam="2">  1       21 0.85284003E-01 0.27197006E+03</pdfrwt>
<totfact> 0.12622390E+03</totfact>
</mgrwt>
</event>
<event>
12    1  0.1074575E-001  0.1924674E+03  0.7546771E-02  0.1157118E+00
         21   -1    0    0  501  502  0.00000000000E+00  0.00000000000E+00  0.52313577024E+03  0.52313577024E+03  0.00000000000E+00 0.  1.
         21   -1    0    0  502  503 -0.00000000000E+00 -0.00000000000E+00 -0.75133566154E+02  0.75133566154E+02  0.00000000000E+00 0.  1.
         -6    2    1    2    0  503  0.67704960441E+02  0.32196338605E+02  0.14346234761E+03  0.24005239761E+03  0.17726573986E+03 0.  0.
        -24    2    3    3    0    0  0.16114640185E+02 -0.71993186012E+01 -0.10139552666E+01  0.81593977055E+02  0.79655741599E+02 0.  0.
          6    2    1    2  501    0 -0.67704960441E+02 -0.32196338605E+02  0.30453985647E+03  0.35821693879E+03  0.17307306308E+03 0.  0.
         24    2    5    5    0    0 -0.34775922754E+01  0.24414264346E+02  0.22862038999E+03  0.24369283399E+03  0.80689309503E+02 0.  0.
          5    1    5    5  501    0 -0.64227368166E+02 -0.56610602950E+02  0.75919466482E+02  0.11452410479E+03  0.47000000000E+01 0. -1.
        -11    1    6    6    0    0 -0.24337495003E+02 -0.20691444279E+02  0.12111495938E+03  0.12525686773E+03  0.00000000000E+00 0.  1.
         12    1    6    6    0    0  0.20859902728E+02  0.45105708624E+02  0.10750543061E+03  0.11843596626E+03  0.00000000000E+00 0. -1.
         -5    1    3    3    0  503  0.51590320256E+02  0.39395657206E+02  0.14447630288E+03  0.15845842055E+03  0.47000000000E+01 0.  1.
         13    1    4    4    0    0 -0.20386548630E+02  0.24312540788E+02 -0.83706783722E+01  0.32814314880E+02  0.00000000000E+00 0. -1.
        -14    1    4    4    0    0  0.36501188815E+02 -0.31511859389E+02  0.73567231056E+01  0.48779662175E+02  0.00000000000E+00 0.  1.
<mgrwt>
<rscale>  2 0.19149649E+03</rscale>
<asrwt>0</asrwt>
<pdfrwt beam="1">  1       21 0.80482424E-01 0.19246742E+03</pdfrwt>
<pdfrwt beam="2">  1       21 0.11559011E-01 0.19246742E+03</pdfrwt>
<totfact> 0.85138122E+04</totfact>
</mgrwt>
</event>
<event>
12    1  0.1074575E-001  0.1807934E+03  0.7546771E-02  0.1170481E+00
         21   -1    0    0  503  502  0.00000000000E+00  0.00000000000E+00  0.13017438773E+03  0.13017438773E+03  0.00000000000E+00 0.  1.
         21   -1    0    0  501  503 -0.00000000000E+00 -0.00000000000E+00 -0.50551363249E+03  0.50551363249E+03  0.00000000000E+00 0.  1.
          6    2    1    2  501    0 -0.50993675558E+02 -0.64835676278E+01 -0.42461619941E+03  0.46150314640E+03  0.17333160631E+03 0.  0.
         24    2    3    3    0    0 -0.77068869438E+02 -0.30804127486E+02 -0.40377949301E+03  0.41993797226E+03  0.80134366333E+02 0.  0.
         -6    2    1    2    0  502  0.50993675558E+02  0.64835676278E+01  0.49276954650E+02  0.17418487382E+03  0.15896465146E+03 0.  0.
        -24    2    5    5    0    0  0.56630942975E+02 -0.38468539590E+02  0.66887107813E+02  0.12535170659E+03  0.80946111171E+02 0.  0.
          5    1    3    3  501    0  0.26075193880E+02  0.24320559858E+02 -0.20836706397E+02  0.41565174138E+02  0.47000000000E+01 0. -1.
        -13    1    4    4    0    0  0.22568230043E+01 -0.30551399954E+02 -0.17827494493E+03  0.18088791358E+03  0.00000000000E+00 0.  1.
         14    1    4    4    0    0 -0.79325692442E+02 -0.25272753136E+00 -0.22550454808E+03  0.23905005868E+03  0.00000000000E+00 0. -1.
         -5    1    5    5    0  502 -0.56372674176E+01  0.44952107218E+02 -0.17610153162E+02  0.48833167230E+02  0.47000000000E+01 0.  1.
         11    1    6    6    0    0  0.13509464917E+02  0.43509667110E+01 -0.16758765339E+02  0.21961165028E+02  0.00000000000E+00 0. -1.
        -12    1    6    6    0    0  0.43121478058E+02 -0.42819506301E+02  0.83645873152E+02  0.10339054157E+03  0.00000000000E+00 0.  1.
<mgrwt>
<rscale>  2 0.17726011E+03</rscale>
<asrwt>0</asrwt>
<pdfrwt beam="1">  1       21 0.20026829E-01 0.18079336E+03</pdfrwt>
<pdfrwt beam="2">  1       21 0.77771328E-01 0.18079336E+03</pdfrwt>
<totfact> 0.33964381E+04</totfact>
</mgrwt>
</event>
<event>
12    1  0.1074575E-001  0.2379524E+03  0.7546771E-02  0.1121282E+00
         21   -1    0    0  501  502  0.00000000000E+00  0.00000000000E+00  0.13050856269E+04  0.13050856269E+04  0.00000000000E+00 0.  1.
         21   -1    0    0  502  503 -0.00000000000E+00 -0.00000000000E+00 -0.11419476640E+03  0.11419476640E+03  0.00000000000E+00 0.  1.
         -6    2    1    2    0  503  0.14038176733E+02  0.16240987566E+03  0.36469808186E+02  0.24073097935E+03  0.17334162624E+03 0.  0.
        -24    2    3    3    0    0 -0.91094186288E+01  0.17429837990E+03  0.64154910784E+02  0.20244648366E+03  0.80036363141E+02 0.  0.
          6    2    1    2  501    0 -0.14038176733E+02 -0.16240987566E+03  0.11544210523E+04  0.11785494140E+04  0.17238537346E+03 0.  0.
         24    2    5    5    0    0 -0.11129183989E+02 -0.15750268487E+03  0.11572793084E+04  0.11706246182E+04  0.78330356122E+02 0.  0.
          5    1    5    5  501    0 -0.29089927435E+01 -0.49071907921E+01 -0.28582560417E+01  0.79247957609E+01  0.47000000000E+01 0. -1.
        -13    1    6    6    0    0 -0.35341233680E+02 -0.74717524831E+02  0.40009130159E+03  0.40853979111E+03  0.00000000000E+00 0.  1.
         14    1    6    6    0    0  0.24212049691E+02 -0.82785160041E+02  0.75718800679E+03  0.76208482710E+03  0.00000000000E+00 0. -1.
         -5    1    3    3    0  503  0.23147595362E+02 -0.11888504238E+02 -0.27685102599E+02  0.38284495686E+02  0.47000000000E+01 0.  1.
         13    1    4    4    0    0  0.10340859830E+02  0.66474711567E+02  0.64041670217E+02  0.92882485885E+02  0.00000000000E+00 0. -1.
        -14    1    4    4    0    0 -0.19450278459E+02  0.10782366834E+03  0.11324056728E+00  0.10956399778E+03  0.00000000000E+00 0.  1.
<mgrwt>
<rscale>  2 0.23777831E+03</rscale>
<asrwt>0</asrwt>
<pdfrwt beam="1">  1       21 0.20078239E+00 0.23795243E+03</pdfrwt>
<pdfrwt beam="2">  1       21 0.17568427E-01 0.23795243E+03</pdfrwt>
<totfact> 0.37438805E+03</totfact>
</mgrwt>
</event>
<event>
12    1  0.1074575E-001  0.1832178E+03  0.7546771E-02  0.1164980E+00
         21   -1    0    0  503  502  0.00000000000E+00  0.00000000000E+00  0.21543971534E+03  0.21543971534E+03  0.00000000000E+00 0. -1.
         21   -1    0    0  501  503 -0.00000000000E+00 -0.00000000000E+00 -0.48955899215E+03  0.48955899215E+03  0.00000000000E+00 0. -1.
          6    2    1    2  501    0 -0.22024562279E+02 -0.47756736726E+02 -0.42863134767E+03  0.46614761722E+03  0.17550778212E+03 0.  0.
         24    2    3    3    0    0  0.38024394895E+02 -0.75409805903E+02 -0.24940977112E+03  0.27506377961E+03  0.79513240976E+02 0.  0.
         -6    2    1    2    0  502  0.22024562279E+02  0.47756736726E+02  0.15451207086E+03  0.23885109027E+03  0.17438485036E+03 0.  0.
        -24    2    5    5    0    0  0.17345291818E+01  0.47753725548E+02  0.18179708002E+03  0.20452548500E+03  0.80604397005E+02 0.  0.
          5    1    3    3  501    0 -0.60048957174E+02  0.27653069177E+02 -0.17922157655E+03  0.19108383761E+03  0.47000000000E+01 0. -1.
        -11    1    4    4    0    0 -0.16528579196E+02 -0.55254744792E+02 -0.11687586306E+03  0.13033130138E+03  0.00000000000E+00 0.  1.
         12    1    4    4    0    0  0.54552974091E+02 -0.20155061110E+02 -0.13253390806E+03  0.14473247823E+03  0.00000000000E+00 0. -1.
         -5    1    5    5    0  502  0.20290033097E+02  0.30111781446E-02 -0.27285009161E+02  0.34325605269E+02  0.47000000000E+01 0.  1.
         11    1    6    6    0    0  0.28430735705E+02  0.38098363288E+02  0.16461647208E+03  0.17134285773E+03  0.00000000000E+00 0. -1.
        -12    1    6    6    0    0 -0.26696206524E+02  0.96553622596E+01  0.17180607946E+02  0.33182627269E+02  0.00000000000E+00 0.  1.
<mgrwt>
<rscale>  2 0.18294838E+03</rscale>
<asrwt>0</asrwt>
<pdfrwt beam="1">  1       21 0.33144572E-01 0.18321782E+03</pdfrwt>
<pdfrwt beam="2">  1       21 0.75316767E-01 0.18321782E+03</pdfrwt>
<totfact> 0.13889457E+04</totfact>
</mgrwt>
</event>
<event>
12    1  0.1074575E-001  0.1979415E+03  0.7546771E-02  0.1152663E+00
         21   -1    0    0  503  502  0.00000000000E+00  0.00000000000E+00  0.28593665464E+03  0.28593665464E+03  0.00000000000E+00 0. -1.
         21   -1    0    0  501  503 -0.00000000000E+00 -0.00000000000E+00 -0.20535688825E+03  0.20535688825E+03  0.00000000000E+00 0. -1.
          6    2    1    2  501    0  0.83716134515E+02  0.98242100503E+01 -0.10557352905E+03  0.21956960310E+03  0.17308996010E+03 0.  0.
         24    2    3    3    0    0  0.69861494203E+02 -0.43725939199E+02 -0.98682235348E+02  0.16363080197E+03  0.10121397951E+03 0.  0.
         -6    2    1    2    0  502 -0.83716134515E+02 -0.98242100503E+01  0.18615329544E+03  0.27172393980E+03  0.17909758172E+03 0.  0.
        -24    2    5    5    0    0 -0.27615997743E+02 -0.68509087453E+02  0.14346373968E+03  0.17987826297E+03  0.79487146714E+02 0.  0.
          5    1    3    3  501    0  0.13854640312E+02  0.53550149249E+02 -0.68912936997E+01  0.55938801128E+02  0.47000000000E+01 0. -1.
        -11    1    4    4    0    0  0.31836897540E+02 -0.23824554648E+02  0.14702548633E+02  0.42395310890E+02  0.00000000000E+00 0.  1.
         12    1    4    4    0    0  0.38024596662E+02 -0.19901384551E+02 -0.11338478398E+03  0.12123549108E+03  0.00000000000E+00 0. -1.
         -5    1    5    5    0  502 -0.56100136771E+02  0.58684877403E+02  0.42689555757E+02  0.91845676829E+02  0.47000000000E+01 0.  1.
         11    1    6    6    0    0  0.57968942948E+01 -0.36879497152E+02  0.12473721857E+03  0.13020397456E+03  0.00000000000E+00 0. -1.
        -12    1    6    6    0    0 -0.33412892038E+02 -0.31629590301E+02  0.18726521110E+02  0.49674288418E+02  0.00000000000E+00 0.  1.
<mgrwt>
<rscale>  2 0.19657272E+03</rscale>
<asrwt>0</asrwt>
<pdfrwt beam="1">  1       21 0.43990255E-01 0.19794153E+03</pdfrwt>
<pdfrwt beam="2">  1       21 0.31593367E-01 0.19794153E+03</pdfrwt>
<totfact> 0.47687290E+04</totfact>
</mgrwt>
</event>
<event>
12    1  0.1074575E-001  0.2710409E+03  0.7546771E-02  0.1100907E+00
         21   -1    0    0  503  502  0.00000000000E+00  0.00000000000E+00  0.12284985039E+03  0.12284985039E+03  0.00000000000E+00 0.  1.
         21   -1    0    0  501  503 -0.00000000000E+00 -0.00000000000E+00 -0.72260711568E+03  0.72260711568E+03  0.00000000000E+00 0. -1.
          6    2    1    2  501    0  0.54670843137E+02 -0.19924061471E+03 -0.47852151875E+03  0.54995089728E+03  0.17543495056E+03 0.  0.
         24    2    3    3    0    0  0.57900948742E+02 -0.18379842416E+03 -0.48812609167E+03  0.53089223384E+03  0.80281392576E+02 0.  0.
         -6    2    1    2    0  502 -0.54670843137E+02  0.19924061471E+03 -0.12123574655E+03  0.29550606879E+03  0.17303180866E+03 0.  0.
        -24    2    5    5    0    0  0.18193212419E+02  0.60349464640E+02 -0.85547540497E+02  0.13458478303E+03  0.82593167251E+02 0.  0.
          5    1    3    3  501    0 -0.32301056045E+01 -0.15442190549E+02  0.96045729228E+01  0.19058663442E+02  0.47000000000E+01 0. -1.
        -13    1    4    4    0    0  0.50943256659E+02 -0.12722811785E+03 -0.24065466682E+03  0.27694201204E+03  0.00000000000E+00 0.  1.
         14    1    4    4    0    0  0.69576920825E+01 -0.56570306315E+02 -0.24747142485E+03  0.25395022180E+03  0.00000000000E+00 0. -1.
         -5    1    5    5    0  502 -0.72864055556E+02  0.13889115007E+03 -0.35688206051E+02  0.16092128576E+03  0.47000000000E+01 0.  1.
         11    1    6    6    0    0  0.51171116783E+00 -0.19112903551E+02 -0.43532697152E+01  0.19609076666E+02  0.00000000000E+00 0. -1.
        -12    1    6    6    0    0  0.17681501251E+02  0.79462368192E+02 -0.81194270782E+02  0.11497570636E+03  0.00000000000E+00 0.  1.
<mgrwt>
<rscale>  2 0.27065271E+03</rscale>
<asrwt>0</asrwt>
<pdfrwt beam="1">  1       21 0.18899977E-01 0.27104086E+03</pdfrwt>
<pdfrwt beam="2">  1       21 0.11117033E+00 0.27104086E+03</pdfrwt>
<totfact> 0.15610726E+04</totfact>
</mgrwt>
</event>
<event>
12    1  0.1074575E-001  0.2401567E+03  0.7546771E-02  0.1119840E+00
         21   -1    0    0  503  502  0.00000000000E+00  0.00000000000E+00  0.24971249022E+03  0.24971249022E+03  0.00000000000E+00 0.  1.
         21   -1    0    0  501  503 -0.00000000000E+00 -0.00000000000E+00 -0.51530033020E+03  0.51530033020E+03  0.00000000000E+00 0. -1.
          6    2    1    2  501    0  0.14754440978E+03  0.74728822042E+02 -0.41725192894E+03  0.48097540346E+03  0.17287109889E+03 0.  0.
         24    2    3    3    0    0  0.62632499267E+02  0.84569128395E+02 -0.15109716721E+03  0.20139122764E+03  0.81567795066E+02 0.  0.
         -6    2    1    2    0  502 -0.14754440978E+03 -0.74728822042E+02  0.15166408896E+03  0.28403741695E+03  0.17413072287E+03 0.  0.
        -24    2    5    5    0    0 -0.73646492096E+02 -0.68144907650E+02  0.15768138917E+02  0.12913728976E+03  0.79751308231E+02 0.  0.
          5    1    3    3  501    0  0.84911910511E+02 -0.98403063534E+01 -0.26615476173E+03  0.27958417582E+03  0.47000000000E+01 0. -1.
        -11    1    4    4    0    0  0.82257924668E+02  0.60623978896E+02 -0.11647232635E+03  0.15494333091E+03  0.00000000000E+00 0.  1.
         12    1    4    4    0    0 -0.19625425400E+02  0.23945149500E+02 -0.34624840856E+02  0.46447896734E+02  0.00000000000E+00 0. -1.
         -5    1    5    5    0  502 -0.73897917682E+02 -0.65839143913E+01  0.13589595005E+03  0.15490012720E+03  0.47000000000E+01 0.  1.
         13    1    6    6    0    0 -0.10887415583E+02 -0.64292253377E+02  0.56601306733E+01  0.65452782535E+02  0.00000000000E+00 0. -1.
        -14    1    6    6    0    0 -0.62759076513E+02 -0.38526542737E+01  0.10108008244E+02  0.63684507224E+02  0.00000000000E+00 0.  1.
<mgrwt>
<rscale>  2 0.23992848E+03</rscale>
<asrwt>0</asrwt>
<pdfrwt beam="1">  1       21 0.38417306E-01 0.24015674E+03</pdfrwt>
<pdfrwt beam="2">  1       21 0.79276973E-01 0.24015674E+03</pdfrwt>
<totfact> 0.88914514E+03</totfact>
</mgrwt>
</event>
<event>
12    1  0.1074575E-001  0.2207913E+03  0.7546771E-02  0.1133392E+00
         21   -1    0    0  503  502  0.00000000000E+00  0.00000000000E+00  0.24759151590E+03  0.24759151590E+03  0.00000000000E+00 0.  1.
         21   -1    0    0  501  503 -0.00000000000E+00 -0.00000000000E+00 -0.20495308447E+03  0.20495308447E+03  0.00000000000E+00 0. -1.
          6    2    1    2  501    0  0.99355789779E+02 -0.98712102265E+02 -0.24858381820E+02  0.22166663707E+03  0.17000737262E+03 0.  0.
         24    2    3    3    0    0  0.87943973136E+00 -0.86970773714E+02 -0.31366040424E+02  0.12216844645E+03  0.79853690726E+02 0.  0.
         -6    2    1    2    0  502 -0.99355789779E+02  0.98712102265E+02  0.67496813256E+02  0.23087796330E+03  0.17068439308E+03 0.  0.
        -24    2    5    5    0    0 -0.63500013317E+02  0.33632703826E+02  0.10317933702E+03  0.14831709297E+03  0.78667490242E+02 0.  0.
          5    1    3    3  501    0  0.98476350048E+02 -0.11741328551E+02  0.65076586041E+01  0.99498190614E+02  0.47000000000E+01 0. -1.
        -13    1    4    4    0    0 -0.88862538834E+00  0.14549260423E+02  0.31758610972E+01  0.14918335284E+02  0.00000000000E+00 0.  1.
         14    1    4    4    0    0  0.17680651197E+01 -0.10152003414E+03 -0.34541901522E+02  0.10725011117E+03  0.00000000000E+00 0. -1.
         -5    1    5    5    0  502 -0.35855776462E+02  0.65079398439E+02 -0.35682523766E+02  0.82560870328E+02  0.47000000000E+01 0.  1.
         13    1    6    6    0    0 -0.18632862084E+02  0.35314123560E+02  0.48497365896E+01  0.40221770439E+02  0.00000000000E+00 0. -1.
        -14    1    6    6    0    0 -0.44867151233E+02 -0.16814197337E+01  0.98329600432E+02  0.10809532253E+03  0.00000000000E+00 0.  1.
<mgrwt>
<rscale>  2 0.22066048E+03</rscale>
<asrwt>0</asrwt>
<pdfrwt beam="1">  1       21 0.38091002E-01 0.22079134E+03</pdfrwt>
<pdfrwt beam="2">  1       21 0.31531244E-01 0.22079134E+03</pdfrwt>
<totfact> 0.63462621E+04</totfact>
</mgrwt>
</event>
<event>
12    1  0.1074575E-001  0.1911486E+03  0.7546771E-02  0.1157538E+00
         21   -1    0    0  501  502  0.00000000000E+00  0.00000000000E+00  0.35836214485E+03  0.35836214485E+03  0.00000000000E+00 0. -1.
         21   -1    0    0  502  503 -0.00000000000E+00 -0.00000000000E+00 -0.11956363187E+03  0.11956363187E+03  0.00000000000E+00 0. -1.
         -6    2    1    2    0  503  0.51248771579E+02 -0.59461840902E+02  0.27161526639E+02  0.19306870544E+03  0.17428605618E+03 0.  0.
        -24    2    3    3    0    0  0.78122242132E+02 -0.54328059237E+02 -0.31389921938E+02  0.12826977594E+03  0.80082366869E+02 0.  0.
          6    2    1    2  501    0 -0.51248771579E+02  0.59461840902E+02  0.21163698635E+03  0.28485707129E+03  0.17375612208E+03 0.  0.
         24    2    5    5    0    0 -0.49425521758E+02 -0.20595729262E+02  0.61872392914E+02  0.11496280350E+03  0.80753866278E+02 0.  0.
          5    1    5    5  501    0 -0.18232498212E+01  0.80057570164E+02  0.14976459343E+03  0.16989426779E+03  0.47000000000E+01 0. -1.
        -13    1    6    6    0    0 -0.68375924138E+02 -0.83516367069E+00  0.35932429679E+02  0.77247032323E+02  0.00000000000E+00 0.  1.
         14    1    6    6    0    0  0.18950402380E+02 -0.19760565591E+02  0.25939963235E+02  0.37715771177E+02  0.00000000000E+00 0. -1.
         -5    1    3    3    0  503 -0.26873470552E+02 -0.51337816653E+01  0.58551448578E+02  0.64798929499E+02  0.47000000000E+01 0.  1.
         11    1    4    4    0    0 -0.26655127566E+01 -0.15231539042E+02 -0.35191158137E+02  0.38438552924E+02  0.00000000000E+00 0. -1.
        -12    1    4    4    0    0  0.80787754888E+02 -0.39096520195E+02  0.38012361988E+01  0.89831223012E+02  0.00000000000E+00 0.  1.
<mgrwt>
<rscale>  2 0.19102769E+03</rscale>
<asrwt>0</asrwt>
<pdfrwt beam="1">  1       21 0.55132637E-01 0.19114857E+03</pdfrwt>
<pdfrwt beam="2">  1       21 0.18394405E-01 0.19114857E+03</pdfrwt>
<totfact> 0.83756280E+04</totfact>
</mgrwt>
</event>
<event>
12    1  0.1074575E-001  0.2098345E+03  0.7546771E-02  0.1143002E+00
         21   -1    0    0  501  502  0.00000000000E+00  0.00000000000E+00  0.84718978259E+03  0.84718978259E+03  0.00000000000E+00 0.  1.
         21   -1    0    0  502  503 -0.00000000000E+00 -0.00000000000E+00 -0.71366573411E+02  0.71366573411E+02  0.00000000000E+00 0.  1.
         -6    2    1    2    0  503 -0.11001810428E+03  0.26066169564E+02  0.13459474493E+03  0.24386792975E+03  0.16903370472E+03 0.  0.
        -24    2    3    3    0    0 -0.68475877257E+02 -0.39845560813E+02  0.36720937989E+02  0.11868212819E+03  0.80376649481E+02 0.  0.
          6    2    1    2  501    0  0.11001810428E+03 -0.26066169564E+02  0.64122846424E+03  0.67468842625E+03  0.17676849462E+03 0.  0.
         24    2    5    5    0    0  0.31958363322E+02 -0.54170361487E+02  0.51756236910E+03  0.52569660818E+03  0.67307896248E+02 0.  0.
          5    1    5    5  501    0  0.78059740957E+02  0.28104191923E+02  0.12366609515E+03  0.14899181807E+03  0.47000000000E+01 0. -1.
        -13    1    6    6    0    0  0.36644344105E+02 -0.63456393011E+02  0.33888934440E+03  0.34672108317E+03  0.00000000000E+00 0.  1.
         14    1    6    6    0    0 -0.46859807824E+01  0.92860315240E+01  0.17867302469E+03  0.17897552501E+03  0.00000000000E+00 0. -1.
         -5    1    3    3    0  503 -0.41542227023E+02  0.65911730377E+02  0.97873806943E+02  0.12518580156E+03  0.47000000000E+01 0.  1.
         11    1    4    4    0    0 -0.30448435733E+02 -0.61832352476E+02  0.23178005138E+02  0.72715658379E+02  0.00000000000E+00 0. -1.
        -12    1    4    4    0    0 -0.38027441524E+02  0.21986791663E+02  0.13542932851E+02  0.45966469809E+02  0.00000000000E+00 0.  1.
<mgrwt>
<rscale>  2 0.20819716E+03</rscale>
<asrwt>0</asrwt>
<pdfrwt beam="1">  1       21 0.13033688E+00 0.20983453E+03</pdfrwt>
<pdfrwt beam="2">  1       21 0.10979473E-01 0.20983453E+03</pdfrwt>
<totfact> 0.29226710E+04</totfact>
</mgrwt>
</event>
<event>
12    1  0.1074575E-001  0.1975214E+03  0.7546771E-02  0.1151979E+00
         21   -1    0    0  503  502  0.00000000000E+00  0.00000000000E+00  0.43559603747E+03  0.43559603747E+03  0.00000000000E+00 0. -1.
         21   -1    0    0  501  503 -0.00000000000E+00 -0.00000000000E+00 -0.11998254864E+03  0.11998254864E+03  0.00000000000E+00 0. -1.
          6    2    1    2  501    0  0.81316993478E+02 -0.48809769196E+02  0.17118939441E+02  0.19764885653E+03  0.17256061370E+03 0.  0.
         24    2    3    3    0    0  0.10835755935E+03 -0.42750029559E+02  0.53579230393E+02  0.15161239854E+03  0.80911431615E+02 0.  0.
         -6    2    1    2    0  502 -0.81316993478E+02  0.48809769196E+02  0.29849454939E+03  0.35792972958E+03  0.17326236841E+03 0.  0.
        -24    2    5    5    0    0 -0.14826344960E+02  0.81046012717E+02  0.22856411533E+03  0.25608407506E+03  0.80927263654E+02 0.  0.
          5    1    3    3  501    0 -0.27040565876E+02 -0.60597396368E+01 -0.36460290952E+02  0.46036457983E+02  0.47000000000E+01 0. -1.
        -13    1    4    4    0    0 -0.12707584001E+02  0.12573224445E+01  0.74651745809E+01  0.14791632175E+02  0.00000000000E+00 0.  1.
         14    1    4    4    0    0  0.12106514335E+03 -0.44007352003E+02  0.46114055812E+02  0.13682076637E+03  0.00000000000E+00 0. -1.
         -5    1    5    5    0  502 -0.66490648518E+02 -0.32236243522E+02  0.69930434057E+02  0.10184565452E+03  0.47000000000E+01 0.  1.
         13    1    6    6    0    0 -0.45440573606E+02  0.38998219714E+02  0.15345271447E+03  0.16472231921E+03  0.00000000000E+00 0. -1.
        -14    1    6    6    0    0  0.30614228647E+02  0.42047793003E+02  0.75111400864E+02  0.91361755849E+02  0.00000000000E+00 0.  1.
<mgrwt>
<rscale>  2 0.19736738E+03</rscale>
<asrwt>0</asrwt>
<pdfrwt beam="1">  1       21 0.67014774E-01 0.19752138E+03</pdfrwt>
<pdfrwt beam="2">  1       21 0.18458854E-01 0.19752138E+03</pdfrwt>
<totfact> 0.54513650E+04</totfact>
</mgrwt>
</event>
<event>
12    1  0.1074575E-001  0.1886379E+03  0.7546771E-02  0.1160399E+00
         21   -1    0    0  503  502  0.00000000000E+00  0.00000000000E+00  0.10662406402E+03  0.10662406402E+03  0.00000000000E+00 0. -1.
         21   -1    0    0  501  503 -0.00000000000E+00 -0.00000000000E+00 -0.34511380971E+03  0.34511380971E+03  0.00000000000E+00 0. -1.
          6    2    1    2  501    0  0.56037257870E+02 -0.45612712390E+02 -0.16997466092E+03  0.25392055012E+03  0.17425144653E+03 0.  0.
         24    2    3    3    0    0 -0.43926191203E+02 -0.39018810459E+02 -0.63080961772E+02  0.10734455069E+03  0.63966139332E+02 0.  0.
         -6    2    1    2    0  502 -0.56037257870E+02  0.45612712390E+02 -0.68515084772E+02  0.19781732361E+03  0.17092888251E+03 0.  0.
        -24    2    5    5    0    0 -0.26506855691E+02  0.94027652124E+02 -0.34748947687E+02  0.13164865235E+03  0.81117603128E+02 0.  0.
          5    1    3    3  501    0  0.99963449073E+02 -0.65939019308E+01 -0.10689369914E+03  0.14657599943E+03  0.47000000000E+01 0. -1.
        -11    1    4    4    0    0 -0.97859065196E+01 -0.22114834386E+01 -0.55706635876E+02  0.56602861289E+02  0.00000000000E+00 0.  1.
         12    1    4    4    0    0 -0.34140284684E+02 -0.36807327020E+02 -0.73743258957E+01  0.50741689399E+02  0.00000000000E+00 0. -1.
         -5    1    5    5    0  502 -0.29530402179E+02 -0.48414939734E+02 -0.33766137085E+02  0.66168671257E+02  0.47000000000E+01 0.  1.
         13    1    6    6    0    0 -0.22972577643E+01 -0.54118433421E+01 -0.28515074833E+02  0.29114857622E+02  0.00000000000E+00 0. -1.
        -14    1    6    6    0    0 -0.24209597927E+02  0.99439495466E+02 -0.62338728539E+01  0.10253379473E+03  0.00000000000E+00 0.  1.
<mgrwt>
<rscale>  2 0.18786699E+03</rscale>
<asrwt>0</asrwt>
<pdfrwt beam="1">  1       21 0.16403702E-01 0.18863791E+03</pdfrwt>
<pdfrwt beam="2">  1       21 0.53094432E-01 0.18863791E+03</pdfrwt>
<totfact> 0.11209590E+05</totfact>
</mgrwt>
</event>
<event>
12    1  0.1074575E-001  0.1776338E+03  0.7546771E-02  0.1170395E+00
         21   -1    0    0  501  502  0.00000000000E+00  0.00000000000E+00  0.23978930414E+03  0.23978930414E+03  0.00000000000E+00 0.  1.
         21   -1    0    0  502  503 -0.00000000000E+00 -0.00000000000E+00 -0.14115431060E+03  0.14115431060E+03  0.00000000000E+00 0.  1.
         -6    2    1    2    0  503 -0.17559901649E+01 -0.44860126841E+02 -0.22586163983E+01  0.17764816375E+03  0.17186696673E+03 0.  0.
        -24    2    3    3    0    0 -0.16310623323E+02  0.17932393718E+01 -0.71809523273E+02  0.92514195370E+02  0.55973355908E+02 0.  0.
          6    2    1    2  501    0  0.17559901649E+01  0.44860126841E+02  0.10089360994E+03  0.20329545098E+03  0.17068686353E+03 0.  0.
         24    2    5    5    0    0 -0.36128763308E+02 -0.47835055273E+01  0.10994147871E+03  0.14002066367E+03  0.78679654616E+02 0.  0.
          5    1    5    5  501    0  0.37884753473E+02  0.49643632368E+02 -0.90478687694E+01  0.63274787314E+02  0.47000000000E+01 0. -1.
        -13    1    6    6    0    0 -0.96146702271E+01  0.66407098152E+01  0.11052817436E+03  0.11114413272E+03  0.00000000000E+00 0.  1.
         14    1    6    6    0    0 -0.26514093081E+02 -0.11424215342E+02 -0.58669564931E+00  0.28876530953E+02  0.00000000000E+00 0. -1.
         -5    1    3    3    0  503  0.14554633158E+02 -0.46653366212E+02  0.69550906874E+02  0.85133968381E+02  0.47000000000E+01 0.  1.
         13    1    4    4    0    0  0.25513748511E+01  0.20179370021E+02 -0.53600324277E+01  0.21034410752E+02  0.00000000000E+00 0. -1.
        -14    1    4    4    0    0 -0.18861998174E+02 -0.18386130649E+02 -0.66449490845E+02  0.71479784617E+02  0.00000000000E+00 0.  1.
<mgrwt>
<rscale>  2 0.17734773E+03</rscale>
<asrwt>0</asrwt>
<pdfrwt beam="1">  1       21 0.36890662E-01 0.17763381E+03</pdfrwt>
<pdfrwt beam="2">  1       21 0.21716048E-01 0.17763381E+03</pdfrwt>
<totfact> 0.14088252E+05</totfact>
</mgrwt>
</event>
<event>
12    1  0.1074575E-001  0.1967665E+03  0.7546771E-02  0.1152682E+00
         21   -1    0    0  503  502  0.00000000000E+00  0.00000000000E+00  0.15238792595E+03  0.15238792595E+03  0.00000000000E+00 0. -1.
         21   -1    0    0  501  503 -0.00000000000E+00 -0.00000000000E+00 -0.25450681499E+03  0.25450681499E+03  0.00000000000E+00 0. -1.
          6    2    1    2  501    0 -0.23501128889E+02  0.88174620388E+02 -0.35069686045E+02  0.19901825758E+03  0.17335315755E+03 0.  0.
         24    2    3    3    0    0  0.62681850602E+01  0.82654132785E+02  0.35792033293E+02  0.12181617792E+03  0.81774786733E+02 0.  0.
         -6    2    1    2    0  502  0.23501128889E+02 -0.88174620388E+02 -0.67049202995E+02  0.20787648336E+03  0.17432719229E+03 0.  0.
        -24    2    5    5    0    0 -0.54879065071E+02 -0.61866467695E+02 -0.35776420842E+02  0.11935727297E+03  0.78275377452E+02 0.  0.
          5    1    3    3  501    0 -0.29769313949E+02  0.55204876033E+01 -0.70861719338E+02  0.77202079661E+02  0.47000000000E+01 0. -1.
        -11    1    4    4    0    0  0.91277781468E+01 -0.41486276563E+01 -0.17320548713E+02  0.20013216959E+02  0.00000000000E+00 0.  1.
         12    1    4    4    0    0 -0.28595930866E+01  0.86802760441E+02  0.53112582007E+02  0.10180296096E+03  0.00000000000E+00 0. -1.
         -5    1    5    5    0  502  0.78380193960E+02 -0.26308152693E+02 -0.31272782153E+02  0.88519210383E+02  0.47000000000E+01 0.  1.
         13    1    6    6    0    0 -0.62393310496E+01 -0.64764503736E+02 -0.18254787296E+02  0.67576678339E+02  0.00000000000E+00 0. -1.
        -14    1    6    6    0    0 -0.48639734022E+02  0.28980360404E+01 -0.17521633547E+02  0.51780594635E+02  0.00000000000E+00 0.  1.
<mgrwt>
<rscale>  2 0.19655049E+03</rscale>
<asrwt>0</asrwt>
<pdfrwt beam="1">  1       21 0.23444296E-01 0.19676645E+03</pdfrwt>
<pdfrwt beam="2">  1       21 0.39154895E-01 0.19676645E+03</pdfrwt>
<totfact> 0.10746855E+05</totfact>
</mgrwt>
</event>
<event>
12    1  0.1074575E-001  0.2177693E+03  0.7546771E-02  0.1136060E+00
         21   -1    0    0  501  502  0.00000000000E+00  0.00000000000E+00  0.68639091940E+03  0.68639091940E+03  0.00000000000E+00 0.  1.
         21   -1    0    0  502  503 -0.00000000000E+00 -0.00000000000E+00 -0.14314165287E+03  0.14314165287E+03  0.00000000000E+00 0.  1.
         -6    2    1    2    0  503 -0.10061303828E+03  0.81140855647E+02 -0.27583976160E+02  0.21950936298E+03  0.17526169795E+03 0.  0.
        -24    2    3    3    0    0 -0.54906006681E+02  0.15830927404E+02 -0.73808826788E+02  0.12724156643E+03  0.86471876835E+02 0.  0.
          6    2    1    2  501    0  0.10061303828E+03 -0.81140855647E+02  0.57083324269E+03  0.61002320930E+03  0.17196192310E+03 0.  0.
         24    2    5    5    0    0  0.21587857740E+02 -0.31972097171E+02  0.12039794280E+03  0.15004864983E+03  0.80812635686E+02 0.  0.
          5    1    5    5  501    0  0.79025180540E+02 -0.49168758476E+02  0.45043529989E+03  0.45997455946E+03  0.47000000000E+01 0. -1.
        -11    1    6    6    0    0  0.23688436347E+01 -0.57510886603E+02  0.79145881199E+02  0.97863088081E+02  0.00000000000E+00 0.  1.
         12    1    6    6    0    0  0.19219014106E+02  0.25538789432E+02  0.41252061604E+02  0.52185561752E+02  0.00000000000E+00 0. -1.
         -5    1    3    3    0  503 -0.45707031599E+02  0.65309928243E+02  0.46224850628E+02  0.92267796550E+02  0.47000000000E+01 0.  1.
         11    1    4    4    0    0  0.84887299548E+01 -0.18039080127E+02  0.50254466320E+01  0.20560205785E+02  0.00000000000E+00 0. -1.
        -12    1    4    4    0    0 -0.63394736636E+02  0.33870007531E+02 -0.78834273420E+02  0.10668136064E+03  0.00000000000E+00 0.  1.
<mgrwt>
<rscale>  2 0.21710461E+03</rscale>
<asrwt>0</asrwt>
<pdfrwt beam="1">  1       21 0.10559860E+00 0.21776934E+03</pdfrwt>
<pdfrwt beam="2">  1       21 0.22021793E-01 0.21776934E+03</pdfrwt>
<totfact> 0.13659853E+04</totfact>
</mgrwt>
</event>
<event>
12    1  0.1074575E-001  0.2558873E+03  0.7546771E-02  0.1109762E+00
         21   -1    0    0  501  502  0.00000000000E+00  0.00000000000E+00  0.87016258092E+02  0.87016258092E+02  0.00000000000E+00 0.  1.
         21   -1    0    0  502  503 -0.00000000000E+00 -0.00000000000E+00 -0.76705433516E+03  0.76705433516E+03  0.00000000000E+00 0.  1.
         -6    2    1    2    0  503 -0.18624097159E+03 -0.31350433041E+02 -0.27713478013E+03  0.37720288591E+03  0.17265509442E+03 0.  0.
        -24    2    3    3    0    0 -0.90325490888E+02 -0.98680977417E+01 -0.52218562396E+02  0.13170204035E+03  0.79765754040E+02 0.  0.
          6    2    1    2  501    0  0.18624097159E+03  0.31350433041E+02 -0.40290329693E+03  0.47686770734E+03  0.17147359702E+03 0.  0.
         24    2    5    5    0    0  0.11051643265E+03  0.36871517932E+02 -0.12578713886E+03  0.18950009740E+03  0.80712402346E+02 0.  0.
          5    1    5    5  501    0  0.75724538932E+02 -0.55210848908E+01 -0.27711615807E+03  0.28736760994E+03  0.47000000000E+01 0. -1.
        -11    1    6    6    0    0  0.89185281130E+02  0.50115702710E+02 -0.12849586765E+03  0.16424611420E+03  0.00000000000E+00 0.  1.
         12    1    6    6    0    0  0.21331151525E+02 -0.13244184778E+02  0.27087287903E+01  0.25253983200E+02  0.00000000000E+00 0. -1.
         -5    1    3    3    0  503 -0.95915480698E+02 -0.21482335300E+02 -0.22491621774E+03  0.24550084555E+03  0.47000000000E+01 0.  1.
         11    1    4    4    0    0 -0.77348664485E+02  0.15762346769E+02 -0.85075034620E+01  0.79395497910E+02  0.00000000000E+00 0. -1.
        -12    1    4    4    0    0 -0.12976826403E+02 -0.25630444510E+02 -0.43711058934E+02  0.52306542444E+02  0.00000000000E+00 0.  1.
<mgrwt>
<rscale>  2 0.25568818E+03</rscale>
<asrwt>0</asrwt>
<pdfrwt beam="1">  1       21 0.13387117E-01 0.25588734E+03</pdfrwt>
<pdfrwt beam="2">  1       21 0.11800835E+00 0.25588734E+03</pdfrwt>
<totfact> 0.25638132E+04</totfact>
</mgrwt>
</event>
<event>
12    1  0.1074575E-001  0.1798212E+03  0.7546771E-02  0.1168121E+00
         21   -1    0    0  501  502  0.00000000000E+00  0.00000000000E+00  0.60347526663E+02  0.60347526663E+02  0.00000000000E+00 0. -1.
         21   -1    0    0  502  503 -0.00000000000E+00 -0.00000000000E+00 -0.10356473567E+04  0.10356473567E+04  0.00000000000E+00 0. -1.
         -6    2    1    2    0  503 -0.43061832301E+02  0.27268452544E+02 -0.86860646113E+03  0.88690365595E+03  0.17182264321E+03 0.  0.
        -24    2    3    3    0    0 -0.21932943647E+02  0.31767097438E+02 -0.85706969109E+03  0.86196663920E+03  0.83233582224E+02 0.  0.
          6    2    1    2  501    0  0.43061832301E+02 -0.27268452544E+02 -0.10669336893E+03  0.20909122744E+03  0.17244644534E+03 0.  0.
         24    2    5    5    0    0  0.59229389684E+02 -0.68494485398E+02 -0.11051947547E+03  0.16439553650E+03  0.81312501076E+02 0.  0.
          5    1    5    5  501    0 -0.16167557384E+02  0.41226032854E+02  0.38261065398E+01  0.44695690932E+02  0.47000000000E+01 0. -1.
        -11    1    6    6    0    0  0.32314067080E+02 -0.83829587566E+02 -0.90441418628E+02  0.12748038628E+03  0.00000000000E+00 0.  1.
         12    1    6    6    0    0  0.26915322604E+02  0.15335102168E+02 -0.20078056846E+02  0.36915150224E+02  0.00000000000E+00 0. -1.
         -5    1    3    3    0  503 -0.21128888654E+02 -0.44986448936E+01 -0.11536770038E+02  0.24937016753E+02  0.47000000000E+01 0.  1.
         13    1    4    4    0    0 -0.23840507591E+02  0.49208985946E+02 -0.32202593088E+03  0.32663526181E+03  0.00000000000E+00 0. -1.
        -14    1    4    4    0    0  0.19075639441E+01 -0.17441888508E+02 -0.53504376021E+03  0.53533137739E+03  0.00000000000E+00 0.  1.
<mgrwt>
<rscale>  2 0.17967149E+03</rscale>
<asrwt>0</asrwt>
<pdfrwt beam="1">  1       21 0.92842352E-02 0.17982121E+03</pdfrwt>
<pdfrwt beam="2">  1       21 0.15933036E+00 0.17982121E+03</pdfrwt>
<totfact> 0.23748075E+04</totfact>
</mgrwt>
</event>
<event>
12    1  0.1074575E-001  0.2092702E+03  0.7546771E-02  0.1142397E+00
         21   -1    0    0  501  502  0.00000000000E+00  0.00000000000E+00  0.14909812119E+04  0.14909812119E+04  0.00000000000E+00 0. -1.
         21   -1    0    0  502  503 -0.00000000000E+00 -0.00000000000E+00 -0.11036556987E+03  0.11036556987E+03  0.00000000000E+00 0.  1.
         -6    2    1    2    0  503 -0.11326243177E+03  0.33545060821E+02  0.31079636088E+01  0.20803367425E+03  0.17121536330E+03 0.  0.
        -24    2    3    3    0    0 -0.13332650081E+03  0.58081541878E+02  0.27039883138E+02  0.16804076811E+03  0.79731569297E+02 0.  0.
          6    2    1    2  501    0  0.11326243177E+03 -0.33545060821E+02  0.13775076784E+04  0.13933131075E+04  0.17274363061E+03 0.  0.
         24    2    5    5    0    0  0.11839068576E+03 -0.76546419069E+02  0.10003815249E+04  0.10136795455E+04  0.83110268326E+02 0.  0.
          5    1    5    5  501    0 -0.51282539822E+01  0.43001358248E+02  0.37712615349E+03  0.37963356206E+03  0.47000000000E+01 0. -1.
        -11    1    6    6    0    0  0.62328806866E+02 -0.30230687147E+02  0.23910368686E+03  0.24893643301E+03  0.00000000000E+00 0.  1.
         12    1    6    6    0    0  0.56061878890E+02 -0.46315731922E+02  0.76127783807E+03  0.76474311244E+03  0.00000000000E+00 0. -1.
         -5    1    3    3    0  503  0.20064069038E+02 -0.24536481057E+02 -0.23931919530E+02  0.39992906138E+02  0.47000000000E+01 0.  1.
         13    1    4    4    0    0 -0.17479253733E+02 -0.18165105277E+02 -0.50014614589E+01  0.25700388664E+02  0.00000000000E+00 0. -1.
        -14    1    4    4    0    0 -0.11584724708E+03  0.76246647155E+02  0.32041344597E+02  0.14234037945E+03  0.00000000000E+00 0.  1.
<mgrwt>
<rscale>  2 0.20895454E+03</rscale>
<asrwt>0</asrwt>
<pdfrwt beam="1">  1       21 0.22938171E+00 0.20927019E+03</pdfrwt>
<pdfrwt beam="2">  1       21 0.16979320E-01 0.20927019E+03</pdfrwt>
<totfact> 0.27110130E+03</totfact>
</mgrwt>
</event>
<event>
12    1  0.1074575E-001  0.1856856E+03  0.7546771E-02  0.1165423E+00
         21   -1    0    0  501  502  0.00000000000E+00  0.00000000000E+00  0.52766911524E+02  0.52766911524E+02  0.00000000000E+00 0.  1.
         21   -1    0    0  502  503 -0.00000000000E+00 -0.00000000000E+00 -0.10292378918E+04  0.10292378918E+04  0.00000000000E+00 0.  1.
         -6    2    1    2    0  503  0.22577838712E+02 -0.19282508237E+01 -0.84337910607E+03  0.86357827858E+03  0.18429772036E+03 0.  0.
        -24    2    3    3    0    0 -0.86753410508E+01 -0.69145692556E+02 -0.60223967861E+03  0.61125852272E+03  0.78025398261E+02 0.  0.
          6    2    1    2  501    0 -0.22577838712E+02  0.19282508237E+01 -0.13309187421E+03  0.21842652474E+03  0.17170679305E+03 0.  0.
         24    2    5    5    0    0  0.30247768030E+02  0.43101680209E+02 -0.11381517439E+03  0.14857327020E+03  0.79670825193E+02 0.  0.
          5    1    5    5  501    0 -0.52825606743E+02 -0.41173429385E+02 -0.19276699813E+02  0.69853254546E+02  0.47000000000E+01 0. -1.
        -13    1    6    6    0    0 -0.13828845718E+01  0.30034320660E+02 -0.35956090938E+00  0.30068290129E+02  0.00000000000E+00 0.  1.
         14    1    6    6    0    0  0.31630652602E+02  0.13067359549E+02 -0.11345561348E+03  0.11850498007E+03  0.00000000000E+00 0. -1.
         -5    1    3    3    0  503  0.31253179763E+02  0.67217441733E+02 -0.24113942746E+03  0.25231975585E+03  0.47000000000E+01 0.  1.
         13    1    4    4    0    0  0.31109299994E+02 -0.36742766978E+02 -0.19768736664E+03  0.20346526583E+03  0.00000000000E+00 0. -1.
        -14    1    4    4    0    0 -0.39784641044E+02 -0.32402925578E+02 -0.40455231196E+03  0.40779325689E+03  0.00000000000E+00 0.  1.
<mgrwt>
<rscale>  2 0.18248105E+03</rscale>
<asrwt>0</asrwt>
<pdfrwt beam="1">  1       21 0.81179861E-02 0.18568556E+03</pdfrwt>
<pdfrwt beam="2">  1       21 0.15834430E+00 0.18568556E+03</pdfrwt>
<totfact> 0.30413712E+04</totfact>
</mgrwt>
</event>
<event>
12    1  0.1074575E-001  0.2198130E+03  0.7546771E-02  0.1136127E+00
         21   -1    0    0  503  502  0.00000000000E+00  0.00000000000E+00  0.40387631102E+03  0.40387631102E+03  0.00000000000E+00 0.  1.
         21   -1    0    0  501  503 -0.00000000000E+00 -0.00000000000E+00 -0.15885578516E+03  0.15885578516E+03  0.00000000000E+00 0. -1.
          6    2    1    2  501    0 -0.11803996255E+03 -0.15973798168E+01 -0.29651564540E+02  0.21093315228E+03  0.17227186384E+03 0.  0.
         24    2    3    3    0    0 -0.73672736753E+02 -0.65139640936E+02 -0.12281147738E+00  0.12786627001E+03  0.81724677801E+02 0.  0.
         -6    2    1    2    0  502  0.11803996255E+03  0.15973798168E+01  0.27467209039E+03  0.35179894390E+03  0.18542317899E+03 0.  0.
        -24    2    5    5    0    0  0.52523293349E+02  0.54823183123E+02  0.23138104392E+03  0.25681670985E+03  0.81568113984E+02 0.  0.
          5    1    3    3  501    0 -0.44367225793E+02  0.63542261119E+02 -0.29528753063E+02  0.83066882270E+02  0.47000000000E+01 0. -1.
        -11    1    4    4    0    0 -0.10154274053E+02  0.18007963624E+02  0.95775384063E+01  0.22784320867E+02  0.00000000000E+00 0.  1.
         12    1    4    4    0    0 -0.63518462699E+02 -0.83147604560E+02 -0.97003498837E+01  0.10508194914E+03  0.00000000000E+00 0. -1.
         -5    1    5    5    0  502  0.65516669197E+02 -0.53225803306E+02  0.43291046474E+02  0.94982234050E+02  0.47000000000E+01 0.  1.
         11    1    6    6    0    0 -0.22433457377E+01 -0.47417266907E+01  0.11472519711E+03  0.11484505833E+03  0.00000000000E+00 0. -1.
        -12    1    6    6    0    0  0.54766639087E+02  0.59564909814E+02  0.11665584681E+03  0.14197165151E+03  0.00000000000E+00 0.  1.
<mgrwt>
<rscale>  2 0.21701647E+03</rscale>
<asrwt>0</asrwt>
<pdfrwt beam="1">  1       21 0.62134817E-01 0.21981297E+03</pdfrwt>
<pdfrwt beam="2">  1       21 0.24439352E-01 0.21981297E+03</pdfrwt>
<totfact> 0.37486674E+04</totfact>
</mgrwt>
</event>
<event>
12    1  0.1074575E-001  0.2102475E+03  0.7546771E-02  0.1141827E+00
         21   -1    0    0  503  502  0.00000000000E+00  0.00000000000E+00  0.27879817109E+03  0.27879817109E+03  0.00000000000E+00 0. -1.
         21   -1    0    0  501  503 -0.00000000000E+00 -0.00000000000E+00 -0.19525741111E+03  0.19525741111E+03  0.00000000000E+00 0. -1.
          6    2    1    2  501    0  0.11660214287E+03  0.99778185289E+01 -0.63573016012E+02  0.21744991434E+03  0.17189333988E+03 0.  0.
         24    2    3    3    0    0  0.42263201411E+02  0.43776251262E+02  0.14158033718E+02  0.10461012364E+03  0.83906434081E+02 0.  0.
         -6    2    1    2    0  502 -0.11660214287E+03 -0.99778185289E+01  0.14711377599E+03  0.25660566786E+03  0.17466650826E+03 0.  0.
        -24    2    5    5    0    0 -0.27424548466E+02 -0.23019289701E+02  0.14342028876E+03  0.16628150076E+03  0.76145680827E+02 0.  0.
          5    1    3    3  501    0  0.74338941463E+02 -0.33798432733E+02 -0.77731049730E+02  0.11283979070E+03  0.47000000000E+01 0. -1.
        -13    1    4    4    0    0 -0.55122468336E+01 -0.21732477273E+02  0.77896305943E+00  0.22434175203E+02  0.00000000000E+00 0.  1.
         14    1    4    4    0    0  0.47775448245E+02  0.65508728535E+02  0.13379070658E+02  0.82175948433E+02  0.00000000000E+00 0. -1.
         -5    1    5    5    0  502 -0.89177594408E+02  0.13041471173E+02  0.36934872248E+01  0.90324167102E+02  0.47000000000E+01 0.  1.
         13    1    6    6    0    0 -0.40630180444E+02 -0.10560713401E+02  0.30447756748E+02  0.51859484393E+02  0.00000000000E+00 0. -1.
        -14    1    6    6    0    0  0.13205631978E+02 -0.12458576301E+02  0.11297253201E+03  0.11442201637E+03  0.00000000000E+00 0.  1.
<mgrwt>
<rscale>  2 0.20967059E+03</rscale>
<asrwt>0</asrwt>
<pdfrwt beam="1">  1       21 0.42892026E-01 0.21024749E+03</pdfrwt>
<pdfrwt beam="2">  1       21 0.30039602E-01 0.21024749E+03</pdfrwt>
<totfact> 0.55104577E+04</totfact>
</mgrwt>
</event>
<event>
12    1  0.1074575E-001  0.1888502E+03  0.7546771E-02  0.1163065E+00
         21   -1    0    0  501  502  0.00000000000E+00  0.00000000000E+00  0.54252093264E+03  0.54252093264E+03  0.00000000000E+00 0.  1.
         21   -1    0    0  502  503 -0.00000000000E+00 -0.00000000000E+00 -0.61344009167E+02  0.61344009167E+02  0.00000000000E+00 0.  1.
         -6    2    1    2    0  503 -0.15524597445E+02  0.36495329298E+01  0.21767624190E+03  0.28817935140E+03  0.18817560965E+03 0.  0.
        -24    2    3    3    0    0 -0.71189448515E+01 -0.76464357613E+02  0.99476453422E+02  0.14506341780E+03  0.72459319881E+02 0.  0.
          6    2    1    2  501    0  0.15524597445E+02 -0.36495329298E+01  0.26350068157E+03  0.31568559041E+03  0.17311975793E+03 0.  0.
         24    2    5    5    0    0 -0.56857460056E+02 -0.17230604656E+02  0.16262489508E+03  0.19069910290E+03  0.79935141511E+02 0.  0.
          5    1    5    5  501    0  0.72382057501E+02  0.13581071726E+02  0.10087578650E+03  0.12498648750E+03  0.47000000000E+01 0. -1.
        -11    1    6    6    0    0  0.37535263642E+01 -0.35110038440E+02  0.72318359747E+02  0.80478251198E+02  0.00000000000E+00 0.  1.
         12    1    6    6    0    0 -0.60610986420E+02  0.17879433783E+02  0.90306535329E+02  0.11022085170E+03  0.00000000000E+00 0. -1.
         -5    1    3    3    0  503 -0.84056525937E+01  0.80113890543E+02  0.11819978848E+03  0.14311593360E+03  0.47000000000E+01 0.  1.
         13    1    4    4    0    0  0.13303783034E+02  0.63337979103E+01  0.96360000026E+00  0.14766047675E+02  0.00000000000E+00 0. -1.
        -14    1    4    4    0    0 -0.20422727885E+02 -0.82798155524E+02  0.98512853422E+02  0.13029737013E+03  0.00000000000E+00 0.  1.
<mgrwt>
<rscale>  2 0.18498370E+03</rscale>
<asrwt>0</asrwt>
<pdfrwt beam="1">  1       21 0.83464755E-01 0.18885018E+03</pdfrwt>
<pdfrwt beam="2">  1       21 0.94375403E-02 0.18885018E+03</pdfrwt>
<totfact> 0.11242175E+05</totfact>
</mgrwt>
</event>
<event>
12    1  0.1074575E-001  0.2823544E+03  0.7546771E-02  0.1094524E+00
         21   -1    0    0  501  502  0.00000000000E+00  0.00000000000E+00  0.49329151239E+03  0.49329151239E+03  0.00000000000E+00 0.  1.
         21   -1    0    0  502  503 -0.00000000000E+00 -0.00000000000E+00 -0.28497709626E+03  0.28497709626E+03  0.00000000000E+00 0.  1.
         -6    2    1    2    0  503  0.17037984772E+03  0.14326988022E+03 -0.15228080330E+03  0.32080127947E+03  0.17369072159E+03 0.  0.
        -24    2    3    3    0    0  0.18541134238E+03  0.14853360980E+03 -0.10980972494E+03  0.27519935870E+03  0.85070042986E+02 0.  0.
          6    2    1    2  501    0 -0.17037984772E+03 -0.14326988022E+03  0.36059521943E+03  0.45746732918E+03  0.17231335962E+03 0.  0.
         24    2    5    5    0    0 -0.11015022741E+03 -0.12359921601E+02  0.18431067378E+03  0.22973205421E+03  0.80749935013E+02 0.  0.
          5    1    5    5  501    0 -0.60229620318E+02 -0.13090995862E+03  0.17628454565E+03  0.22773527497E+03  0.47000000000E+01 0. -1.
        -13    1    6    6    0    0 -0.62992732713E+02 -0.46843600322E+02  0.99269340415E+02  0.12655753321E+03  0.00000000000E+00 0.  1.
         14    1    6    6    0    0 -0.47157494692E+02  0.34483678721E+02  0.85041333362E+02  0.10317452100E+03  0.00000000000E+00 0. -1.
         -5    1    3    3    0  503 -0.15031494657E+02 -0.52637295801E+01 -0.42471078359E+02  0.45601920768E+02  0.47000000000E+01 0.  1.
         13    1    4    4    0    0  0.48881932737E+02  0.13494336185E+02  0.58194507837E+01  0.51043182352E+02  0.00000000000E+00 0. -1.
        -14    1    4    4    0    0  0.13652940964E+03  0.13503927361E+03 -0.11562917573E+03  0.22415617635E+03  0.00000000000E+00 0.  1.
<mgrwt>
<rscale>  2 0.28214288E+03</rscale>
<asrwt>0</asrwt>
<pdfrwt beam="1">  1       21 0.75891002E-01 0.28235442E+03</pdfrwt>
<pdfrwt beam="2">  1       21 0.43842630E-01 0.28235442E+03</pdfrwt>
<totfact> 0.73231410E+03</totfact>
</mgrwt>
</event>
<event>
12    1  0.1074575E-001  0.1873091E+03  0.7546771E-02  0.1161020E+00
         21   -1    0    0  503  502  0.00000000000E+00  0.00000000000E+00  0.12774280297E+04  0.12774280297E+04  0.00000000000E+00 0.  1.
         21   -1    0    0  501  503 -0.00000000000E+00 -0.00000000000E+00 -0.81198252002E+02  0.81198252002E+02  0.00000000000E+00 0.  1.
          6    2    1    2  501    0  0.62252777730E+02 -0.34582777725E+02  0.44896441445E+02  0.19215590467E+03  0.17273339109E+03 0.  0.
         24    2    3    3    0    0  0.56201890516E+02  0.17917558811E+02 -0.25658146474E+02  0.10387828322E+03  0.81563875789E+02 0.  0.
         -6    2    1    2    0  502 -0.62252777730E+02  0.34582777725E+02  0.11513333363E+04  0.11664703771E+04  0.17324350627E+03 0.  0.
        -24    2    5    5    0    0 -0.27053142311E+02  0.49685174677E+02  0.10863391865E+04  0.10908831676E+04  0.81809340085E+02 0.  0.
          5    1    3    3  501    0  0.60508872142E+01 -0.52500336536E+02  0.70554587919E+02  0.88277621450E+02  0.47000000000E+01 0. -1.
        -11    1    4    4    0    0  0.36628751740E+02 -0.23529809618E+02 -0.36460141977E+02  0.56786084102E+02  0.00000000000E+00 0.  1.
         12    1    4    4    0    0  0.19573138776E+02  0.41447368429E+02  0.10801995503E+02  0.47092199122E+02  0.00000000000E+00 0. -1.
         -5    1    5    5    0  502 -0.35199635419E+02 -0.15102396952E+02  0.64994149737E+02  0.75587209417E+02  0.47000000000E+01 0.  1.
         11    1    6    6    0    0 -0.26376407488E+02 -0.17654343894E+02  0.30486617223E+03  0.30651390458E+03  0.00000000000E+00 0. -1.
        -12    1    6    6    0    0 -0.67673482251E+00  0.67339518571E+02  0.78147301431E+03  0.78436926306E+03  0.00000000000E+00 0.  1.
<mgrwt>
<rscale>  2 0.18719104E+03</rscale>
<asrwt>0</asrwt>
<pdfrwt beam="1">  1       21 0.19652737E+00 0.18730907E+03</pdfrwt>
<pdfrwt beam="2">  1       21 0.12492040E-01 0.18730907E+03</pdfrwt>
<totfact> 0.77559956E+03</totfact>
</mgrwt>
</event>
<event>
12    1  0.1074575E-001  0.2083445E+03  0.7546771E-02  0.1142949E+00
         21   -1    0    0  503  502  0.00000000000E+00  0.00000000000E+00  0.13885451117E+03  0.13885451117E+03  0.00000000000E+00 0.  1.
         21   -1    0    0  501  503 -0.00000000000E+00 -0.00000000000E+00 -0.60127677003E+03  0.60127677003E+03  0.00000000000E+00 0.  1.
          6    2    1    2  501    0 -0.97506217631E+02 -0.60525463034E+02 -0.48793441582E+03  0.53055387143E+03  0.17388680860E+03 0.  0.
         24    2    3    3    0    0 -0.10145664646E+03 -0.23236054810E+02 -0.47103582229E+03  0.48915630729E+03  0.81029511487E+02 0.  0.
         -6    2    1    2    0  502  0.97506217631E+02  0.60525463034E+02  0.25512156953E+02  0.20957740977E+03  0.17349647368E+03 0.  0.
        -24    2    5    5    0    0  0.85096452305E+02  0.91254798547E+02 -0.24956583473E+02  0.14901770289E+03  0.77553853958E+02 0.  0.
          5    1    3    3  501    0  0.39504288276E+01 -0.37289408224E+02 -0.16898593528E+02  0.41397564142E+02  0.47000000000E+01 0. -1.
        -13    1    4    4    0    0 -0.74007386408E+02  0.12468738029E+02 -0.18577080774E+03  0.20035806867E+03  0.00000000000E+00 0.  1.
         14    1    4    4    0    0 -0.27449260050E+02 -0.35704792839E+02 -0.28526501455E+03  0.28879823862E+03  0.00000000000E+00 0. -1.
         -5    1    5    5    0  502  0.12409765325E+02 -0.30729335513E+02  0.50468740426E+02  0.60559706874E+02  0.47000000000E+01 0.  1.
         11    1    6    6    0    0  0.88321195707E+02  0.42910868807E+02 -0.20929237806E+02  0.10039924934E+03  0.00000000000E+00 0. -1.
        -12    1    6    6    0    0 -0.32247434015E+01  0.48343929740E+02 -0.40273456671E+01  0.48618453553E+02  0.00000000000E+00 0.  1.
<mgrwt>
<rscale>  2 0.20826300E+03</rscale>
<asrwt>0</asrwt>
<pdfrwt beam="1">  1       21 0.21362232E-01 0.20834447E+03</pdfrwt>
<pdfrwt beam="2">  1       21 0.92504119E-01 0.20834447E+03</pdfrwt>
<totfact> 0.19919191E+04</totfact>
</mgrwt>
</event>
<event>
12    1  0.1074575E-001  0.1758799E+03  0.7546771E-02  0.1172206E+00
         21   -1    0    0  501  502  0.00000000000E+00  0.00000000000E+00  0.55736483188E+03  0.55736483188E+03  0.00000000000E+00 0.  1.
         21   -1    0    0  502  503 -0.00000000000E+00 -0.00000000000E+00 -0.92514149610E+02  0.92514149610E+02  0.00000000000E+00 0.  1.
         -6    2    1    2    0  503  0.27384181214E+02 -0.11839114377E+02  0.26216983323E+02  0.17782316735E+03  0.17333115883E+03 0.  0.
        -24    2    3    3    0    0  0.45457554135E+02 -0.69331155599E+02  0.14207400963E+02  0.11619280404E+03  0.80160583233E+02 0.  0.
          6    2    1    2  501    0 -0.27384181214E+02  0.11839114377E+02  0.43863369895E+03  0.47205581415E+03  0.17189273343E+03 0.  0.
         24    2    5    5    0    0 -0.28969925002E+02 -0.65890388465E+01  0.92610350318E+02  0.12550659800E+03  0.79325640040E+02 0.  0.
          5    1    5    5  501    0  0.15857437880E+01  0.18428153224E+02  0.34602334863E+03  0.34654921615E+03  0.47000000000E+01 0. -1.
        -13    1    6    6    0    0 -0.48133443837E+02  0.16143311210E+02  0.38316728964E+02  0.63605083373E+02  0.00000000000E+00 0.  1.
         14    1    6    6    0    0  0.19163518835E+02 -0.22732350057E+02  0.54293621354E+02  0.61901514626E+02  0.00000000000E+00 0. -1.
         -5    1    3    3    0  503 -0.18073372920E+02  0.57492041222E+02  0.12009582360E+02  0.61630363305E+02  0.47000000000E+01 0.  1.
         11    1    4    4    0    0  0.23009321116E+02 -0.20475157935E+02  0.44774062432E+02  0.54344987048E+02  0.00000000000E+00 0. -1.
        -12    1    4    4    0    0  0.22448233019E+02 -0.48855997664E+02 -0.30566661469E+02  0.61847816993E+02  0.00000000000E+00 0.  1.
<mgrwt>
<rscale>  2 0.17552450E+03</rscale>
<asrwt>0</asrwt>
<pdfrwt beam="1">  1       21 0.85748433E-01 0.17587993E+03</pdfrwt>
<pdfrwt beam="2">  1       21 0.14232946E-01 0.17587993E+03</pdfrwt>
<totfact> 0.51099595E+04</totfact>
</mgrwt>
</event>
<event>
12    1  0.1074575E-001  0.2250729E+03  0.7546771E-02  0.1130308E+00
         21   -1    0    0  503  502  0.00000000000E+00  0.00000000000E+00  0.14288962400E+03  0.14288962400E+03  0.00000000000E+00 0. -1.
         21   -1    0    0  501  503 -0.00000000000E+00 -0.00000000000E+00 -0.61737751835E+03  0.61737751835E+03  0.00000000000E+00 0. -1.
          6    2    1    2  501    0  0.18962614901E+02 -0.14235533382E+03 -0.48615500810E+03  0.53572800522E+03  0.17330084202E+03 0.  0.
         24    2    3    3    0    0  0.51303125765E+02 -0.15264941861E+03 -0.33438116060E+03  0.38013472899E+03  0.82205814271E+02 0.  0.
         -6    2    1    2    0  502 -0.18962614901E+02  0.14235533382E+03  0.11667113755E+02  0.22453913712E+03  0.17221231293E+03 0.  0.
        -24    2    5    5    0    0  0.43085646366E+02  0.88092530789E+02 -0.31734718313E+02  0.13126401961E+03  0.81280278019E+02 0.  0.
          5    1    3    3  501    0 -0.32340510864E+02  0.10294084790E+02 -0.15177384750E+03  0.15559327624E+03  0.47000000000E+01 0. -1.
        -11    1    4    4    0    0  0.64050471933E+02 -0.74024200657E+02 -0.14795531400E+03  0.17740580650E+03  0.00000000000E+00 0.  1.
         12    1    4    4    0    0 -0.12747346167E+02 -0.78625217957E+02 -0.18642584660E+03  0.20272892249E+03  0.00000000000E+00 0. -1.
         -5    1    5    5    0  502 -0.62048261268E+02  0.54262803035E+02  0.43401832068E+02  0.93275117509E+02  0.47000000000E+01 0.  1.
         13    1    6    6    0    0  0.57472873772E+02  0.95035823256E+02 -0.30834548160E+02  0.11526364684E+03  0.00000000000E+00 0. -1.
        -14    1    6    6    0    0 -0.14387227405E+02 -0.69432924671E+01 -0.90017015308E+00  0.16000372777E+02  0.00000000000E+00 0.  1.
<mgrwt>
<rscale>  2 0.22486333E+03</rscale>
<asrwt>0</asrwt>
<pdfrwt beam="1">  1       21 0.21983019E-01 0.22507289E+03</pdfrwt>
<pdfrwt beam="2">  1       21 0.94981157E-01 0.22507289E+03</pdfrwt>
<totfact> 0.17566384E+04</totfact>
</mgrwt>
</event>
<event>
12    1  0.1074575E-001  0.1835948E+03  0.7546771E-02  0.1167331E+00
         21   -1    0    0  503  502  0.00000000000E+00  0.00000000000E+00  0.15945659456E+03  0.15945659456E+03  0.00000000000E+00 0.  1.
         21   -1    0    0  501  503 -0.00000000000E+00 -0.00000000000E+00 -0.23016983389E+03  0.23016983389E+03  0.00000000000E+00 0.  1.
          6    2    1    2  501    0  0.31181322180E+02  0.48171988395E+02 -0.10955856911E+03  0.21379931534E+03  0.17439682295E+03 0.  0.
         24    2    3    3    0    0 -0.44375877677E+02  0.10018033825E+02 -0.29878077780E+02  0.97456350801E+02  0.80842199737E+02 0.  0.
         -6    2    1    2    0  502 -0.31181322180E+02 -0.48171988395E+02  0.38845329780E+02  0.17582711311E+03  0.16159640695E+03 0.  0.
        -24    2    5    5    0    0 -0.87201696229E+01 -0.50059003238E+02 -0.34334573830E+02  0.99110410286E+02  0.77859266009E+02 0.  0.
          5    1    3    3  501    0  0.75557199857E+02  0.38153954570E+02 -0.79680491328E+02  0.11634296454E+03  0.47000000000E+01 0. -1.
        -11    1    4    4    0    0 -0.18164772652E+02  0.35866953134E+02 -0.42534582645E+02  0.58528523075E+02  0.00000000000E+00 0.  1.
         12    1    4    4    0    0 -0.26211105025E+02 -0.25848919309E+02  0.12656504864E+02  0.38927827726E+02  0.00000000000E+00 0. -1.
         -5    1    5    5    0  502 -0.22461152558E+02  0.18870148429E+01  0.73179903610E+02  0.76716702820E+02  0.47000000000E+01 0.  1.
         13    1    6    6    0    0 -0.19902381425E+02  0.15993778581E+02 -0.51991131709E+01  0.26056410295E+02  0.00000000000E+00 0. -1.
        -14    1    6    6    0    0  0.11182211802E+02 -0.66052781819E+02 -0.29135460659E+02  0.73053999991E+02  0.00000000000E+00 0.  1.
<mgrwt>
<rscale>  2 0.18048880E+03</rscale>
<asrwt>0</asrwt>
<pdfrwt beam="1">  1       21 0.24531784E-01 0.18359485E+03</pdfrwt>
<pdfrwt beam="2">  1       21 0.35410744E-01 0.18359485E+03</pdfrwt>
<totfact> 0.12112308E+05</totfact>
</mgrwt>
</event>
<event>
12    1  0.1074575E-001  0.2429093E+03  0.7546771E-02  0.1118006E+00
         21   -1    0    0  503  502  0.00000000000E+00  0.00000000000E+00  0.77051029638E+03  0.77051029638E+03  0.00000000000E+00 0. -1.
         21   -1    0    0  501  503 -0.00000000000E+00 -0.00000000000E+00 -0.87847981580E+02  0.87847981580E+02  0.00000000000E+00 0. -1.
          6    2    1    2  501    0  0.31201523915E+02  0.16695443576E+03  0.18533595494E+03  0.30487978546E+03  0.17249622800E+03 0.  0.
         24    2    3    3    0    0  0.29705319496E+02  0.18763089578E+02  0.41710211197E+02  0.98449753785E+02  0.81964338375E+02 0.  0.
         -6    2    1    2    0  502 -0.31201523915E+02 -0.16695443576E+03  0.49732635986E+03  0.55347849250E+03  0.17365947927E+03 0.  0.
        -24    2    5    5    0    0  0.35834101759E+01 -0.12018538956E+03  0.46681630384E+03  0.48752177306E+03  0.72819289906E+02 0.  0.
          5    1    3    3  501    0  0.14962044191E+01  0.14819134618E+03  0.14362574374E+03  0.20643003167E+03  0.47000000000E+01 0. -1.
        -13    1    4    4    0    0  0.99551651330E+01 -0.19753078917E+02  0.49730727903E+02  0.54428253116E+02  0.00000000000E+00 0.  1.
         14    1    4    4    0    0  0.19750154363E+02  0.38516168495E+02 -0.80205167062E+01  0.44021500669E+02  0.00000000000E+00 0. -1.
         -5    1    5    5    0  502 -0.34784934091E+02 -0.46769046196E+02  0.30510056023E+02  0.65956719448E+02  0.47000000000E+01 0.  1.
         13    1    6    6    0    0  0.18829569560E+02 -0.43073059591E+02  0.29314127378E+03  0.29688659038E+03  0.00000000000E+00 0. -1.
        -14    1    6    6    0    0 -0.15246159384E+02 -0.77112329969E+02  0.17367503005E+03  0.19063518267E+03  0.00000000000E+00 0.  1.
<mgrwt>
<rscale>  2 0.24270148E+03</rscale>
<asrwt>0</asrwt>
<pdfrwt beam="1">  1       21 0.11854004E+00 0.24290931E+03</pdfrwt>
<pdfrwt beam="2">  1       21 0.13515075E-01 0.24290931E+03</pdfrwt>
<totfact> 0.25078131E+04</totfact>
</mgrwt>
</event>
<event>
12    1  0.1074575E-001  0.1786270E+03  0.7546771E-02  0.1169142E+00
         21   -1    0    0  503  502  0.00000000000E+00  0.00000000000E+00  0.76234990514E+02  0.76234990514E+02  0.00000000000E+00 0. -1.
         21   -1    0    0  501  503 -0.00000000000E+00 -0.00000000000E+00 -0.45266143915E+03  0.45266143915E+03  0.00000000000E+00 0. -1.
          6    2    1    2  501    0  0.61779871606E+01 -0.47362470813E+02 -0.26085288682E+03  0.31615158578E+03  0.17212270466E+03 0.  0.
         24    2    3    3    0    0 -0.47917187798E+02 -0.79594335840E+02 -0.15905911327E+03  0.19636325825E+03  0.68025087240E+02 0.  0.
         -6    2    1    2    0  502 -0.61779871606E+01  0.47362470813E+02 -0.11557356181E+03  0.21274484388E+03  0.17210970119E+03 0.  0.
        -24    2    5    5    0    0 -0.61688354762E+02 -0.58877199279E+01 -0.67090274239E+02  0.12169703831E+03  0.80429757414E+02 0.  0.
          5    1    3    3  501    0  0.54095174959E+02  0.32231865027E+02 -0.10179377356E+03  0.11978832753E+03  0.47000000000E+01 0. -1.
        -13    1    4    4    0    0 -0.45200116630E+02 -0.22981612182E+02 -0.40294755931E+02  0.64767834590E+02  0.00000000000E+00 0.  1.
         14    1    4    4    0    0 -0.27170711677E+01 -0.56612723658E+02 -0.11876435733E+03  0.13159542366E+03  0.00000000000E+00 0. -1.
         -5    1    5    5    0  502  0.55510367601E+02  0.53250190741E+02 -0.48483287571E+02  0.91047805569E+02  0.47000000000E+01 0.  1.
         13    1    6    6    0    0 -0.37884727520E+02 -0.48540927458E+01 -0.84137184593E+02  0.92400652741E+02  0.00000000000E+00 0. -1.
        -14    1    6    6    0    0 -0.23803627241E+02 -0.10336271821E+01  0.17046910354E+02  0.29296385573E+02  0.00000000000E+00 0.  1.
<mgrwt>
<rscale>  2 0.17862384E+03</rscale>
<asrwt>0</asrwt>
<pdfrwt beam="1">  1       21 0.11728460E-01 0.17862698E+03</pdfrwt>
<pdfrwt beam="2">  1       21 0.69640223E-01 0.17862698E+03</pdfrwt>
<totfact> 0.11516387E+05</totfact>
</mgrwt>
</event>
<event>
12    1  0.1074575E-001  0.2336759E+03  0.7546771E-02  0.1124836E+00
         21   -1    0    0  503  502  0.00000000000E+00  0.00000000000E+00  0.10087281782E+03  0.10087281782E+03  0.00000000000E+00 0.  1.
         21   -1    0    0  501  503 -0.00000000000E+00 -0.00000000000E+00 -0.54630044684E+03  0.54630044684E+03  0.00000000000E+00 0.  1.
          6    2    1    2  501    0  0.15341960729E+03  0.32057211506E+02 -0.27429843982E+03  0.35753620981E+03  0.16741345982E+03 0.  0.
         24    2    3    3    0    0  0.10850664864E+03 -0.41019394875E+02 -0.14642719301E+03  0.20348910658E+03  0.80688351615E+02 0.  0.
         -6    2    1    2    0  502 -0.15341960729E+03 -0.32057211506E+02 -0.17112918920E+03  0.28963705485E+03  0.17331815669E+03 0.  0.
        -24    2    5    5    0    0 -0.23531633001E+02 -0.31191308450E+02 -0.22051571535E+02  0.91854695326E+02  0.80152216263E+02 0.  0.
          5    1    3    3  501    0  0.44912958642E+02  0.73076606381E+02 -0.12787124681E+03  0.15404710323E+03  0.47000000000E+01 0. -1.
        -11    1    4    4    0    0  0.69031330535E+02 -0.64209233175E+00 -0.12556430322E+03  0.14329037344E+03  0.00000000000E+00 0.  1.
         12    1    4    4    0    0  0.39475318110E+02 -0.40377302544E+02 -0.20862889791E+02  0.60198733135E+02  0.00000000000E+00 0. -1.
         -5    1    5    5    0  502 -0.12988797429E+03 -0.86590305595E+00 -0.14907761766E+03  0.19778235953E+03  0.47000000000E+01 0.  1.
         11    1    6    6    0    0  0.12838120803E+02 -0.45903140748E+02 -0.22295499585E+02  0.52621335768E+02  0.00000000000E+00 0. -1.
        -12    1    6    6    0    0 -0.36369753805E+02  0.14711832298E+02  0.24392804978E+00  0.39233359559E+02  0.00000000000E+00 0.  1.
<mgrwt>
<rscale>  2 0.23258190E+03</rscale>
<asrwt>0</asrwt>
<pdfrwt beam="1">  1       21 0.15518895E-01 0.23367590E+03</pdfrwt>
<pdfrwt beam="2">  1       21 0.84046220E-01 0.23367590E+03</pdfrwt>
<totfact> 0.44436450E+04</totfact>
</mgrwt>
</event>
<event>
12    1  0.1074575E-001  0.1734883E+03  0.7546771E-02  0.1174285E+00
         21   -1    0    0  501  502  0.00000000000E+00  0.00000000000E+00  0.51297860336E+03  0.51297860336E+03  0.00000000000E+00 0. -1.
         21   -1    0    0  502  503 -0.00000000000E+00 -0.00000000000E+00 -0.12028212386E+03  0.12028212386E+03  0.00000000000E+00 0. -1.
         -6    2    1    2    0  503 -0.49324884611E+01 -0.74998906182E+01 -0.30353341464E+02  0.17601970725E+03  0.17315032255E+03 0.  0.
        -24    2    3    3    0    0  0.73270279463E+01  0.61361531489E+02  0.78363904402E+01  0.96190283974E+02  0.73295558056E+02 0.  0.
          6    2    1    2  501    0  0.49324884611E+01  0.74998906182E+01  0.42304982097E+03  0.45724101997E+03  0.17325594223E+03 0.  0.
         24    2    5    5    0    0  0.39623196706E+01  0.66126028357E+02  0.33806001394E+03  0.35388086056E+03  0.80986041042E+02 0.  0.
          5    1    5    5  501    0  0.97016879056E+00 -0.58626137739E+02  0.84989807030E+02  0.10336015941E+03  0.47000000000E+01 0. -1.
        -11    1    6    6    0    0 -0.20328782483E+02  0.61823634560E+02  0.14114126040E+03  0.15542289592E+03  0.00000000000E+00 0.  1.
         12    1    6    6    0    0  0.24291102154E+02  0.43023937975E+01  0.19691875353E+03  0.19845796464E+03  0.00000000000E+00 0. -1.
         -5    1    3    3    0  503 -0.12259516407E+02 -0.68861422107E+02 -0.38189731904E+02  0.79829423273E+02  0.47000000000E+01 0.  1.
         11    1    4    4    0    0  0.13781266143E+02  0.51546191888E+02  0.36879333797E+02  0.64861532945E+02  0.00000000000E+00 0. -1.
        -12    1    4    4    0    0 -0.64542381970E+01  0.98153396010E+01 -0.29042943357E+02  0.31328751029E+02  0.00000000000E+00 0.  1.
<mgrwt>
<rscale>  2 0.17346195E+03</rscale>
<asrwt>0</asrwt>
<pdfrwt beam="1">  1       21 0.78919784E-01 0.17348833E+03</pdfrwt>
<pdfrwt beam="2">  1       21 0.18504942E-01 0.17348833E+03</pdfrwt>
<totfact> 0.38212869E+04</totfact>
</mgrwt>
</event>
<event>
12    1  0.1074575E-001  0.2446636E+03  0.7546771E-02  0.1116746E+00
         21   -1    0    0  501  502  0.00000000000E+00  0.00000000000E+00  0.12147940630E+03  0.12147940630E+03  0.00000000000E+00 0. -1.
         21   -1    0    0  502  503 -0.00000000000E+00 -0.00000000000E+00 -0.49721577746E+03  0.49721577746E+03  0.00000000000E+00 0. -1.
         -6    2    1    2    0  503  0.41767035877E+02 -0.16778369404E+03 -0.15769320035E+03  0.29097108326E+03  0.17291955525E+03 0.  0.
        -24    2    3    3    0    0  0.94588635439E+01 -0.17041481452E+02 -0.62586989562E+02  0.10976867162E+03  0.88046282243E+02 0.  0.
          6    2    1    2  501    0 -0.41767035877E+02  0.16778369404E+03 -0.21804317081E+03  0.32772410050E+03  0.17310230629E+03 0.  0.
         24    2    5    5    0    0  0.43864230057E+02  0.88909478701E+02 -0.10171945445E+03  0.16308160132E+03  0.80123624438E+02 0.  0.
          5    1    5    5  501    0 -0.85631265934E+02  0.78874215338E+02 -0.11632371636E+03  0.16464249919E+03  0.47000000000E+01 0. -1.
        -13    1    6    6    0    0  0.44275816000E+02  0.69326595582E+01 -0.44142007880E+02  0.62904105674E+02  0.00000000000E+00 0.  1.
         14    1    6    6    0    0 -0.41158594245E+00  0.81976819143E+02 -0.57577446569E+02  0.10017749564E+03  0.00000000000E+00 0. -1.
         -5    1    3    3    0  503  0.32308172333E+02 -0.15074221259E+03 -0.95106210792E+02  0.18120241165E+03  0.47000000000E+01 0.  1.
         13    1    4    4    0    0  0.42414180432E+02 -0.94700957731E+01 -0.62291963722E+02  0.75953499986E+02  0.00000000000E+00 0. -1.
        -14    1    4    4    0    0 -0.32955316889E+02 -0.75713856794E+01 -0.29502583981E+00  0.33815171633E+02  0.00000000000E+00 0.  1.
<mgrwt>
<rscale>  2 0.24463125E+03</rscale>
<asrwt>0</asrwt>
<pdfrwt beam="1">  1       21 0.18689139E-01 0.24466357E+03</pdfrwt>
<pdfrwt beam="2">  1       21 0.76494735E-01 0.24466357E+03</pdfrwt>
<totfact> 0.38845969E+04</totfact>
</mgrwt>
</event>
<event>
12    1  0.1074575E-001  0.2513629E+03  0.7546771E-02  0.1113068E+00
         21   -1    0    0  501  502  0.00000000000E+00  0.00000000000E+00  0.18344539130E+03  0.18344539130E+03  0.00000000000E+00 0. -1.
         21   -1    0    0  502  503 -0.00000000000E+00 -0.00000000000E+00 -0.49405018040E+03  0.49405018040E+03  0.00000000000E+00 0.  1.
         -6    2    1    2    0  503  0.17634991982E+03 -0.46204280606E+02  0.33583834734E+02  0.25359652549E+03  0.17305835438E+03 0.  0.
        -24    2    3    3    0    0  0.99030647422E+02 -0.48414631193E+00  0.82164601528E+02  0.15136746179E+03  0.79710621731E+02 0.  0.
          6    2    1    2  501    0 -0.17634991982E+03  0.46204280606E+02 -0.34418862383E+03  0.42389904621E+03  0.16730350517E+03 0.  0.
         24    2    5    5    0    0 -0.11599451308E+03 -0.20234199832E+02 -0.13751513244E+03  0.19852631306E+03  0.81474753267E+02 0.  0.
          5    1    5    5  501    0 -0.60355406731E+02  0.66438480438E+02 -0.20667349138E+03  0.22537273315E+03  0.47000000000E+01 0. -1.
        -11    1    6    6    0    0 -0.99657278241E+02 -0.99936582920E+01 -0.14633092350E+03  0.17732508420E+03  0.00000000000E+00 0.  1.
         12    1    6    6    0    0 -0.16337234844E+02 -0.10240541540E+02  0.88157910627E+01  0.21201228866E+02  0.00000000000E+00 0. -1.
         -5    1    3    3    0  503  0.77319272393E+02 -0.45720134295E+02 -0.48580766794E+02  0.10222906370E+03  0.47000000000E+01 0.  1.
         11    1    4    4    0    0 -0.64424354682E+01 -0.10364950400E+02  0.31816259282E+02  0.34076553908E+02  0.00000000000E+00 0. -1.
        -12    1    4    4    0    0  0.10547308289E+03  0.98808040882E+01  0.50348342246E+02  0.11729090788E+03  0.00000000000E+00 0.  1.
<mgrwt>
<rscale>  2 0.25037540E+03</rscale>
<asrwt>0</asrwt>
<pdfrwt beam="1">  1       21 0.28222368E-01 0.25136293E+03</pdfrwt>
<pdfrwt beam="2">  1       21 0.76007720E-01 0.25136293E+03</pdfrwt>
<totfact> 0.17915827E+04</totfact>
</mgrwt>
</event>
<event>
12    1  0.1074575E-001  0.2175077E+03  0.7546771E-02  0.1135968E+00
         21   -1    0    0  501  502  0.00000000000E+00  0.00000000000E+00  0.13838801954E+03  0.13838801954E+03  0.00000000000E+00 0. -1.
         21   -1    0    0  502  503 -0.00000000000E+00 -0.00000000000E+00 -0.35888566536E+03  0.35888566536E+03  0.00000000000E+00 0.  1.
         -6    2    1    2    0  503  0.12899292492E+03 -0.26129642624E+02 -0.53094336925E+02  0.22280427914E+03  0.17175798463E+03 0.  0.
        -24    2    3    3    0    0  0.24009150395E+02  0.28206691596E+02  0.11485293389E+02  0.88020568022E+02  0.79016780985E+02 0.  0.
          6    2    1    2  501    0 -0.12899292492E+03  0.26129642624E+02 -0.16740330889E+03  0.27446940576E+03  0.17316943717E+03 0.  0.
         24    2    5    5    0    0 -0.10795174232E+03 -0.43477999367E+02 -0.12728532623E+03  0.19128588743E+03  0.82733435557E+02 0.  0.
          5    1    5    5  501    0 -0.21041182599E+02  0.69607641992E+02 -0.40117982661E+02  0.83183518329E+02  0.47000000000E+01 0. -1.
        -11    1    6    6    0    0  0.13281323351E+01  0.16492374645E+02 -0.25291740789E+02  0.30223079079E+02  0.00000000000E+00 0.  1.
         12    1    6    6    0    0 -0.10927987466E+03 -0.59970374012E+02 -0.10199358544E+03  0.16106280835E+03  0.00000000000E+00 0. -1.
         -5    1    3    3    0  503  0.10498377453E+03 -0.54336334220E+02 -0.64579630314E+02  0.13478371112E+03  0.47000000000E+01 0.  1.
         13    1    4    4    0    0  0.13967895773E+02  0.16465248347E+01  0.43211818498E+02  0.45443089841E+02  0.00000000000E+00 0. -1.
        -14    1    4    4    0    0  0.10041254623E+02  0.26560166761E+02 -0.31726525109E+02  0.42577478181E+02  0.00000000000E+00 0.  1.
<mgrwt>
<rscale>  2 0.21722661E+03</rscale>
<asrwt>0</asrwt>
<pdfrwt beam="1">  1       21 0.21290464E-01 0.21750767E+03</pdfrwt>
<pdfrwt beam="2">  1       21 0.55213180E-01 0.21750767E+03</pdfrwt>
<totfact> 0.62810437E+04</totfact>
</mgrwt>
</event>
<event>
12    1  0.1074575E-001  0.2066775E+03  0.7546771E-02  0.1145290E+00
         21   -1    0    0  503  502  0.00000000000E+00  0.00000000000E+00  0.12242910668E+03  0.12242910668E+03  0.00000000000E+00 0. -1.
         21   -1    0    0  501  503 -0.00000000000E+00 -0.00000000000E+00 -0.42478179847E+03  0.42478179847E+03  0.00000000000E+00 0. -1.
          6    2    1    2  501    0  0.97192551851E+02 -0.32663650078E+02 -0.27173201345E+03  0.33827735463E+03  0.17343579606E+03 0.  0.
         24    2    3    3    0    0  0.12157085167E+03 -0.48319406349E+02 -0.26775149189E+03  0.30865744987E+03  0.80401013328E+02 0.  0.
         -6    2    1    2    0  502 -0.97192551851E+02  0.32663650078E+02 -0.30620678339E+02  0.20893355052E+03  0.17944998306E+03 0.  0.
        -24    2    5    5    0    0  0.20063873096E+02  0.22713329293E+02 -0.43858200073E+02  0.90420259886E+02  0.73033056578E+02 0.  0.
          5    1    3    3  501    0 -0.24378299818E+02  0.15655756271E+02 -0.39805215578E+01  0.29619904766E+02  0.47000000000E+01 0. -1.
        -11    1    4    4    0    0  0.76446141405E+02  0.12863072324E+02 -0.13685993246E+03  0.15728989884E+03  0.00000000000E+00 0.  1.
         12    1    4    4    0    0  0.45124710264E+02 -0.61182478673E+02 -0.13089155943E+03  0.15136755103E+03  0.00000000000E+00 0. -1.
         -5    1    5    5    0  502 -0.11725642495E+03  0.99503207848E+01  0.13237521734E+02  0.11851329063E+03  0.47000000000E+01 0.  1.
         13    1    6    6    0    0 -0.21114909611E+02  0.10581098431E+02  0.62567200829E+01  0.24432470159E+02  0.00000000000E+00 0. -1.
        -14    1    6    6    0    0  0.41178782706E+02  0.12132230862E+02 -0.50114920156E+02  0.65987789727E+02  0.00000000000E+00 0.  1.
<mgrwt>
<rscale>  2 0.20536514E+03</rscale>
<asrwt>0</asrwt>
<pdfrwt beam="1">  1       21 0.18835247E-01 0.20667753E+03</pdfrwt>
<pdfrwt beam="2">  1       21 0.65351046E-01 0.20667753E+03</pdfrwt>
<totfact> 0.55230251E+04</totfact>
</mgrwt>
</event>
<event>
12    1  0.1074575E-001  0.1884633E+03  0.7546771E-02  0.1161442E+00
         21   -1    0    0  503  502  0.00000000000E+00  0.00000000000E+00  0.31671077710E+03  0.31671077710E+03  0.00000000000E+00 0. -1.
         21   -1    0    0  501  503 -0.00000000000E+00 -0.00000000000E+00 -0.11826221011E+03  0.11826221011E+03  0.00000000000E+00 0. -1.
          6    2    1    2  501    0 -0.58943136550E+02  0.33573708457E+02  0.16122956870E+03  0.24286967407E+03  0.16849100128E+03 0.  0.
         24    2    3    3    0    0  0.70259356260E+01  0.48732118705E+02  0.36676677532E+02  0.10103452827E+03  0.80240974964E+02 0.  0.
         -6    2    1    2    0  502  0.58943136550E+02 -0.33573708457E+02  0.37218998292E+02  0.19210331314E+03  0.17583214109E+03 0.  0.
        -24    2    5    5    0    0  0.10544893243E+03 -0.96394060769E+01  0.15751276222E+02  0.13537066847E+03  0.82853603909E+02 0.  0.
          5    1    3    3  501    0 -0.65969072176E+02 -0.15158410248E+02  0.12455289117E+03  0.14183514580E+03  0.47000000000E+01 0. -1.
        -11    1    4    4    0    0 -0.66162584975E+01  0.60846110707E+02  0.49514932776E+02  0.78725806649E+02  0.00000000000E+00 0.  1.
         12    1    4    4    0    0  0.13642194124E+02 -0.12113992002E+02 -0.12838255244E+02  0.22308721622E+02  0.00000000000E+00 0. -1.
         -5    1    5    5    0  502 -0.46505795876E+02 -0.23934302381E+02  0.21467722070E+02  0.56732644671E+02  0.47000000000E+01 0.  1.
         13    1    6    6    0    0  0.92897942688E+02  0.62437760609E+01 -0.19118973761E+02  0.95050237521E+02  0.00000000000E+00 0. -1.
        -14    1    6    6    0    0  0.12550989738E+02 -0.15883182138E+02  0.34870249982E+02  0.40320430951E+02  0.00000000000E+00 0.  1.
<mgrwt>
<rscale>  2 0.18673215E+03</rscale>
<asrwt>0</asrwt>
<pdfrwt beam="1">  1       21 0.48724735E-01 0.18846334E+03</pdfrwt>
<pdfrwt beam="2">  1       21 0.18194186E-01 0.18846334E+03</pdfrwt>
<totfact> 0.11084162E+05</totfact>
</mgrwt>
</event>
<event>
12    1  0.1074575E-001  0.1851917E+03  0.7546771E-02  0.1163183E+00
         21   -1    0    0  503  502  0.00000000000E+00  0.00000000000E+00  0.17060707569E+04  0.17060707569E+04  0.00000000000E+00 0. -1.
         21   -1    0    0  501  503 -0.00000000000E+00 -0.00000000000E+00 -0.28229212407E+02  0.28229212407E+02  0.00000000000E+00 0. -1.
          6    2    1    2  501    0  0.22889283875E+02  0.56424814621E+02  0.36739559530E+03  0.41083309687E+03  0.17348380621E+03 0.  0.
         24    2    3    3    0    0  0.13327083159E+02  0.89280982812E+02  0.18550501461E+03  0.22569197012E+03  0.91520762095E+02 0.  0.
         -6    2    1    2    0  502 -0.22889283875E+02 -0.56424814621E+02  0.13104459492E+04  0.13234668724E+04  0.17489510472E+03 0.  0.
        -24    2    5    5    0    0 -0.21487108831E+02  0.31742262772E+02  0.44625842815E+03  0.45477960929E+03  0.78794931533E+02 0.  0.
          5    1    3    3  501    0  0.95622007166E+01 -0.32856168192E+02  0.18189058069E+03  0.18514112675E+03  0.47000000000E+01 0. -1.
        -11    1    4    4    0    0 -0.25037710922E+02 -0.59102557068E+01  0.32413558592E+02  0.41381842290E+02  0.00000000000E+00 0.  1.
         12    1    4    4    0    0  0.38364794080E+02  0.95191238519E+02  0.15309145601E+03  0.18431012783E+03  0.00000000000E+00 0. -1.
         -5    1    5    5    0  502 -0.14021750444E+01 -0.88167077393E+02  0.86418752102E+03  0.86868726312E+03  0.47000000000E+01 0.  1.
         11    1    6    6    0    0  0.72234107599E+01  0.19925039521E+01  0.34922409827E+03  0.34930447829E+03  0.00000000000E+00 0. -1.
        -12    1    6    6    0    0 -0.28710519591E+02  0.29749758820E+02  0.97034329878E+02  0.10547513100E+03  0.00000000000E+00 0.  1.
<mgrwt>
<rscale>  2 0.18485777E+03</rscale>
<asrwt>0</asrwt>
<pdfrwt beam="1">  1       21 0.26247234E+00 0.18519173E+03</pdfrwt>
<pdfrwt beam="2">  1       21 0.43429571E-02 0.18519173E+03</pdfrwt>
<totfact> 0.19317260E+04</totfact>
</mgrwt>
</event>
<event>
12    1  0.1074575E-001  0.1949516E+03  0.7546771E-02  0.1154316E+00
         21   -1    0    0  503  502  0.00000000000E+00  0.00000000000E+00  0.36292979001E+03  0.36292979001E+03  0.00000000000E+00 0. -1.
         21   -1    0    0  501  503 -0.00000000000E+00 -0.00000000000E+00 -0.11460195510E+03  0.11460195510E+03  0.00000000000E+00 0.  1.
          6    2    1    2  501    0 -0.68109772832E+02  0.56350115529E+02  0.52265542149E+02  0.20183612662E+03  0.17375804567E+03 0.  0.
         24    2    3    3    0    0 -0.58951043320E+02  0.83598303574E+02 -0.11998954912E+02  0.13127862056E+03  0.81401470683E+02 0.  0.
         -6    2    1    2    0  502  0.68109772832E+02 -0.56350115529E+02  0.19606229276E+03  0.27569561849E+03  0.17249166571E+03 0.  0.
        -24    2    5    5    0    0  0.95757769241E+02  0.75376678955E+01  0.11409768655E+03  0.16805572233E+03  0.77447252525E+02 0.  0.
          5    1    3    3  501    0 -0.91587295121E+01 -0.27248188045E+02  0.64264497062E+02  0.70557506054E+02  0.47000000000E+01 0. -1.
        -13    1    4    4    0    0  0.57412010545E+01 -0.11542106771E+01 -0.23333064685E+02  0.24056714228E+02  0.00000000000E+00 0.  1.
         14    1    4    4    0    0 -0.64692244374E+02  0.84752514251E+02  0.11334109773E+02  0.10722190634E+03  0.00000000000E+00 0. -1.
         -5    1    5    5    0  502 -0.27647996409E+02 -0.63887783424E+02  0.81964606205E+02  0.10763989617E+03  0.47000000000E+01 0.  1.
         11    1    6    6    0    0  0.83745988463E+02 -0.22991099254E+02  0.99725041644E+02  0.13223866741E+03  0.00000000000E+00 0. -1.
        -12    1    6    6    0    0  0.12011780779E+02  0.30528767150E+02  0.14372644908E+02  0.35817054916E+02  0.00000000000E+00 0.  1.
<mgrwt>
<rscale>  2 0.19466904E+03</rscale>
<asrwt>0</asrwt>
<pdfrwt beam="1">  1       21 0.55835352E-01 0.19495162E+03</pdfrwt>
<pdfrwt beam="2">  1       21 0.17631070E-01 0.19495162E+03</pdfrwt>
<totfact> 0.88047650E+04</totfact>
</mgrwt>
</event>
<event>
12    1  0.1074575E-001  0.1817101E+03  0.7546771E-02  0.1166396E+00
         21   -1    0    0  503  502  0.00000000000E+00  0.00000000000E+00  0.11929250032E+03  0.11929250032E+03  0.00000000000E+00 0. -1.
         21   -1    0    0  501  503 -0.00000000000E+00 -0.00000000000E+00 -0.31336000246E+03  0.31336000246E+03  0.00000000000E+00 0. -1.
          6    2    1    2  501    0  0.53920015347E+01  0.53259873486E+02 -0.21387064388E+02  0.18197920229E+03  0.17260746143E+03 0.  0.
         24    2    3    3    0    0 -0.39316464858E+02  0.25841707583E+02 -0.65747803121E+02  0.11312741997E+03  0.79129395761E+02 0.  0.
         -6    2    1    2    0  502 -0.53920015347E+01 -0.53259873486E+02 -0.17268043775E+03  0.25067330049E+03  0.17364585280E+03 0.  0.
        -24    2    5    5    0    0 -0.52125191685E+02 -0.30642409841E+02 -0.17081894207E+03  0.19850917595E+03  0.81060403871E+02 0.  0.
          5    1    3    3  501    0  0.44708466393E+02  0.27418165903E+02  0.44360738733E+02  0.68851782327E+02  0.47000000000E+01 0. -1.
        -11    1    4    4    0    0 -0.28467680197E+02 -0.18219140128E+02 -0.57949070024E+02  0.67085323278E+02  0.00000000000E+00 0.  1.
         12    1    4    4    0    0 -0.10848784662E+02  0.44060847710E+02 -0.77987330974E+01  0.46042096689E+02  0.00000000000E+00 0. -1.
         -5    1    5    5    0  502  0.46733190150E+02 -0.22617463645E+02 -0.18614956784E+01  0.52164124544E+02  0.47000000000E+01 0.  1.
         13    1    6    6    0    0 -0.61874865407E+02 -0.21958244398E+02 -0.66763331058E+02  0.93637630471E+02  0.00000000000E+00 0. -1.
        -14    1    6    6    0    0  0.97496737223E+01 -0.86841654423E+01 -0.10405561102E+03  0.10487154548E+03  0.00000000000E+00 0.  1.
<mgrwt>
<rscale>  2 0.18146160E+03</rscale>
<asrwt>0</asrwt>
<pdfrwt beam="1">  1       21 0.18352693E-01 0.18171013E+03</pdfrwt>
<pdfrwt beam="2">  1       21 0.48209231E-01 0.18171013E+03</pdfrwt>
<totfact> 0.11178213E+05</totfact>
</mgrwt>
</event>
<event>
12    1  0.1074575E-001  0.1804828E+03  0.7546771E-02  0.1167798E+00
         21   -1    0    0  503  502  0.00000000000E+00  0.00000000000E+00  0.42615164688E+02  0.42615164688E+02  0.00000000000E+00 0.  1.
         21   -1    0    0  501  503 -0.00000000000E+00 -0.00000000000E+00 -0.75696292025E+03  0.75696292025E+03  0.00000000000E+00 0.  1.
          6    2    1    2  501    0  0.47650670179E+02  0.91565585521E+01 -0.34379200434E+03  0.38740626987E+03  0.17186112636E+03 0.  0.
         24    2    3    3    0    0  0.10685216743E+02 -0.42626674413E+02 -0.94906770986E+02  0.13047457205E+03  0.78007124958E+02 0.  0.
         -6    2    1    2    0  502 -0.47650670179E+02 -0.91565585521E+01 -0.37055575122E+03  0.41217181507E+03  0.17383788838E+03 0.  0.
        -24    2    5    5    0    0  0.41942091756E+01  0.37746579519E+02 -0.30192378603E+03  0.31408903104E+03  0.77791716733E+02 0.  0.
          5    1    3    3  501    0  0.36965453436E+02  0.51783232965E+02 -0.24888523335E+03  0.25693169782E+03  0.47000000000E+01 0. -1.
        -13    1    4    4    0    0  0.43644530579E+02 -0.16191868605E+02 -0.58029444450E+02  0.74393804053E+02  0.00000000000E+00 0.  1.
         14    1    4    4    0    0 -0.32959313835E+02 -0.26434805808E+02 -0.36877326536E+02  0.56080767996E+02  0.00000000000E+00 0. -1.
         -5    1    5    5    0  502 -0.51844879355E+02 -0.46903138071E+02 -0.68631965191E+02  0.98082784026E+02  0.47000000000E+01 0.  1.
         11    1    6    6    0    0  0.25324972518E+02 -0.11941033236E+02 -0.59975163849E+02  0.66188841858E+02  0.00000000000E+00 0. -1.
        -12    1    6    6    0    0 -0.21130763342E+02  0.49687612755E+02 -0.24194862218E+03  0.24790018918E+03  0.00000000000E+00 0.  1.
<mgrwt>
<rscale>  2 0.18000511E+03</rscale>
<asrwt>0</asrwt>
<pdfrwt beam="1">  1       21 0.65561796E-02 0.18048280E+03</pdfrwt>
<pdfrwt beam="2">  1       21 0.11645583E+00 0.18048280E+03</pdfrwt>
<totfact> 0.96788570E+04</totfact>
</mgrwt>
</event>
<event>
12    1  0.1074575E-001  0.2699268E+03  0.7546771E-02  0.1101328E+00
         21   -1    0    0  501  502  0.00000000000E+00  0.00000000000E+00  0.96578582234E+02  0.96578582234E+02  0.00000000000E+00 0.  1.
         21   -1    0    0  502  503 -0.00000000000E+00 -0.00000000000E+00 -0.75999712671E+03  0.75999712671E+03  0.00000000000E+00 0. -1.
         -6    2    1    2    0  503 -0.20597252499E+03  0.12317924309E+02 -0.29463683064E+03  0.39958894479E+03  0.17402313214E+03 0.  0.
        -24    2    3    3    0    0 -0.99335537388E+02 -0.56822969655E+02 -0.18391762463E+03  0.23096883056E+03  0.80153035957E+02 0.  0.
          6    2    1    2  501    0  0.20597252499E+03 -0.12317924309E+02 -0.36878171383E+03  0.45698676415E+03  0.17395556285E+03 0.  0.
         24    2    5    5    0    0  0.85789904018E+02 -0.20236472148E+02 -0.83671559815E+02  0.14744443150E+03  0.83483579351E+02 0.  0.
          5    1    5    5  501    0  0.12018262097E+03  0.79185478391E+01 -0.28511015402E+03  0.30954233265E+03  0.47000000000E+01 0. -1.
        -13    1    6    6    0    0  0.84371045068E+02 -0.36011684229E+02 -0.91681745433E+02  0.12969524699E+03  0.00000000000E+00 0.  1.
         14    1    6    6    0    0  0.14188589498E+01  0.15775212081E+02  0.80101856188E+01  0.17749184504E+02  0.00000000000E+00 0. -1.
         -5    1    3    3    0  503 -0.10663698760E+03  0.69140893964E+02 -0.11071920601E+03  0.16862011423E+03  0.47000000000E+01 0.  1.
         13    1    4    4    0    0 -0.14065260961E+02 -0.52098523572E+02 -0.63332551765E+02  0.83205167131E+02  0.00000000000E+00 0. -1.
        -14    1    4    4    0    0 -0.85270276427E+02 -0.47244460835E+01 -0.12058507286E+03  0.14776366343E+03  0.00000000000E+00 0.  1.
<mgrwt>
<rscale>  2 0.26991588E+03</rscale>
<asrwt>0</asrwt>
<pdfrwt beam="1">  1       21 0.14858244E-01 0.26992677E+03</pdfrwt>
<pdfrwt beam="2">  1       21 0.11692263E+00 0.26992677E+03</pdfrwt>
<totfact> 0.21542582E+04</totfact>
</mgrwt>
</event>
<event>
12    1  0.1074575E-001  0.2107775E+03  0.7546771E-02  0.1140975E+00
         21   -1    0    0  501  502  0.00000000000E+00  0.00000000000E+00  0.41113011501E+03  0.41113011501E+03  0.00000000000E+00 0. -1.
         21   -1    0    0  502  503 -0.00000000000E+00 -0.00000000000E+00 -0.10864544323E+03  0.10864544323E+03  0.00000000000E+00 0. -1.
         -6    2    1    2    0  503 -0.67555507625E+02  0.99814344244E+02  0.17123546876E+03  0.27147431890E+03  0.17277172840E+03 0.  0.
        -24    2    3    3    0    0 -0.58889153493E+02 -0.10080036037E+02  0.84892997319E+02  0.13137081114E+03  0.80510431007E+02 0.  0.
          6    2    1    2  501    0  0.67555507625E+02 -0.99814344244E+02  0.13124920301E+03  0.24830123934E+03  0.17291761692E+03 0.  0.
         24    2    5    5    0    0 -0.20087171734E+02 -0.71278603310E+02  0.73391894544E+02  0.13937426427E+03  0.92491521758E+02 0.  0.
          5    1    5    5  501    0  0.87642679359E+02 -0.28535740934E+02  0.57857308469E+02  0.10892697508E+03  0.47000000000E+01 0. -1.
        -11    1    6    6    0    0 -0.17168444149E+02 -0.71731195954E+02  0.93477817362E+02  0.11907234056E+03  0.00000000000E+00 0.  1.
         12    1    6    6    0    0 -0.29187275850E+01  0.45259264472E+00 -0.20085922817E+02  0.20301923708E+02  0.00000000000E+00 0. -1.
         -5    1    3    3    0  503 -0.86663541317E+01  0.10989438028E+03  0.86342471441E+02  0.14010350776E+03  0.47000000000E+01 0.  1.
         13    1    4    4    0    0  0.10264500432E+02  0.21355576521E+02  0.26569316389E+02  0.35599848189E+02  0.00000000000E+00 0. -1.
        -14    1    4    4    0    0 -0.69153653925E+02 -0.31435612558E+02  0.58323680929E+02  0.95770962954E+02  0.00000000000E+00 0.  1.
<mgrwt>
<rscale>  2 0.21074757E+03</rscale>
<asrwt>0</asrwt>
<pdfrwt beam="1">  1       21 0.63250786E-01 0.21077749E+03</pdfrwt>
<pdfrwt beam="2">  1       21 0.16714684E-01 0.21077749E+03</pdfrwt>
<totfact> 0.73830157E+04</totfact>
</mgrwt>
</event>
<event>
12    1  0.1074575E-001  0.2812260E+03  0.7546771E-02  0.1095502E+00
         21   -1    0    0  501  502  0.00000000000E+00  0.00000000000E+00  0.69017162236E+03  0.69017162236E+03  0.00000000000E+00 0.  1.
         21   -1    0    0  502  503 -0.00000000000E+00 -0.00000000000E+00 -0.21236082238E+03  0.21236082238E+03  0.00000000000E+00 0. -1.
         -6    2    1    2    0  503  0.32068376678E+02 -0.21973127827E+03 -0.70316180965E+02  0.28647136886E+03  0.16676709639E+03 0.  0.
        -24    2    3    3    0    0 -0.10846379511E+02 -0.21580102251E+03 -0.48215054018E+02  0.23781262842E+03  0.86847161955E+02 0.  0.
          6    2    1    2  501    0 -0.32068376678E+02  0.21973127827E+03  0.54812698094E+03  0.61606107587E+03  0.17256258730E+03 0.  0.
         24    2    5    5    0    0  0.30134522913E+02  0.50115349790E+02  0.22077650568E+03  0.24213703603E+03  0.80426618758E+02 0.  0.
          5    1    5    5  501    0 -0.62202899591E+02  0.16961592848E+03  0.32735047527E+03  0.37392403984E+03  0.47000000000E+01 0. -1.
        -13    1    6    6    0    0  0.17137648354E+02 -0.11711484012E+02  0.12935198180E+03  0.13100684350E+03  0.00000000000E+00 0.  1.
         14    1    6    6    0    0  0.12996874559E+02  0.61826833802E+02  0.91424523882E+02  0.11113019254E+03  0.00000000000E+00 0. -1.
         -5    1    3    3    0  503  0.42914756190E+02 -0.39302557679E+01 -0.22101126948E+02  0.48658740444E+02  0.47000000000E+01 0.  1.
         11    1    4    4    0    0  0.16410986244E+02 -0.19666461364E+03 -0.29298414212E+02  0.19951112201E+03  0.00000000000E+00 0. -1.
        -12    1    4    4    0    0 -0.27257365755E+02 -0.19136408861E+02 -0.18916639806E+02  0.38301506414E+02  0.00000000000E+00 0.  1.
<mgrwt>
<rscale>  2 0.28034223E+03</rscale>
<asrwt>0</asrwt>
<pdfrwt beam="1">  1       21 0.10618025E+00 0.28122600E+03</pdfrwt>
<pdfrwt beam="2">  1       21 0.32670896E-01 0.28122600E+03</pdfrwt>
<totfact> 0.60528666E+03</totfact>
</mgrwt>
</event>
<event>
12    1  0.1074575E-001  0.1858950E+03  0.7546771E-02  0.1163071E+00
         21   -1    0    0  503  502  0.00000000000E+00  0.00000000000E+00  0.24407337952E+03  0.24407337952E+03  0.00000000000E+00 0. -1.
         21   -1    0    0  501  503 -0.00000000000E+00 -0.00000000000E+00 -0.19198696980E+03  0.19198696980E+03  0.00000000000E+00 0. -1.
          6    2    1    2  501    0  0.56560017267E+02  0.34132520892E+02 -0.88499922676E+02  0.20588636028E+03  0.17376102124E+03 0.  0.
         24    2    3    3    0    0  0.11267172752E+02  0.84182603466E+02 -0.58573973503E+02  0.13189916569E+03  0.82175541552E+02 0.  0.
         -6    2    1    2    0  502 -0.56560017267E+02 -0.34132520892E+02  0.14058633240E+03  0.23017398904E+03  0.16985724546E+03 0.  0.
        -24    2    5    5    0    0 -0.61156635394E+02 -0.82367932955E+02  0.12090330282E+03  0.17766403257E+03  0.80139187685E+02 0.  0.
          5    1    3    3  501    0  0.45292844515E+02 -0.50050082574E+02 -0.29925949172E+02  0.73987194593E+02  0.47000000000E+01 0. -1.
        -13    1    4    4    0    0 -0.25097767602E+02  0.20105086510E+02 -0.47548026754E+02  0.57401457214E+02  0.00000000000E+00 0.  1.
         14    1    4    4    0    0  0.36364940354E+02  0.64077516956E+02 -0.11025946750E+02  0.74497708475E+02  0.00000000000E+00 0. -1.
         -5    1    5    5    0  502  0.45966181269E+01  0.48235412063E+02  0.19683029580E+02  0.52509956471E+02  0.47000000000E+01 0.  1.
         13    1    6    6    0    0 -0.17203136487E+02 -0.24996646812E+02  0.96851902663E+02  0.10149419346E+03  0.00000000000E+00 0. -1.
        -14    1    6    6    0    0 -0.43953498907E+02 -0.57371286144E+02  0.24051400158E+02  0.76169839107E+02  0.00000000000E+00 0.  1.
<mgrwt>
<rscale>  2 0.18497732E+03</rscale>
<asrwt>0</asrwt>
<pdfrwt beam="1">  1       21 0.37549751E-01 0.18589502E+03</pdfrwt>
<pdfrwt beam="2">  1       21 0.29536457E-01 0.18589502E+03</pdfrwt>
<totfact> 0.75342305E+04</totfact>
</mgrwt>
</event>
<event>
12    1  0.1074575E-001  0.4529513E+03  0.7546771E-02  0.1026865E+00
         21   -1    0    0  501  502  0.00000000000E+00  0.00000000000E+00  0.18108148634E+04  0.18108148634E+04  0.00000000000E+00 0. -1.
         21   -1    0    0  502  503 -0.00000000000E+00 -0.00000000000E+00 -0.26000264711E+03  0.26000264711E+03  0.00000000000E+00 0.  1.
         -6    2    1    2    0  503  0.35799020728E+03  0.21602270059E+03 -0.26253201277E+01  0.45269111361E+03  0.17349223717E+03 0.  0.
        -24    2    3    3    0    0  0.33882056800E+03  0.14288657880E+03 -0.13658665814E+02  0.37613922207E+03  0.77962834295E+02 0.  0.
          6    2    1    2  501    0 -0.35799020728E+03 -0.21602270059E+03  0.15534375364E+04  0.16181263969E+04  0.17418972733E+03 0.  0.
         24    2    5    5    0    0 -0.28576616933E+03 -0.19487768205E+03  0.10353921521E+04  0.10946223056E+04  0.80755610585E+02 0.  0.
          5    1    5    5  501    0 -0.72224037953E+02 -0.21145018537E+02  0.51804538429E+03  0.52350409134E+03  0.47000000000E+01 0. -1.
        -11    1    6    6    0    0 -0.28215524161E+03 -0.18258535169E+03  0.93797779242E+03  0.99636907323E+03  0.00000000000E+00 0.  1.
         12    1    6    6    0    0 -0.36109277147E+01 -0.12292330357E+02  0.97414359726E+02  0.98253232340E+02  0.00000000000E+00 0. -1.
         -5    1    3    3    0  503  0.19169639282E+02  0.73136121788E+02  0.11033345686E+02  0.76551891534E+02  0.47000000000E+01 0.  1.
         11    1    4    4    0    0  0.37360618722E+01  0.78525561805E+00  0.10694069767E+02  0.11355083130E+02  0.00000000000E+00 0. -1.
        -12    1    4    4    0    0  0.33508450612E+03  0.14210132318E+03 -0.24352735580E+02  0.36478413894E+03  0.00000000000E+00 0.  1.
<mgrwt>
<rscale>  2 0.45288432E+03</rscale>
<asrwt>0</asrwt>
<pdfrwt beam="1">  1       21 0.27858689E+00 0.45295127E+03</pdfrwt>
<pdfrwt beam="2">  1       21 0.40000408E-01 0.45295127E+03</pdfrwt>
<totfact> 0.21541823E+02</totfact>
</mgrwt>
</event>
<event>
12    1  0.1074575E-001  0.2441158E+03  0.7546771E-02  0.1117192E+00
         21   -1    0    0  501  502  0.00000000000E+00  0.00000000000E+00  0.16557473062E+03  0.16557473062E+03  0.00000000000E+00 0. -1.
         21   -1    0    0  502  503 -0.00000000000E+00 -0.00000000000E+00 -0.37168615222E+03  0.37168615222E+03  0.00000000000E+00 0.  1.
         -6    2    1    2    0  503  0.10823631424E+03  0.13395357341E+03 -0.15300246004E+03  0.28810117701E+03  0.17301409153E+03 0.  0.
        -24    2    3    3    0    0  0.38989958525E+02  0.12673541600E+03 -0.15422749130E+03  0.21831041632E+03  0.79317313797E+02 0.  0.
          6    2    1    2  501    0 -0.10823631424E+03 -0.13395357341E+03 -0.53108961566E+02  0.24915970583E+03  0.17205039279E+03 0.  0.
         24    2    5    5    0    0 -0.11387193606E+03 -0.48751947315E+02 -0.67816648844E+02  0.16238710999E+03  0.80167982651E+02 0.  0.
          5    1    5    5  501    0  0.56356218236E+01 -0.85201626094E+02  0.14707687278E+02  0.86772595832E+02  0.47000000000E+01 0. -1.
        -13    1    6    6    0    0 -0.29782655508E+02  0.20306397848E+02 -0.30915682175E+02  0.47488269783E+02  0.00000000000E+00 0.  1.
         14    1    6    6    0    0 -0.84089280554E+02 -0.69058345163E+02 -0.36900966669E+02  0.11489884021E+03  0.00000000000E+00 0. -1.
         -5    1    3    3    0  503  0.69246355713E+02  0.72181574052E+01  0.12250312567E+01  0.69790760688E+02  0.47000000000E+01 0.  1.
         11    1    4    4    0    0 -0.23066250543E+02  0.24118297358E+02 -0.22939280940E+02  0.40496355288E+02  0.00000000000E+00 0. -1.
        -12    1    4    4    0    0  0.62056209068E+02  0.10261711865E+03 -0.13128821036E+03  0.17781406103E+03  0.00000000000E+00 0.  1.
<mgrwt>
<rscale>  2 0.24394513E+03</rscale>
<asrwt>0</asrwt>
<pdfrwt beam="1">  1       21 0.25473036E-01 0.24411582E+03</pdfrwt>
<pdfrwt beam="2">  1       21 0.57182484E-01 0.24411582E+03</pdfrwt>
<totfact> 0.40958857E+04</totfact>
</mgrwt>
</event>
<event>
12    1  0.1074575E-001  0.3428541E+03  0.7546771E-02  0.1066074E+00
         21   -1    0    0  501  502  0.00000000000E+00  0.00000000000E+00  0.30490757401E+03  0.30490757401E+03  0.00000000000E+00 0.  1.
         21   -1    0    0  502  503 -0.00000000000E+00 -0.00000000000E+00 -0.41482864571E+03  0.41482864571E+03  0.00000000000E+00 0.  1.
         -6    2    1    2    0  503 -0.26713553028E+03  0.12551253799E+03 -0.15899844542E+03  0.37792779300E+03  0.17445378284E+03 0.  0.
        -24    2    3    3    0    0 -0.37084761875E+02  0.35620749645E+02 -0.45242014852E+02  0.10595995455E+03  0.80848962221E+02 0.  0.
          6    2    1    2  501    0  0.26713553028E+03 -0.12551253799E+03  0.49077373718E+02  0.34180842673E+03  0.16525623510E+03 0.  0.
         24    2    5    5    0    0  0.19127074955E+03 -0.13652830299E+03 -0.50768594967E+01  0.24783192430E+03  0.78551964004E+02 0.  0.
          5    1    5    5  501    0  0.75864780726E+02  0.11015764998E+02  0.54154233214E+02  0.93976502425E+02  0.47000000000E+01 0. -1.
        -13    1    6    6    0    0  0.12905510871E+03 -0.50416299988E+02 -0.21896269342E+02  0.14027284484E+03  0.00000000000E+00 0.  1.
         14    1    6    6    0    0  0.62215640839E+02 -0.86112003005E+02  0.16819409846E+02  0.10755907946E+03  0.00000000000E+00 0. -1.
         -5    1    3    3    0  503 -0.23005076840E+03  0.89891788349E+02 -0.11375643057E+03  0.27196783845E+03  0.47000000000E+01 0.  1.
         11    1    4    4    0    0 -0.96973868376E+01 -0.24680769006E+02 -0.25650692560E+02  0.36893599702E+02  0.00000000000E+00 0. -1.
        -12    1    4    4    0    0 -0.27387375037E+02  0.60301518652E+02 -0.19591322292E+02  0.69066354850E+02  0.00000000000E+00 0.  1.
<mgrwt>
<rscale>  2 0.34170144E+03</rscale>
<asrwt>0</asrwt>
<pdfrwt beam="1">  1       21 0.46908858E-01 0.34285407E+03</pdfrwt>
<pdfrwt beam="2">  1       21 0.63819792E-01 0.34285407E+03</pdfrwt>
<totfact> 0.91117075E+03</totfact>
</mgrwt>
</event>
<event>
12    1  0.1074575E-001  0.1879711E+03  0.7546771E-02  0.1160742E+00
         21   -1    0    0  503  502  0.00000000000E+00  0.00000000000E+00  0.30841131829E+03  0.30841131829E+03  0.00000000000E+00 0. -1.
         21   -1    0    0  501  503 -0.00000000000E+00 -0.00000000000E+00 -0.13050610946E+03  0.13050610946E+03  0.00000000000E+00 0. -1.
          6    2    1    2  501    0  0.42679556166E+02 -0.60873660779E+02  0.91216421878E+01  0.18628920231E+03  0.17056762720E+03 0.  0.
         24    2    3    3    0    0 -0.27793756422E+02 -0.64630389496E+02 -0.16029648191E+02  0.11122071221E+03  0.84637562946E+02 0.  0.
         -6    2    1    2    0  502 -0.42679556166E+02  0.60873660779E+02  0.16878356664E+03  0.25262822544E+03  0.17264408715E+03 0.  0.
        -24    2    5    5    0    0 -0.65626018435E+02 -0.16660560612E+02  0.80100695182E+02  0.13252478124E+03  0.81008318701E+02 0.  0.
          5    1    3    3  501    0  0.70473312588E+02  0.37567287167E+01  0.25151290379E+02  0.75068490097E+02  0.47000000000E+01 0. -1.
        -13    1    4    4    0    0 -0.27981388537E+02 -0.82533983426E+02  0.60994779737E-01  0.87148265875E+02  0.00000000000E+00 0.  1.
         14    1    4    4    0    0  0.18763211536E+00  0.17903593930E+02 -0.16090642971E+02  0.24072446337E+02  0.00000000000E+00 0. -1.
         -5    1    5    5    0  502  0.22946462269E+02  0.77534221391E+02  0.88682871457E+02  0.12010344419E+03  0.47000000000E+01 0.  1.
         13    1    6    6    0    0 -0.58569177828E+02  0.10695286570E+02  0.14762846431E+02  0.61340682919E+02  0.00000000000E+00 0. -1.
        -14    1    6    6    0    0 -0.70568406069E+01 -0.27355847182E+02  0.65337848751E+02  0.71184098321E+02  0.00000000000E+00 0.  1.
<mgrwt>
<rscale>  2 0.18749293E+03</rscale>
<asrwt>0</asrwt>
<pdfrwt beam="1">  1       21 0.47447895E-01 0.18797108E+03</pdfrwt>
<pdfrwt beam="2">  1       21 0.20077863E-01 0.18797108E+03</pdfrwt>
<totfact> 0.97533031E+04</totfact>
</mgrwt>
</event>
<event>
12    1  0.1074575E-001  0.1769193E+03  0.7546771E-02  0.1170907E+00
         21   -1    0    0  501  502  0.00000000000E+00  0.00000000000E+00  0.40302919206E+02  0.40302919206E+02  0.00000000000E+00 0.  1.
         21   -1    0    0  502  503 -0.00000000000E+00 -0.00000000000E+00 -0.84113003683E+03  0.84113003683E+03  0.00000000000E+00 0. -1.
         -6    2    1    2    0  503 -0.35296960256E+02 -0.12073318013E+02 -0.27653067865E+03  0.32809111568E+03  0.17257729730E+03 0.  0.
        -24    2    3    3    0    0 -0.76269949819E+02 -0.43968653621E+02 -0.22219035198E+03  0.25278467897E+03  0.82348003397E+02 0.  0.
          6    2    1    2  501    0  0.35296960256E+02  0.12073318013E+02 -0.52429643897E+03  0.55334184035E+03  0.17294159694E+03 0.  0.
         24    2    5    5    0    0  0.74509542678E+02  0.49744496922E+02 -0.32337461867E+03  0.34513902525E+03  0.80768903855E+02 0.  0.
          5    1    5    5  501    0 -0.39212582422E+02 -0.37671178909E+02 -0.20092182030E+03  0.20820281510E+03  0.47000000000E+01 0. -1.
        -11    1    6    6    0    0  0.76206564044E+02  0.46653076114E+02 -0.17290493473E+03  0.19462802052E+03  0.00000000000E+00 0.  1.
         12    1    6    6    0    0 -0.16970213660E+01  0.30914208086E+01 -0.15046968393E+03  0.15051100474E+03  0.00000000000E+00 0. -1.
         -5    1    3    3    0  503  0.40972989563E+02  0.31895335608E+02 -0.54340326667E+02  0.75306436708E+02  0.47000000000E+01 0.  1.
         13    1    4    4    0    0 -0.56147208665E+02  0.13736803748E+02 -0.87377148554E+02  0.10476628708E+03  0.00000000000E+00 0. -1.
        -14    1    4    4    0    0 -0.20122741154E+02 -0.57705457369E+02 -0.13481320343E+03  0.14801839190E+03  0.00000000000E+00 0.  1.
<mgrwt>
<rscale>  2 0.17683020E+03</rscale>
<asrwt>0</asrwt>
<pdfrwt beam="1">  1       21 0.62004495E-02 0.17691929E+03</pdfrwt>
<pdfrwt beam="2">  1       21 0.12940461E+00 0.17691929E+03</pdfrwt>
<totfact> 0.82110908E+04</totfact>
</mgrwt>
</event>
<event>
12    1  0.1074575E-001  0.1801761E+03  0.7546771E-02  0.1170273E+00
         21   -1    0    0  501  502  0.00000000000E+00  0.00000000000E+00  0.82840347074E+02  0.82840347074E+02  0.00000000000E+00 0.  1.
         21   -1    0    0  502  503 -0.00000000000E+00 -0.00000000000E+00 -0.38387761893E+03  0.38387761893E+03  0.00000000000E+00 0. -1.
         -6    2    1    2    0  503 -0.44658186347E+02  0.19337961050E+02 -0.10930450938E+03  0.21073895567E+03  0.17347945504E+03 0.  0.
        -24    2    3    3    0    0  0.18325026504E+02  0.44993573595E+01 -0.12236258229E+02  0.93985349122E+02  0.91254967104E+02 0.  0.
          6    2    1    2  501    0  0.44658186347E+02 -0.19337961050E+02 -0.19173276248E+03  0.25597901034E+03  0.16246689257E+03 0.  0.
         24    2    5    5    0    0  0.61714154580E+02  0.16962796553E+01 -0.52706390435E+02  0.11426180087E+03  0.80413191117E+02 0.  0.
          5    1    5    5  501    0 -0.17055968234E+02 -0.21034240706E+02 -0.13902637205E+03  0.14171720947E+03  0.47000000000E+01 0. -1.
        -13    1    6    6    0    0 -0.66008715650E+01 -0.25341035680E+02 -0.23545580101E+02  0.35215535450E+02  0.00000000000E+00 0.  1.
         14    1    6    6    0    0  0.68315026145E+02  0.27037315335E+02 -0.29160810333E+02  0.79046265422E+02  0.00000000000E+00 0. -1.
         -5    1    3    3    0  503 -0.62983212851E+02  0.14838603691E+02 -0.97068251148E+02  0.11675360655E+03  0.47000000000E+01 0.  1.
         11    1    4    4    0    0 -0.65733088169E+01 -0.35333920810E+02 -0.26769304714E+02  0.44813948983E+02  0.00000000000E+00 0. -1.
        -12    1    4    4    0    0  0.24898335321E+02  0.39833278170E+02  0.14533046485E+02  0.49171400139E+02  0.00000000000E+00 0.  1.
<mgrwt>
<rscale>  2 0.17747153E+03</rscale>
<asrwt>0</asrwt>
<pdfrwt beam="1">  1       21 0.12744669E-01 0.18017611E+03</pdfrwt>
<pdfrwt beam="2">  1       21 0.59058095E-01 0.18017611E+03</pdfrwt>
<totfact> 0.14180295E+05</totfact>
</mgrwt>
</event>
<event>
12    1  0.1074575E-001  0.2264311E+03  0.7546771E-02  0.1129205E+00
         21   -1    0    0  501  502  0.00000000000E+00  0.00000000000E+00  0.38928439777E+03  0.38928439777E+03  0.00000000000E+00 0. -1.
         21   -1    0    0  502  503 -0.00000000000E+00 -0.00000000000E+00 -0.13700502972E+03  0.13700502972E+03  0.00000000000E+00 0.  1.
         -6    2    1    2    0  503  0.13445439675E+03 -0.57597408556E+02  0.17828901237E+03  0.28807604984E+03  0.17264238263E+03 0.  0.
        -24    2    3    3    0    0  0.33392020987E+02 -0.55491191475E+02  0.15107933964E+03  0.18328818682E+03  0.81088181409E+02 0.  0.
          6    2    1    2  501    0 -0.13445439675E+03  0.57597408556E+02  0.73990355686E+02  0.23821337765E+03  0.17284557928E+03 0.  0.
         24    2    5    5    0    0 -0.50135849057E+02 -0.28077252134E+02  0.36634389851E+02  0.11224781428E+03  0.89193933897E+02 0.  0.
          5    1    5    5  501    0 -0.84318547698E+02  0.85674660690E+02  0.37355965835E+02  0.12596556336E+03  0.47000000000E+01 0. -1.
        -13    1    6    6    0    0 -0.32520944276E+02  0.21724611916E+01 -0.25195671002E+02  0.41196519773E+02  0.00000000000E+00 0.  1.
         14    1    6    6    0    0 -0.17614904781E+02 -0.30249713325E+02  0.61830060853E+02  0.71051294511E+02  0.00000000000E+00 0. -1.
         -5    1    3    3    0  503  0.10106237577E+03 -0.21062170804E+01  0.27209672729E+02  0.10478786302E+03  0.47000000000E+01 0.  1.
         13    1    4    4    0    0  0.28332612163E+02 -0.69212737336E+02  0.75365429612E+02  0.10617479881E+03  0.00000000000E+00 0. -1.
        -14    1    4    4    0    0  0.50594088241E+01  0.13721545861E+02  0.75713910032E+02  0.77113388013E+02  0.00000000000E+00 0.  1.
<mgrwt>
<rscale>  2 0.22639232E+03</rscale>
<asrwt>0</asrwt>
<pdfrwt beam="1">  1       21 0.59889907E-01 0.22643109E+03</pdfrwt>
<pdfrwt beam="2">  1       21 0.21077697E-01 0.22643109E+03</pdfrwt>
<totfact> 0.53584392E+04</totfact>
</mgrwt>
</event>
<event>
12    1  0.1074575E-001  0.1767358E+03  0.7546771E-02  0.1171280E+00
         21   -1    0    0  501  502  0.00000000000E+00  0.00000000000E+00  0.38471083600E+02  0.38471083600E+02  0.00000000000E+00 0. -1.
         21   -1    0    0  502  503 -0.00000000000E+00 -0.00000000000E+00 -0.84685400623E+03  0.84685400623E+03  0.00000000000E+00 0. -1.
         -6    2    1    2    0  503 -0.17925971563E+02  0.24633393226E+02 -0.50173084889E+03  0.53194867390E+03  0.17409021344E+03 0.  0.
        -24    2    3    3    0    0  0.49449423746E+02  0.39816537355E+02 -0.34594649891E+03  0.36147631410E+03  0.83399900396E+02 0.  0.
          6    2    1    2  501    0  0.17925971563E+02 -0.24633393226E+02 -0.30665207374E+03  0.35337641593E+03  0.17294869901E+03 0.  0.
         24    2    5    5    0    0  0.60218709974E+02 -0.22309696139E+02 -0.10647086337E+03  0.14870916825E+03  0.81574238590E+02 0.  0.
          5    1    5    5  501    0 -0.42292738411E+02 -0.23236970867E+01 -0.20018121036E+03  0.20466724768E+03  0.47000000000E+01 0. -1.
        -11    1    6    6    0    0  0.74369292537E+02 -0.28114633634E+02 -0.10711891065E+03  0.13340046969E+03  0.00000000000E+00 0.  1.
         12    1    6    6    0    0 -0.14150582563E+02  0.58049374956E+01  0.64804727180E+00  0.15308698556E+02  0.00000000000E+00 0. -1.
         -5    1    3    3    0  503 -0.67375395309E+02 -0.15183144130E+02 -0.15578434998E+03  0.17047235980E+03  0.47000000000E+01 0.  1.
         11    1    4    4    0    0  0.70229985076E+01  0.58165791480E+02 -0.19452860222E+03  0.20315993425E+03  0.00000000000E+00 0. -1.
        -12    1    4    4    0    0  0.42426425238E+02 -0.18349254125E+02 -0.15141789670E+03  0.15831637984E+03  0.00000000000E+00 0.  1.
<mgrwt>
<rscale>  2 0.17645406E+03</rscale>
<asrwt>0</asrwt>
<pdfrwt beam="1">  1       21 0.59186289E-02 0.17673581E+03</pdfrwt>
<pdfrwt beam="2">  1       21 0.13028522E+00 0.17673581E+03</pdfrwt>
<totfact> 0.87410364E+04</totfact>
</mgrwt>
</event>
<event>
12    1  0.1074575E-001  0.1829763E+03  0.7546771E-02  0.1165247E+00
         21   -1    0    0  501  502  0.00000000000E+00  0.00000000000E+00  0.85256048421E+03  0.85256048421E+03  0.00000000000E+00 0.  1.
         21   -1    0    0  502  503 -0.00000000000E+00 -0.00000000000E+00 -0.39947262869E+02  0.39947262869E+02  0.00000000000E+00 0.  1.
         -6    2    1    2    0  503  0.47148037905E+02 -0.31447976026E+02  0.33645923840E+03  0.38240683430E+03  0.17267963152E+03 0.  0.
        -24    2    3    3    0    0  0.62190853054E+02 -0.54959828191E+02  0.14350818614E+03  0.18739070151E+03  0.87363554218E+02 0.  0.
          6    2    1    2  501    0 -0.47148037905E+02  0.31447976026E+02  0.47615398294E+03  0.51010091278E+03  0.17397819712E+03 0.  0.
         24    2    5    5    0    0  0.22582647515E+02  0.61768320769E+02  0.22077436086E+03  0.24360038151E+03  0.79211905905E+02 0.  0.
          5    1    5    5  501    0 -0.69730685420E+02 -0.30320344743E+02  0.25537962208E+03  0.26650053127E+03  0.47000000000E+01 0. -1.
        -13    1    6    6    0    0  0.35867463433E+02  0.65276655917E+01  0.40060969039E+02  0.54166101868E+02  0.00000000000E+00 0.  1.
         14    1    6    6    0    0 -0.13284815918E+02  0.55240655178E+02  0.18071339182E+03  0.18943427964E+03  0.00000000000E+00 0. -1.
         -5    1    3    3    0  503 -0.15042815149E+02  0.23511852165E+02  0.19295105226E+03  0.19501613279E+03  0.47000000000E+01 0.  1.
         11    1    4    4    0    0  0.25035588909E+02  0.22954723055E+02  0.35592266968E+02  0.49198673666E+02  0.00000000000E+00 0. -1.
        -12    1    4    4    0    0  0.37155264145E+02 -0.77914551246E+02  0.10791591917E+03  0.13819202785E+03  0.00000000000E+00 0.  1.
<mgrwt>
<rscale>  2 0.18266695E+03</rscale>
<asrwt>0</asrwt>
<pdfrwt beam="1">  1       21 0.13116314E+00 0.18297630E+03</pdfrwt>
<pdfrwt beam="2">  1       21 0.61457334E-02 0.18297630E+03</pdfrwt>
<totfact> 0.80345802E+04</totfact>
</mgrwt>
</event>
<event>
12    1  0.1074575E-001  0.2003187E+03  0.7546771E-02  0.1149938E+00
         21   -1    0    0  501  502  0.00000000000E+00  0.00000000000E+00  0.22456607354E+02  0.22456607354E+02  0.00000000000E+00 0. -1.
         21   -1    0    0  502  503 -0.00000000000E+00 -0.00000000000E+00 -0.20286245299E+04  0.20286245299E+04  0.00000000000E+00 0. -1.
         -6    2    1    2    0  503  0.80571341851E+02  0.51803532806E+02 -0.13663455706E+04  0.13806333517E+04  0.17341535808E+03 0.  0.
        -24    2    3    3    0    0  0.69512103987E+02  0.70262371076E+02 -0.13434128422E+04  0.13488365675E+04  0.69521852148E+02 0.  0.
          6    2    1    2  501    0 -0.80571341851E+02 -0.51803532806E+02 -0.63982235190E+03  0.67044778550E+03  0.17593249827E+03 0.  0.
         24    2    5    5    0    0 -0.40167075014E+02 -0.96055849472E+02 -0.51879112373E+03  0.53531296207E+03  0.81090179258E+02 0.  0.
          5    1    5    5  501    0 -0.40404266837E+02  0.44252316665E+02 -0.12103122817E+03  0.13513482342E+03  0.47000000000E+01 0. -1.
        -13    1    6    6    0    0 -0.37194140934E+02 -0.57630857919E+02 -0.45953819286E+03  0.46462896014E+03  0.00000000000E+00 0.  1.
         14    1    6    6    0    0 -0.29729340806E+01 -0.38424991552E+02 -0.59252930868E+02  0.70684001933E+02  0.00000000000E+00 0. -1.
         -5    1    3    3    0  503  0.11059237864E+02 -0.18458838270E+02 -0.22932728397E+02  0.31796784179E+02  0.47000000000E+01 0.  1.
         11    1    4    4    0    0  0.51055015616E+02  0.34880357900E+02 -0.11321753664E+04  0.11338625641E+04  0.00000000000E+00 0. -1.
        -12    1    4    4    0    0  0.18457088372E+02  0.35382013176E+02 -0.21123747580E+03  0.21497400342E+03  0.00000000000E+00 0.  1.
<mgrwt>
<rscale>  2 0.19976467E+03</rscale>
<asrwt>0</asrwt>
<pdfrwt beam="1">  1       21 0.34548620E-02 0.20031872E+03</pdfrwt>
<pdfrwt beam="2">  1       21 0.31209615E+00 0.20031872E+03</pdfrwt>
<totfact> 0.14436332E+04</totfact>
</mgrwt>
</event>
<event>
12    1  0.1074575E-001  0.2044852E+03  0.7546771E-02  0.1146038E+00
         21   -1    0    0  503  502  0.00000000000E+00  0.00000000000E+00  0.33068979576E+03  0.33068979576E+03  0.00000000000E+00 0.  1.
         21   -1    0    0  501  503 -0.00000000000E+00 -0.00000000000E+00 -0.13225465852E+03  0.13225465852E+03  0.00000000000E+00 0.  1.
          6    2    1    2  501    0  0.66936368387E+02 -0.84434865586E+02  0.50306752500E+02  0.21044451616E+03  0.17362718997E+03 0.  0.
         24    2    3    3    0    0  0.30998170416E+02 -0.12187753260E+03  0.15751144694E+02  0.14791702287E+03  0.76264851496E+02 0.  0.
         -6    2    1    2    0  502 -0.66936368387E+02  0.84434865586E+02  0.14812838474E+03  0.25249993812E+03  0.17379435101E+03 0.  0.
        -24    2    5    5    0    0 -0.77627705216E+02  0.76343697090E+02  0.17533829561E+03  0.22180399473E+03  0.81234681421E+02 0.  0.
          5    1    3    3  501    0  0.35938197971E+02  0.37442667015E+02  0.34555607806E+02  0.62527493292E+02  0.47000000000E+01 0. -1.
        -13    1    4    4    0    0  0.13089095294E+02 -0.11241967867E+03  0.36502985478E+02  0.11892004253E+03  0.00000000000E+00 0.  1.
         14    1    4    4    0    0  0.17909075122E+02 -0.94578539323E+01 -0.20751840784E+02  0.28996980336E+02  0.00000000000E+00 0. -1.
         -5    1    5    5    0  502  0.10691336829E+02  0.80911684956E+01 -0.27209910873E+02  0.30695943389E+02  0.47000000000E+01 0.  1.
         11    1    6    6    0    0 -0.58175758912E+02  0.98845898382E+01  0.11787088995E+03  0.13181680750E+03  0.00000000000E+00 0. -1.
        -12    1    6    6    0    0 -0.19451946304E+02  0.66459107252E+02  0.57467405664E+02  0.89987187230E+02  0.00000000000E+00 0.  1.
<mgrwt>
<rscale>  2 0.20444969E+03</rscale>
<asrwt>0</asrwt>
<pdfrwt beam="1">  1       21 0.50875353E-01 0.20448521E+03</pdfrwt>
<pdfrwt beam="2">  1       21 0.20346871E-01 0.20448521E+03</pdfrwt>
<totfact> 0.81726617E+04</totfact>
</mgrwt>
</event>
<event>
12    1  0.1074575E-001  0.1890526E+03  0.7546771E-02  0.1159466E+00
         21   -1    0    0  503  502  0.00000000000E+00  0.00000000000E+00  0.22034821614E+03  0.22034821614E+03  0.00000000000E+00 0.  1.
         21   -1    0    0  501  503 -0.00000000000E+00 -0.00000000000E+00 -0.21731698972E+03  0.21731698972E+03  0.00000000000E+00 0.  1.
          6    2    1    2  501    0  0.49176337629E+02  0.55416871196E+02 -0.10924302553E+03  0.21834592192E+03  0.17392975937E+03 0.  0.
         24    2    3    3    0    0  0.78431681859E+02  0.37622475669E+01 -0.24188557735E+02  0.11451708296E+03  0.79770876502E+02 0.  0.
         -6    2    1    2    0  502 -0.49176337629E+02 -0.55416871196E+02  0.11227425195E+03  0.21931928394E+03  0.17322268575E+03 0.  0.
        -24    2    5    5    0    0  0.35182964339E+02 -0.51505239460E+01  0.71439793144E+02  0.11286393874E+03  0.79813881921E+02 0.  0.
          5    1    3    3  501    0 -0.29255344230E+02  0.51654623629E+02 -0.85054467792E+02  0.10382883896E+03  0.47000000000E+01 0. -1.
        -11    1    4    4    0    0  0.36688418412E+02  0.33713033784E+01 -0.52456014508E+02  0.64101787729E+02  0.00000000000E+00 0.  1.
         12    1    4    4    0    0  0.41743263448E+02  0.39094418842E+00  0.28267456773E+02  0.50415295229E+02  0.00000000000E+00 0. -1.
         -5    1    5    5    0  502 -0.84359301969E+02 -0.50266347250E+02  0.40834458806E+02  0.10645534519E+03  0.47000000000E+01 0.  1.
         11    1    6    6    0    0  0.17961278097E+01  0.12413455522E+02  0.73996902961E+02  0.75052392373E+02  0.00000000000E+00 0. -1.
        -12    1    6    6    0    0  0.33386836530E+02 -0.17563979468E+02 -0.25571098167E+01  0.37811546369E+02  0.00000000000E+00 0.  1.
<mgrwt>
<rscale>  2 0.18888986E+03</rscale>
<asrwt>0</asrwt>
<pdfrwt beam="1">  1       21 0.33899726E-01 0.18905265E+03</pdfrwt>
<pdfrwt beam="2">  1       21 0.33433383E-01 0.18905265E+03</pdfrwt>
<totfact> 0.72341392E+04</totfact>
</mgrwt>
</event>
<event>
12    1  0.1074575E-001  0.3860653E+03  0.7546771E-02  0.1049296E+00
         21   -1    0    0  501  502  0.00000000000E+00  0.00000000000E+00  0.45092325922E+03  0.45092325922E+03  0.00000000000E+00 0.  1.
         21   -1    0    0  502  503 -0.00000000000E+00 -0.00000000000E+00 -0.35753776444E+03  0.35753776444E+03  0.00000000000E+00 0. -1.
         -6    2    1    2    0  503  0.28930787652E+03 -0.18839627235E+03 -0.74688082153E+02  0.39322347496E+03  0.17278364735E+03 0.  0.
        -24    2    3    3    0    0  0.67501901806E+02 -0.37617721848E+02  0.64045090911E+01  0.11299114266E+03  0.82185040238E+02 0.  0.
          6    2    1    2  501    0 -0.28930787652E+03  0.18839627235E+03  0.16807357694E+03  0.41523754869E+03  0.15805471119E+03 0.  0.
         24    2    5    5    0    0 -0.29145906042E+03  0.15079674412E+03  0.13141698903E+03  0.36247252664E+03  0.80173971017E+02 0.  0.
          5    1    5    5  501    0  0.21511838931E+01  0.37599528229E+02  0.36656587910E+02  0.52765022054E+02  0.47000000000E+01 0. -1.
        -13    1    6    6    0    0 -0.16615180407E+03  0.11112735840E+03  0.11337516115E+03  0.22980347897E+03  0.00000000000E+00 0.  1.
         14    1    6    6    0    0 -0.12530725635E+03  0.39669385713E+02  0.18041827876E+02  0.13266904767E+03  0.00000000000E+00 0. -1.
         -5    1    3    3    0  503  0.22180597472E+03 -0.15077855050E+03 -0.81092591244E+02  0.28023233230E+03  0.47000000000E+01 0.  1.
         11    1    4    4    0    0  0.45364954214E+02 -0.77141818264E+01 -0.34637245798E+02  0.57595368465E+02  0.00000000000E+00 0. -1.
        -12    1    4    4    0    0  0.22136947592E+02 -0.29903540022E+02  0.41041754889E+02  0.55395774197E+02  0.00000000000E+00 0.  1.
<mgrwt>
<rscale>  2 0.38446449E+03</rscale>
<asrwt>0</asrwt>
<pdfrwt beam="1">  1       21 0.69372809E-01 0.38606527E+03</pdfrwt>
<pdfrwt beam="2">  1       21 0.55005810E-01 0.38606527E+03</pdfrwt>
<totfact> 0.53094850E+03</totfact>
</mgrwt>
</event>
<event>
12    1  0.1074575E-001  0.3273008E+03  0.7546771E-02  0.1072371E+00
         21   -1    0    0  503  502  0.00000000000E+00  0.00000000000E+00  0.95467381472E+03  0.95467381472E+03  0.00000000000E+00 0. -1.
         21   -1    0    0  501  503 -0.00000000000E+00 -0.00000000000E+00 -0.11449260978E+03  0.11449260978E+03  0.00000000000E+00 0. -1.
          6    2    1    2  501    0 -0.16451393526E+03  0.22348680379E+03  0.49742759312E+03  0.59544943892E+03  0.17353569533E+03 0.  0.
         24    2    3    3    0    0 -0.25538508977E+02  0.82666043640E+02  0.26683125845E+03  0.29157213611E+03  0.79558153946E+02 0.  0.
         -6    2    1    2    0  502  0.16451393526E+03 -0.22348680379E+03  0.34275361182E+03  0.47371698558E+03  0.17296403572E+03 0.  0.
        -24    2    5    5    0    0  0.51993718636E+02 -0.13879108257E+03  0.26029795267E+03  0.31045281294E+03  0.81606455159E+02 0.  0.
          5    1    3    3  501    0 -0.13897542628E+03  0.14082076015E+03  0.23059633467E+03  0.30387730280E+03  0.47000000000E+01 0. -1.
        -11    1    4    4    0    0  0.67897159225E+01 -0.13949539009E+02  0.40395814644E+02  0.43272528486E+02  0.00000000000E+00 0.  1.
         12    1    4    4    0    0 -0.32328224900E+02  0.96615582648E+02  0.22643544381E+03  0.24829960763E+03  0.00000000000E+00 0. -1.
         -5    1    5    5    0  502  0.11252021662E+03 -0.84695721220E+02  0.82455659154E+02  0.16326417264E+03  0.47000000000E+01 0.  1.
         13    1    6    6    0    0  0.39186580878E+01 -0.29422862823E+02  0.13137561861E+03  0.13468709628E+03  0.00000000000E+00 0. -1.
        -14    1    6    6    0    0  0.48075060548E+02 -0.10936821974E+03  0.12892233406E+03  0.17576571667E+03  0.00000000000E+00 0.  1.
<mgrwt>
<rscale>  2 0.32722511E+03</rscale>
<asrwt>0</asrwt>
<pdfrwt beam="1">  1       21 0.14687289E+00 0.32730082E+03</pdfrwt>
<pdfrwt beam="2">  1       21 0.17614248E-01 0.32730082E+03</pdfrwt>
<totfact> 0.85165887E+03</totfact>
</mgrwt>
</event>
<event>
12    1  0.1074575E-001  0.1836473E+03  0.7546771E-02  0.1165636E+00
         21   -1    0    0  501  502  0.00000000000E+00  0.00000000000E+00  0.20282329415E+03  0.20282329415E+03  0.00000000000E+00 0. -1.
         21   -1    0    0  502  503 -0.00000000000E+00 -0.00000000000E+00 -0.16664424510E+03  0.16664424510E+03  0.00000000000E+00 0. -1.
         -6    2    1    2    0  503 -0.69694532696E+01  0.40682993548E+02  0.51292793683E+02  0.19067580936E+03  0.17894869194E+03 0.  0.
        -24    2    3    3    0    0  0.31556165252E+02 -0.12670651429E+02  0.83097620595E+02  0.11743325527E+03  0.75690276265E+02 0.  0.
          6    2    1    2  501    0  0.69694532696E+01 -0.40682993548E+02 -0.15113744641E+02  0.17879172989E+03  0.17330429353E+03 0.  0.
         24    2    5    5    0    0 -0.54168539521E+02 -0.60568519625E+02 -0.80354220135E+01  0.11394205016E+03  0.79469783847E+02 0.  0.
          5    1    5    5  501    0  0.61137992791E+02  0.19885526076E+02 -0.70783226271E+01  0.64849679730E+02  0.47000000000E+01 0. -1.
        -11    1    6    6    0    0  0.15055573692E+02  0.10751291640E+01  0.11790221039E+02  0.19152950531E+02  0.00000000000E+00 0.  1.
         12    1    6    6    0    0 -0.69224113214E+02 -0.61643648789E+02 -0.19825643052E+02  0.94789099630E+02  0.00000000000E+00 0. -1.
         -5    1    3    3    0  503 -0.38525618522E+02  0.53353644977E+02 -0.31804826912E+02  0.73242554091E+02  0.47000000000E+01 0.  1.
         11    1    4    4    0    0  0.26627826178E+02 -0.29314942476E+02  0.80612624383E+01  0.40415231429E+02  0.00000000000E+00 0. -1.
        -12    1    4    4    0    0  0.49283390736E+01  0.16644291047E+02  0.75036358157E+02  0.77018023838E+02  0.00000000000E+00 0.  1.
<mgrwt>
<rscale>  2 0.18225769E+03</rscale>
<asrwt>0</asrwt>
<pdfrwt beam="1">  1       21 0.31203584E-01 0.18364725E+03</pdfrwt>
<pdfrwt beam="2">  1       21 0.25637576E-01 0.18364725E+03</pdfrwt>
<totfact> 0.14286284E+05</totfact>
</mgrwt>
</event>
<event>
12    1  0.1074575E-001  0.2064377E+03  0.7546771E-02  0.1144475E+00
         21   -1    0    0  503  502  0.00000000000E+00  0.00000000000E+00  0.32871726118E+02  0.32871726118E+02  0.00000000000E+00 0. -1.
         21   -1    0    0  501  503 -0.00000000000E+00 -0.00000000000E+00 -0.22361368162E+04  0.22361368162E+04  0.00000000000E+00 0.  1.
          6    2    1    2  501    0  0.81424021908E+02 -0.77134949442E+02 -0.18381971820E+04  0.18497527950E+04  0.17331142821E+03 0.  0.
         24    2    3    3    0    0  0.83736085622E+01 -0.92687493882E+02 -0.13745113207E+04  0.13800668228E+04  0.81498318581E+02 0.  0.
         -6    2    1    2    0  502 -0.81424021908E+02  0.77134949442E+02 -0.36506790808E+03  0.41925574725E+03  0.17297725957E+03 0.  0.
        -24    2    5    5    0    0 -0.83904782237E+02  0.11326534937E+02 -0.13151868677E+03  0.17655380996E+03  0.81888826874E+02 0.  0.
          5    1    3    3  501    0  0.73050413346E+02  0.15552544441E+02 -0.46368586128E+03  0.46968597220E+03  0.47000000000E+01 0. -1.
        -13    1    4    4    0    0  0.42619930809E+02 -0.40424680768E+02 -0.80429671060E+03  0.80643896979E+03  0.00000000000E+00 0.  1.
         14    1    4    4    0    0 -0.34246322247E+02 -0.52262813114E+02 -0.57021461010E+03  0.57362785305E+03  0.00000000000E+00 0. -1.
         -5    1    5    5    0  502  0.24807603288E+01  0.65808414505E+02 -0.23354922131E+03  0.24270193729E+03  0.47000000000E+01 0.  1.
         11    1    6    6    0    0 -0.26488738352E+02  0.38953128181E+02 -0.27426927960E+02  0.54509043579E+02  0.00000000000E+00 0. -1.
        -12    1    6    6    0    0 -0.57416043885E+02 -0.27626593244E+02 -0.10409175881E+03  0.12204476638E+03  0.00000000000E+00 0.  1.
<mgrwt>
<rscale>  2 0.20636755E+03</rscale>
<asrwt>0</asrwt>
<pdfrwt beam="1">  1       21 0.50571873E-02 0.20643770E+03</pdfrwt>
<pdfrwt beam="2">  1       21 0.34402114E+00 0.20643770E+03</pdfrwt>
<totfact> 0.49200743E+03</totfact>
</mgrwt>
</event>
<event>
12    1  0.1074575E-001  0.1800753E+03  0.7546771E-02  0.1167845E+00
         21   -1    0    0  503  502  0.00000000000E+00  0.00000000000E+00  0.11738198380E+04  0.11738198380E+04  0.00000000000E+00 0.  1.
         21   -1    0    0  501  503 -0.00000000000E+00 -0.00000000000E+00 -0.63655036046E+02  0.63655036046E+02  0.00000000000E+00 0.  1.
          6    2    1    2  501    0 -0.73470847904E+01  0.49348871460E+02  0.10207364811E+04  0.10364163720E+04  0.17253011810E+03 0.  0.
         24    2    3    3    0    0 -0.53528623803E+02  0.17291391880E+02  0.86269490147E+03  0.86860800684E+03  0.84101550139E+02 0.  0.
         -6    2    1    2    0  502  0.73470847904E+01 -0.49348871460E+02  0.89428320911E+02  0.20105850205E+03  0.17302544869E+03 0.  0.
        -24    2    5    5    0    0  0.67284601176E+02 -0.11717390476E+02  0.23961987706E+02  0.10453614704E+03  0.75426218180E+02 0.  0.
          5    1    3    3  501    0  0.46181539012E+02  0.32057479580E+02  0.15804157959E+03  0.16780836517E+03  0.47000000000E+01 0. -1.
        -13    1    4    4    0    0 -0.47785071366E+02 -0.79638568553E+01  0.21477735674E+03  0.22017299796E+03  0.00000000000E+00 0.  1.
         14    1    4    4    0    0 -0.57435524364E+01  0.25255248735E+02  0.64791754473E+03  0.64843500889E+03  0.00000000000E+00 0. -1.
         -5    1    5    5    0  502 -0.59937516386E+02 -0.37631480984E+02  0.65466333205E+02  0.96522355001E+02  0.47000000000E+01 0.  1.
         11    1    6    6    0    0  0.35204573234E+02 -0.19979776828E+02  0.48601340244E+02  0.63250642148E+02  0.00000000000E+00 0. -1.
        -12    1    6    6    0    0  0.32080027942E+02  0.82623863522E+01 -0.24639352538E+02  0.41285504896E+02  0.00000000000E+00 0.  1.
<mgrwt>
<rscale>  2 0.17995616E+03</rscale>
<asrwt>0</asrwt>
<pdfrwt beam="1">  1       21 0.18058765E+00 0.18007525E+03</pdfrwt>
<pdfrwt beam="2">  1       21 0.97930834E-02 0.18007525E+03</pdfrwt>
<totfact> 0.15326966E+04</totfact>
</mgrwt>
</event>
<event>
12    1  0.1074575E-001  0.2579720E+03  0.7546771E-02  0.1108807E+00
         21   -1    0    0  501  502  0.00000000000E+00  0.00000000000E+00  0.76940915779E+02  0.76940915779E+02  0.00000000000E+00 0. -1.
         21   -1    0    0  502  503 -0.00000000000E+00 -0.00000000000E+00 -0.12114040207E+04  0.12114040207E+04  0.00000000000E+00 0.  1.
         -6    2    1    2    0  503 -0.15242423826E+01  0.18836705753E+03 -0.91422653342E+03  0.94914927727E+03  0.17201664006E+03 0.  0.
        -24    2    3    3    0    0 -0.52124578000E+02  0.14756165450E+03 -0.78353324973E+03  0.80310716251E+03  0.81026832210E+02 0.  0.
          6    2    1    2  501    0  0.15242423826E+01 -0.18836705753E+03 -0.22023657150E+03  0.33919565921E+03  0.17625287549E+03 0.  0.
         24    2    5    5    0    0 -0.56828745972E+02 -0.55318156490E+02 -0.10000141510E+03  0.15055403030E+03  0.79853792732E+02 0.  0.
          5    1    5    5  501    0  0.58352988354E+02 -0.13304890104E+03 -0.12023515641E+03  0.18864162890E+03  0.47000000000E+01 0. -1.
        -11    1    6    6    0    0 -0.64575511896E+02 -0.70342823156E+02 -0.87660565092E+02  0.12962439654E+03  0.00000000000E+00 0.  1.
         12    1    6    6    0    0  0.77467659243E+01  0.15024666666E+02 -0.12340850004E+02  0.20929633764E+02  0.00000000000E+00 0. -1.
         -5    1    3    3    0  503  0.50600335617E+02  0.40805403038E+02 -0.13069328369E+03  0.14604211476E+03  0.47000000000E+01 0.  1.
         13    1    4    4    0    0 -0.23596396440E+02 -0.16794349552E+01 -0.13085440976E+03  0.13297551271E+03  0.00000000000E+00 0. -1.
        -14    1    4    4    0    0 -0.28528181560E+02  0.14924108945E+03 -0.65267883996E+03  0.67013164980E+03  0.00000000000E+00 0.  1.
<mgrwt>
<rscale>  2 0.25725008E+03</rscale>
<asrwt>0</asrwt>
<pdfrwt beam="1">  1       21 0.11837064E-01 0.25797199E+03</pdfrwt>
<pdfrwt beam="2">  1       21 0.18636985E+00 0.25797199E+03</pdfrwt>
<totfact> 0.94532115E+03</totfact>
</mgrwt>
</event>
<event>
12    1  0.1074575E-001  0.2671322E+03  0.7546771E-02  0.1103043E+00
         21   -1    0    0  501  502  0.00000000000E+00  0.00000000000E+00  0.66563181378E+02  0.66563181378E+02  0.00000000000E+00 0.  1.
         21   -1    0    0  502  503 -0.00000000000E+00 -0.00000000000E+00 -0.11025735898E+04  0.11025735898E+04  0.00000000000E+00 0. -1.
         -6    2    1    2    0  503  0.13067506813E+03 -0.15585148492E+03 -0.62074091497E+03  0.67578019636E+03  0.17318756161E+03 0.  0.
        -24    2    3    3    0    0  0.10742151704E+03 -0.11181862842E+03 -0.59759422137E+03  0.62066686301E+03  0.63762947198E+02 0.  0.
          6    2    1    2  501    0 -0.13067506813E+03  0.15585148492E+03 -0.41526949347E+03  0.49335657483E+03  0.17200668285E+03 0.  0.
         24    2    5    5    0    0 -0.86501649218E+02  0.24143283269E+02 -0.14301990416E+03  0.18767656208E+03  0.81867976177E+02 0.  0.
          5    1    5    5  501    0 -0.44173418908E+02  0.13170820165E+03 -0.27224958931E+03  0.30568001275E+03  0.47000000000E+01 0. -1.
        -11    1    6    6    0    0 -0.10196685519E+02 -0.25365093632E+02 -0.53365621932E+02  0.59960403390E+02  0.00000000000E+00 0.  1.
         12    1    6    6    0    0 -0.76304963699E+02  0.49508376901E+02 -0.89654282232E+02  0.12771615869E+03  0.00000000000E+00 0. -1.
         -5    1    3    3    0  503  0.23253551081E+02 -0.44032856495E+02 -0.23146693604E+02  0.55113333357E+02  0.47000000000E+01 0.  1.
         11    1    4    4    0    0  0.39807361802E+02 -0.83330054140E+02 -0.37894357717E+03  0.39003430446E+03  0.00000000000E+00 0. -1.
        -12    1    4    4    0    0  0.67614155242E+02 -0.28488574281E+02 -0.21865064420E+03  0.23063255855E+03  0.00000000000E+00 0.  1.
<mgrwt>
<rscale>  2 0.26694094E+03</rscale>
<asrwt>0</asrwt>
<pdfrwt beam="1">  1       21 0.10240490E-01 0.26713216E+03</pdfrwt>
<pdfrwt beam="2">  1       21 0.16962670E+00 0.26713216E+03</pdfrwt>
<totfact> 0.15928152E+04</totfact>
</mgrwt>
</event>
<event>
12    1  0.1074575E-001  0.2645411E+03  0.7546771E-02  0.1104497E+00
         21   -1    0    0  503  502  0.00000000000E+00  0.00000000000E+00  0.65747669213E+03  0.65747669213E+03  0.00000000000E+00 0. -1.
         21   -1    0    0  501  503 -0.00000000000E+00 -0.00000000000E+00 -0.10633541883E+03  0.10633541883E+03  0.00000000000E+00 0.  1.
          6    2    1    2  501    0  0.15257214593E+03 -0.12943967660E+03  0.28257878881E+03  0.38684022998E+03  0.17251580232E+03 0.  0.
         24    2    3    3    0    0  0.15792810991E+03 -0.14054157580E+03  0.29326901797E+03  0.36986055049E+03  0.78082568364E+02 0.  0.
         -6    2    1    2    0  502 -0.15257214593E+03  0.12943967660E+03  0.26856248449E+03  0.37697188098E+03  0.17305808674E+03 0.  0.
        -24    2    5    5    0    0 -0.40473689635E+02  0.11572221523E+03  0.11909060072E+03  0.18957346400E+03  0.82010831138E+02 0.  0.
          5    1    3    3  501    0 -0.53559639817E+01  0.11101899203E+02 -0.10690229153E+02  0.16979679486E+02  0.47000000000E+01 0. -1.
        -13    1    4    4    0    0  0.99646663765E+02 -0.11513036039E+03  0.15300320186E+03  0.21585744662E+03  0.00000000000E+00 0.  1.
         14    1    4    4    0    0  0.58281446146E+02 -0.25411215415E+02  0.14026581611E+03  0.15400310387E+03  0.00000000000E+00 0. -1.
         -5    1    5    5    0  502 -0.11209845630E+03  0.13717461371E+02  0.14947188377E+03  0.18739841698E+03  0.47000000000E+01 0.  1.
         11    1    6    6    0    0  0.23556967849E+02  0.25442194220E+02  0.15510356656E+02  0.37984301291E+02  0.00000000000E+00 0. -1.
        -12    1    6    6    0    0 -0.64030657484E+02  0.90280021008E+02  0.10358024406E+03  0.15158916271E+03  0.00000000000E+00 0.  1.
<mgrwt>
<rscale>  2 0.26445244E+03</rscale>
<asrwt>0</asrwt>
<pdfrwt beam="1">  1       21 0.10115026E+00 0.26454110E+03</pdfrwt>
<pdfrwt beam="2">  1       21 0.16359296E-01 0.26454110E+03</pdfrwt>
<totfact> 0.25761344E+04</totfact>
</mgrwt>
</event>
<event>
12    1  0.1074575E-001  0.2005536E+03  0.7546771E-02  0.1149745E+00
         21   -1    0    0  501  502  0.00000000000E+00  0.00000000000E+00  0.37087997855E+02  0.37087997855E+02  0.00000000000E+00 0. -1.
         21   -1    0    0  502  503 -0.00000000000E+00 -0.00000000000E+00 -0.11024590590E+04  0.11024590590E+04  0.00000000000E+00 0. -1.
         -6    2    1    2    0  503  0.47579304191E+02  0.89971785329E+02 -0.62958901677E+03  0.66076023066E+03  0.17280925912E+03 0.  0.
        -24    2    3    3    0    0 -0.11818109706E+02  0.19396821115E+02 -0.14277013197E+03  0.16525685534E+03  0.80066305450E+02 0.  0.
          6    2    1    2  501    0 -0.47579304191E+02 -0.89971785329E+02 -0.43578204437E+03  0.47878682619E+03  0.17021199252E+03 0.  0.
         24    2    5    5    0    0 -0.35762694448E+02  0.10101078612E+02 -0.25637179325E+03  0.27296083520E+03  0.86023944761E+02 0.  0.
          5    1    5    5  501    0 -0.11816609743E+02 -0.10007286394E+03 -0.17941025111E+03  0.20582599099E+03  0.47000000000E+01 0. -1.
        -13    1    6    6    0    0 -0.32276849200E+01 -0.46475923739E+01  0.59540735962E+01  0.82139550282E+01  0.00000000000E+00 0.  1.
         14    1    6    6    0    0 -0.32535009528E+02  0.14748670986E+02 -0.26232586685E+03  0.26474688017E+03  0.00000000000E+00 0. -1.
         -5    1    3    3    0  503  0.59397413897E+02  0.70574964214E+02 -0.48681888480E+03  0.49550337532E+03  0.47000000000E+01 0.  1.
         11    1    4    4    0    0  0.27885830535E+02  0.26870776654E+02 -0.95625084671E+02  0.10316886643E+03  0.00000000000E+00 0. -1.
        -12    1    4    4    0    0 -0.39703940240E+02 -0.74739555388E+01 -0.47145047297E+02  0.62087988908E+02  0.00000000000E+00 0.  1.
<mgrwt>
<rscale>  2 0.19999287E+03</rscale>
<asrwt>0</asrwt>
<pdfrwt beam="1">  1       21 0.57058473E-02 0.20055361E+03</pdfrwt>
<pdfrwt beam="2">  1       21 0.16960904E+00 0.20055361E+03</pdfrwt>
<totfact> 0.45918384E+04</totfact>
</mgrwt>
</event>
<event>
12    1  0.1074575E-001  0.1866773E+03  0.7546771E-02  0.1162021E+00
         21   -1    0    0  501  502  0.00000000000E+00  0.00000000000E+00  0.70671595891E+02  0.70671595891E+02  0.00000000000E+00 0. -1.
         21   -1    0    0  502  503 -0.00000000000E+00 -0.00000000000E+00 -0.53354245347E+03  0.53354245347E+03  0.00000000000E+00 0. -1.
         -6    2    1    2    0  503 -0.52079622688E+02  0.44246149198E+02 -0.32184275211E+03  0.37206339451E+03  0.17371932430E+03 0.  0.
        -24    2    3    3    0    0  0.98221022152E+01  0.66500973653E+02 -0.11873877258E+03  0.15852085248E+03  0.80691457845E+02 0.  0.
          6    2    1    2  501    0  0.52079622688E+02 -0.44246149198E+02 -0.14102810547E+03  0.23215065484E+03  0.17127460756E+03 0.  0.
         24    2    5    5    0    0  0.27451900810E+02 -0.90618083859E+02 -0.13452283032E+03  0.17903484163E+03  0.70652945159E+02 0.  0.
          5    1    5    5  501    0  0.24627721878E+02  0.46371934661E+02 -0.65052751554E+01  0.53115813219E+02  0.47000000000E+01 0. -1.
        -13    1    6    6    0    0 -0.21912980477E+02 -0.42170663770E+02 -0.68832182512E+02  0.83644563156E+02  0.00000000000E+00 0.  1.
         14    1    6    6    0    0  0.49364881287E+02 -0.48447420089E+02 -0.65690647804E+02  0.95390278470E+02  0.00000000000E+00 0. -1.
         -5    1    3    3    0  503 -0.61901724903E+02 -0.22254824456E+02 -0.20310397953E+03  0.21354254203E+03  0.47000000000E+01 0.  1.
         11    1    4    4    0    0 -0.27965878021E+02  0.25747420351E+02 -0.15064716303E+02  0.40889676760E+02  0.00000000000E+00 0. -1.
        -12    1    4    4    0    0  0.37787980236E+02  0.40753553302E+02 -0.10367405627E+03  0.11763117572E+03  0.00000000000E+00 0.  1.
<mgrwt>
<rscale>  2 0.18610647E+03</rscale>
<asrwt>0</asrwt>
<pdfrwt beam="1">  1       21 0.10872553E-01 0.18667729E+03</pdfrwt>
<pdfrwt beam="2">  1       21 0.82083453E-01 0.18667729E+03</pdfrwt>
<totfact> 0.91005249E+04</totfact>
</mgrwt>
</event>
<event>
12    1  0.1074575E-001  0.2047097E+03  0.7546771E-02  0.1146185E+00
         21   -1    0    0  503  502  0.00000000000E+00  0.00000000000E+00  0.64383618610E+03  0.64383618610E+03  0.00000000000E+00 0.  1.
         21   -1    0    0  501  503 -0.00000000000E+00 -0.00000000000E+00 -0.90619731580E+02  0.90619731580E+02  0.00000000000E+00 0. -1.
          6    2    1    2  501    0  0.75393862722E+02  0.73779159732E+02  0.78731053647E+02  0.21769440461E+03  0.17339168389E+03 0.  0.
         24    2    3    3    0    0 -0.14683630851E+02  0.55912674928E+02  0.75083389322E+02  0.12566961674E+03  0.82543933676E+02 0.  0.
         -6    2    1    2    0  502 -0.75393862722E+02 -0.73779159732E+02  0.47448540087E+03  0.51676151307E+03  0.17543792863E+03 0.  0.
        -24    2    5    5    0    0  0.10787804086E+02 -0.25821203752E+02  0.10709649438E+03  0.13633550995E+03  0.79590205960E+02 0.  0.
          5    1    3    3  501    0  0.90077493573E+02  0.17866484804E+02  0.36476643249E+01  0.92024787871E+02  0.47000000000E+01 0. -1.
        -11    1    4    4    0    0  0.13292374277E+02  0.13845308979E+02  0.72593372322E+02  0.75087798608E+02  0.00000000000E+00 0.  1.
         12    1    4    4    0    0 -0.27976005128E+02  0.42067365950E+02  0.24900169999E+01  0.50581818132E+02  0.00000000000E+00 0. -1.
         -5    1    5    5    0  502 -0.86181666808E+02 -0.47957955980E+02  0.36738890649E+03  0.38042600311E+03  0.47000000000E+01 0.  1.
         11    1    6    6    0    0 -0.33667120306E+02 -0.18235876082E+01  0.46628650416E+02  0.57541563248E+02  0.00000000000E+00 0. -1.
        -12    1    6    6    0    0  0.44454924391E+02 -0.23997616144E+02  0.60467843968E+02  0.78793946705E+02  0.00000000000E+00 0.  1.
<mgrwt>
<rscale>  2 0.20427057E+03</rscale>
<asrwt>0</asrwt>
<pdfrwt beam="1">  1       21 0.99051718E-01 0.20470971E+03</pdfrwt>
<pdfrwt beam="2">  1       21 0.13941498E-01 0.20470971E+03</pdfrwt>
<totfact> 0.37373276E+04</totfact>
</mgrwt>
</event>
<event>
12    1  0.1074575E-001  0.1808603E+03  0.7546771E-02  0.1168116E+00
         21   -1    0    0  501  502  0.00000000000E+00  0.00000000000E+00  0.11229507362E+03  0.11229507362E+03  0.00000000000E+00 0.  1.
         21   -1    0    0  502  503 -0.00000000000E+00 -0.00000000000E+00 -0.67799470907E+03  0.67799470907E+03  0.00000000000E+00 0. -1.
         -6    2    1    2    0  503 -0.13925260978E+02 -0.45713222944E+02 -0.58569678774E+03  0.61298546945E+03  0.17443292966E+03 0.  0.
        -24    2    3    3    0    0 -0.50374534451E+02 -0.68392594611E+02 -0.27183244648E+03  0.29616404002E+03  0.81271882729E+02 0.  0.
          6    2    1    2  501    0  0.13925260978E+02  0.45713222944E+02  0.19997152295E+02  0.17730431324E+03  0.16956804459E+03 0.  0.
         24    2    5    5    0    0  0.57432667986E+02  0.69648079323E+02  0.33856422540E+02  0.12553616486E+03  0.80397170572E+02 0.  0.
          5    1    5    5  501    0 -0.43507407008E+02 -0.23934856379E+02 -0.13859270245E+02  0.51768148375E+02  0.47000000000E+01 0. -1.
        -11    1    6    6    0    0  0.55467360970E+01  0.68339258689E+02  0.14087129578E+02  0.69996198320E+02  0.00000000000E+00 0.  1.
         12    1    6    6    0    0  0.51885931889E+02  0.13088206338E+01  0.19769292961E+02  0.55539966543E+02  0.00000000000E+00 0. -1.
         -5    1    3    3    0  503  0.36449273473E+02  0.22679371667E+02 -0.31386434126E+03  0.31682142944E+03  0.47000000000E+01 0.  1.
         13    1    4    4    0    0 -0.14424923650E+02 -0.38029331305E+02 -0.22883564345E+03  0.23242215939E+03  0.00000000000E+00 0. -1.
        -14    1    4    4    0    0 -0.35949610801E+02 -0.30363263306E+02 -0.42996803026E+02  0.63741880626E+02  0.00000000000E+00 0.  1.
<mgrwt>
<rscale>  2 0.17967694E+03</rscale>
<asrwt>0</asrwt>
<pdfrwt beam="1">  1       21 0.17276166E-01 0.18086033E+03</pdfrwt>
<pdfrwt beam="2">  1       21 0.10430688E+00 0.18086033E+03</pdfrwt>
<totfact> 0.22642244E+04</totfact>
</mgrwt>
</event>
<event>
12    1  0.1074575E-001  0.1746378E+03  0.7546771E-02  0.1173185E+00
         21   -1    0    0  503  502  0.00000000000E+00  0.00000000000E+00  0.16989952336E+03  0.16989952336E+03  0.00000000000E+00 0. -1.
         21   -1    0    0  501  503 -0.00000000000E+00 -0.00000000000E+00 -0.25128582706E+03  0.25128582706E+03  0.00000000000E+00 0. -1.
          6    2    1    2  501    0 -0.26020257958E+02  0.17359078003E+00 -0.15350068321E+03  0.23224399609E+03  0.17233029338E+03 0.  0.
         24    2    3    3    0    0  0.49130374375E+01  0.62410342198E+02 -0.75792188595E+02  0.12788412772E+03  0.81796732951E+02 0.  0.
         -6    2    1    2    0  502  0.26020257958E+02 -0.17359078003E+00  0.72114379516E+02  0.18894135433E+03  0.17268835422E+03 0.  0.
        -24    2    5    5    0    0  0.40558218517E+02  0.18496875127E+02  0.11048068275E+03  0.14362025750E+03  0.80210308721E+02 0.  0.
          5    1    3    3  501    0 -0.30933295396E+02 -0.62236751418E+02 -0.77708494614E+02  0.10435986837E+03  0.47000000000E+01 0. -1.
        -13    1    4    4    0    0  0.15397204979E+02 -0.58387688970E+01  0.88140201092E+01  0.18677582656E+02  0.00000000000E+00 0.  1.
         14    1    4    4    0    0 -0.10484167541E+02  0.68249111095E+02 -0.84606208704E+02  0.10920654507E+03  0.00000000000E+00 0. -1.
         -5    1    5    5    0  502 -0.14537960559E+02 -0.18670465907E+02 -0.38366303229E+02  0.45321096830E+02  0.47000000000E+01 0.  1.
         11    1    6    6    0    0  0.60916103792E+02 -0.30385455086E+01  0.84479400028E+02  0.10419584199E+03  0.00000000000E+00 0. -1.
        -12    1    6    6    0    0 -0.20357885275E+02  0.21535420635E+02  0.26001282718E+02  0.39424415503E+02  0.00000000000E+00 0.  1.
<mgrwt>
<rscale>  2 0.17454919E+03</rscale>
<asrwt>0</asrwt>
<pdfrwt beam="1">  1       21 0.26138388E-01 0.17463777E+03</pdfrwt>
<pdfrwt beam="2">  1       21 0.38659358E-01 0.17463777E+03</pdfrwt>
<totfact> 0.90381532E+04</totfact>
</mgrwt>
</event>
<event>
12    1  0.1074575E-001  0.2354049E+03  0.7546771E-02  0.1123013E+00
         21   -1    0    0  501  502  0.00000000000E+00  0.00000000000E+00  0.55096438383E+02  0.55096438383E+02  0.00000000000E+00 0.  1.
         21   -1    0    0  502  503 -0.00000000000E+00 -0.00000000000E+00 -0.12097306465E+04  0.12097306465E+04  0.00000000000E+00 0.  1.
         -6    2    1    2    0  503  0.36678626466E+02  0.15631445684E+03 -0.31645997269E+03  0.39441399001E+03  0.17215095162E+03 0.  0.
        -24    2    3    3    0    0  0.36931770010E+02  0.11466599789E+02 -0.10299473269E+03  0.13640146228E+03  0.80635013516E+02 0.  0.
          6    2    1    2  501    0 -0.36678626466E+02 -0.15631445684E+03 -0.83817423542E+03  0.87041309487E+03  0.17118228803E+03 0.  0.
         24    2    5    5    0    0 -0.80704304736E+02 -0.73850446869E+02 -0.57141542242E+03  0.58771019852E+03  0.83190258822E+02 0.  0.
          5    1    5    5  501    0  0.44025678271E+02 -0.82464009973E+02 -0.26675881300E+03  0.28270289635E+03  0.47000000000E+01 0. -1.
        -11    1    6    6    0    0 -0.45873648144E+02 -0.41960012055E+02 -0.13361693815E+03  0.14737204744E+03  0.00000000000E+00 0.  1.
         12    1    6    6    0    0 -0.34830656592E+02 -0.31890434814E+02 -0.43779848427E+03  0.44033815108E+03  0.00000000000E+00 0. -1.
         -5    1    3    3    0  503 -0.25314354482E+00  0.14484785705E+03 -0.21346524001E+03  0.25801252773E+03  0.47000000000E+01 0.  1.
         13    1    4    4    0    0  0.61942334704E+02  0.16016888362E+02 -0.75225142011E+02  0.98753306435E+02  0.00000000000E+00 0. -1.
        -14    1    4    4    0    0 -0.25010564693E+02 -0.45502885729E+01 -0.27769590674E+02  0.37648155846E+02  0.00000000000E+00 0.  1.
<mgrwt>
<rscale>  2 0.23522787E+03</rscale>
<asrwt>0</asrwt>
<pdfrwt beam="1">  1       21 0.84763747E-02 0.23540493E+03</pdfrwt>
<pdfrwt beam="2">  1       21 0.18611242E+00 0.23540493E+03</pdfrwt>
<totfact> 0.17424841E+04</totfact>
</mgrwt>
</event>
<event>
12    1  0.1074575E-001  0.1952185E+03  0.7546771E-02  0.1153896E+00
         21   -1    0    0  503  502  0.00000000000E+00  0.00000000000E+00  0.19992524612E+03  0.19992524612E+03  0.00000000000E+00 0.  1.
         21   -1    0    0  501  503 -0.00000000000E+00 -0.00000000000E+00 -0.71338520966E+03  0.71338520966E+03  0.00000000000E+00 0.  1.
          6    2    1    2  501    0 -0.13878214390E+02 -0.89570052717E+02 -0.64769333011E+03  0.67639513528E+03  0.17259296042E+03 0.  0.
         24    2    3    3    0    0  0.96319813053E+01  0.92835820150E+01 -0.40603133356E+03  0.41419791757E+03  0.80743489672E+02 0.  0.
         -6    2    1    2    0  502  0.13878214390E+02  0.89570052717E+02  0.13423336657E+03  0.23691532051E+03  0.17290133953E+03 0.  0.
        -24    2    5    5    0    0  0.23830779112E+02  0.29858086671E+02  0.14964371605E+03  0.17427235358E+03  0.80735370792E+02 0.  0.
          5    1    3    3  501    0 -0.23510195695E+02 -0.98853634732E+02 -0.24166199654E+03  0.26219721771E+03  0.47000000000E+01 0. -1.
        -11    1    4    4    0    0 -0.50452815946E+01 -0.27212855897E+02 -0.61653422626E+02  0.67580610488E+02  0.00000000000E+00 0.  1.
         12    1    4    4    0    0  0.14677262900E+02  0.36496437912E+02 -0.34437791094E+03  0.34661730708E+03  0.00000000000E+00 0. -1.
         -5    1    5    5    0  502 -0.99525647219E+01  0.59711966046E+02 -0.15410349484E+02  0.62642966923E+02  0.47000000000E+01 0.  1.
         13    1    6    6    0    0  0.53554172382E+00 -0.19799183329E+02  0.62862252686E+01  0.20780064811E+02  0.00000000000E+00 0. -1.
        -14    1    6    6    0    0  0.23295237388E+02  0.49657270000E+02  0.14335749078E+03  0.15349228877E+03  0.00000000000E+00 0.  1.
<mgrwt>
<rscale>  2 0.19515022E+03</rscale>
<asrwt>0</asrwt>
<pdfrwt beam="1">  1       21 0.30757730E-01 0.19521852E+03</pdfrwt>
<pdfrwt beam="2">  1       21 0.10975157E+00 0.19521852E+03</pdfrwt>
<totfact> 0.66523875E+03</totfact>
</mgrwt>
</event>
<event>
11    1  0.1074575E-001  0.1870998E+03  0.7546771E-02  0.1161195E+00
         21   -1    0    0  503  502  0.00000000000E+00  0.00000000000E+00  0.23191326072E+03  0.23191326072E+03  0.00000000000E+00 0.  1.
         21   -1    0    0  501  503 -0.00000000000E+00 -0.00000000000E+00 -0.46740391541E+03  0.46740391541E+03  0.00000000000E+00 0.  1.
          6    2    1    2  501    0 -0.67622189535E+02 -0.22530360376E+02 -0.40564149705E+03  0.44671173631E+03  0.17299125286E+03 0.  0.
         24    2    3    3    0    0 -0.98590620041E+02 -0.30987839734E+02 -0.38885056199E+03  0.41017958409E+03  0.79763243876E+02 0.  0.
         -6    2    1    2    0  502  0.67622189535E+02  0.22530360376E+02  0.17015084236E+03  0.25260543982E+03  0.17256251452E+03 0.  0.
          5    1    3    3  501    0  0.30968430507E+02  0.84574793581E+01 -0.16790935063E+02  0.36532152215E+02  0.47000000000E+01 0. -1.
        -13    1    4    4    0    0 -0.81106630878E+02 -0.35532881128E+02 -0.18052769317E+03  0.20107490946E+03  0.00000000000E+00 0.  1.
         14    1    4    4    0    0 -0.17483989163E+02  0.45450413943E+01 -0.20832286882E+03  0.20910467463E+03  0.00000000000E+00 0. -1.
         -5    1    5    5    0  502  0.82367420587E+02  0.77088470161E+02  0.12957678073E+03  0.17186988192E+03  0.47000000000E+01 0.  1.
         11    1    5    5    0    0  0.85266119230E+01 -0.30101138940E+02  0.49826743896E+01  0.31679784097E+02  0.00000000000E+00 0. -1.
        -12    1    5    5    0    0 -0.23271842975E+02 -0.24456970845E+02  0.35591387237E+02  0.49055773808E+02  0.00000000000E+00 0.  1.
<mgrwt>
<rscale>  2 0.18700068E+03</rscale>
<asrwt>0</asrwt>
<pdfrwt beam="1">  1       21 0.35678963E-01 0.18709984E+03</pdfrwt>
<pdfrwt beam="2">  1       21 0.71908294E-01 0.18709984E+03</pdfrwt>
<totfact> 0.13272980E+04</totfact>
</mgrwt>
</event>
<event>
12    1  0.1074575E-001  0.2205019E+03  0.7546771E-02  0.1133755E+00
         21   -1    0    0  501  502  0.00000000000E+00  0.00000000000E+00  0.51140121607E+03  0.51140121607E+03  0.00000000000E+00 0.  1.
         21   -1    0    0  502  503 -0.00000000000E+00 -0.00000000000E+00 -0.95193177501E+02  0.95193177501E+02  0.00000000000E+00 0.  1.
         -6    2    1    2    0  503 -0.75630018445E+02  0.11563036710E+03  0.18299243248E+03  0.28654374511E+03  0.17184529681E+03 0.  0.
        -24    2    3    3    0    0 -0.66692265140E+01 -0.40392631332E+01  0.82646684439E+02  0.11575800106E+03  0.80676180691E+02 0.  0.
          6    2    1    2  501    0  0.75630018445E+02 -0.11563036710E+03  0.23321560609E+03  0.32005064846E+03  0.17015468600E+03 0.  0.
         24    2    5    5    0    0  0.92768146411E+02 -0.11395803017E+03  0.12029482189E+03  0.20572783514E+03  0.79124814992E+02 0.  0.
          5    1    5    5  501    0 -0.17138127966E+02 -0.16723369270E+01  0.11292078420E+03  0.11432281332E+03  0.47000000000E+01 0. -1.
        -13    1    6    6    0    0  0.19278156305E+02 -0.40589129252E+02  0.84826122766E+02  0.95992686323E+02  0.00000000000E+00 0.  1.
         14    1    6    6    0    0  0.73489990106E+02 -0.73368900920E+02  0.35468699128E+02  0.10973514882E+03  0.00000000000E+00 0. -1.
         -5    1    3    3    0  503 -0.68960791931E+02  0.11966963023E+03  0.10034574804E+03  0.17078574406E+03  0.47000000000E+01 0.  1.
         13    1    4    4    0    0 -0.24060071880E+02  0.27646439723E+02  0.16102737241E+02  0.40031373132E+02  0.00000000000E+00 0. -1.
        -14    1    4    4    0    0  0.17390845366E+02 -0.31685702856E+02  0.66543947199E+02  0.75726627925E+02  0.00000000000E+00 0.  1.
<mgrwt>
<rscale>  2 0.22017241E+03</rscale>
<asrwt>0</asrwt>
<pdfrwt beam="1">  1       21 0.78677108E-01 0.22050190E+03</pdfrwt>
<pdfrwt beam="2">  1       21 0.14645105E-01 0.22050190E+03</pdfrwt>
<totfact> 0.57758254E+04</totfact>
</mgrwt>
</event>
<event>
12    1  0.1074575E-001  0.2057904E+03  0.7546771E-02  0.1145423E+00
         21   -1    0    0  501  502  0.00000000000E+00  0.00000000000E+00  0.34884273862E+03  0.34884273862E+03  0.00000000000E+00 0. -1.
         21   -1    0    0  502  503 -0.00000000000E+00 -0.00000000000E+00 -0.17328850356E+03  0.17328850356E+03  0.00000000000E+00 0.  1.
         -6    2    1    2    0  503  0.56897284313E+02 -0.92444233163E+02 -0.56614711047E+02  0.21343592516E+03  0.17483258116E+03 0.  0.
        -24    2    3    3    0    0  0.68977765102E+02 -0.11765424872E+03 -0.11116279205E+02  0.15982920729E+03  0.82591461529E+02 0.  0.
          6    2    1    2  501    0 -0.56897284313E+02  0.92444233163E+02  0.23216894611E+03  0.30869531702E+03  0.17206726012E+03 0.  0.
         24    2    5    5    0    0 -0.91976815558E+02  0.25591098851E+02  0.13029296978E+03  0.18180670590E+03  0.83443282500E+02 0.  0.
          5    1    5    5  501    0  0.35079531244E+02  0.66853134312E+02  0.10187597634E+03  0.12688861113E+03  0.47000000000E+01 0. -1.
        -13    1    6    6    0    0 -0.24760658433E+02 -0.25241256607E+01 -0.74509259086E+01  0.25980333201E+02  0.00000000000E+00 0.  1.
         14    1    6    6    0    0 -0.67216157125E+02  0.28115224512E+02  0.13774389569E+03  0.15582637269E+03  0.00000000000E+00 0. -1.
         -5    1    3    3    0  503 -0.12080480789E+02  0.25210015561E+02 -0.45498431842E+02  0.53606717870E+02  0.47000000000E+01 0.  1.
         13    1    4    4    0    0  0.44440283310E+02 -0.76836856597E+01 -0.13668725830E+02  0.47125490680E+02  0.00000000000E+00 0. -1.
        -14    1    4    4    0    0  0.24537481792E+02 -0.10997056306E+03  0.25524466254E+01  0.11270371661E+03  0.00000000000E+00 0.  1.
<mgrwt>
<rscale>  2 0.20520181E+03</rscale>
<asrwt>0</asrwt>
<pdfrwt beam="1">  1       21 0.53668113E-01 0.20579035E+03</pdfrwt>
<pdfrwt beam="2">  1       21 0.26659770E-01 0.20579035E+03</pdfrwt>
<totfact> 0.43700703E+04</totfact>
</mgrwt>
</event>
<event>
12    1  0.1074575E-001  0.2502656E+03  0.7546771E-02  0.1113255E+00
         21   -1    0    0  501  502  0.00000000000E+00  0.00000000000E+00  0.74131525220E+03  0.74131525220E+03  0.00000000000E+00 0. -1.
         21   -1    0    0  502  503 -0.00000000000E+00 -0.00000000000E+00 -0.12033820224E+03  0.12033820224E+03  0.00000000000E+00 0. -1.
         -6    2    1    2    0  503  0.49585923637E+02  0.17365182791E+03  0.74193418999E+02  0.26031727056E+03  0.17218216159E+03 0.  0.
        -24    2    3    3    0    0 -0.24826457315E+02  0.40304611399E+02  0.72901230078E+01  0.93533507550E+02  0.80340254283E+02 0.  0.
          6    2    1    2  501    0 -0.49585923637E+02 -0.17365182791E+03  0.54678363096E+03  0.60133618388E+03  0.17326034111E+03 0.  0.
         24    2    5    5    0    0 -0.79316483817E+02 -0.83016118376E+02  0.43808164939E+03  0.45664012710E+03  0.58496954013E+02 0.  0.
          5    1    5    5  501    0  0.29730560181E+02 -0.90635709536E+02  0.10870198156E+03  0.14469605678E+03  0.47000000000E+01 0. -1.
        -13    1    6    6    0    0 -0.67671964466E+01 -0.27572796471E+02  0.19346940314E+03  0.19554146364E+03  0.00000000000E+00 0.  1.
         14    1    6    6    0    0 -0.72549287371E+02 -0.55443321904E+02  0.24461224625E+03  0.26109866346E+03  0.00000000000E+00 0. -1.
         -5    1    3    3    0  503  0.74412380952E+02  0.13334721651E+03  0.66903295991E+02  0.16678376301E+03  0.47000000000E+01 0.  1.
         11    1    4    4    0    0 -0.21151137322E+02  0.43115273519E+02  0.38766910793E+02  0.61718480159E+02  0.00000000000E+00 0. -1.
        -12    1    4    4    0    0 -0.36753199928E+01 -0.28106621205E+01 -0.31476787785E+02  0.31815027391E+02  0.00000000000E+00 0.  1.
<mgrwt>
<rscale>  2 0.25007908E+03</rscale>
<asrwt>0</asrwt>
<pdfrwt beam="1">  1       21 0.11404850E+00 0.25026559E+03</pdfrwt>
<pdfrwt beam="2">  1       21 0.18513570E-01 0.25026559E+03</pdfrwt>
<totfact> 0.15400949E+04</totfact>
</mgrwt>
</event>
<event>
12    1  0.1074575E-001  0.2141221E+03  0.7546771E-02  0.1138445E+00
         21   -1    0    0  503  502  0.00000000000E+00  0.00000000000E+00  0.95370196665E+03  0.95370196665E+03  0.00000000000E+00 0. -1.
         21   -1    0    0  501  503 -0.00000000000E+00 -0.00000000000E+00 -0.64757592982E+02  0.64757592982E+02  0.00000000000E+00 0. -1.
          6    2    1    2  501    0 -0.12504416002E+03  0.20738610557E+02  0.18468020626E+03  0.28236426333E+03  0.17192052437E+03 0.  0.
         24    2    3    3    0    0  0.12225596637E+02 -0.18576245848E+02  0.66876046681E+02  0.97192575318E+02  0.66928685587E+02 0.  0.
         -6    2    1    2    0  502  0.12504416002E+03 -0.20738610557E+02  0.70426416742E+03  0.73609529630E+03  0.17257501503E+03 0.  0.
        -24    2    5    5    0    0  0.15695699901E+03 -0.31179586546E+02  0.57099637539E+03  0.59858225088E+03  0.81585441090E+02 0.  0.
          5    1    3    3  501    0 -0.13726975666E+03  0.39314856405E+02  0.11780415958E+03  0.18517168801E+03  0.47000000000E+01 0. -1.
        -11    1    4    4    0    0  0.76467018333E+01  0.24576774432E+02  0.15929300081E+02  0.30269332525E+02  0.00000000000E+00 0.  1.
         12    1    4    4    0    0  0.45788948038E+01 -0.43153020280E+02  0.50946746599E+02  0.66923242793E+02  0.00000000000E+00 0. -1.
         -5    1    5    5    0  502 -0.31912838989E+02  0.10440975988E+02  0.13326779202E+03  0.13751304543E+03  0.47000000000E+01 0.  1.
         11    1    6    6    0    0  0.66079060555E+02  0.25681294217E+02  0.26641742983E+03  0.27568862514E+03  0.00000000000E+00 0. -1.
        -12    1    6    6    0    0  0.90877938459E+02 -0.56860880762E+02  0.30457894556E+03  0.32289362573E+03  0.00000000000E+00 0.  1.
<mgrwt>
<rscale>  2 0.21399018E+03</rscale>
<asrwt>0</asrwt>
<pdfrwt beam="1">  1       21 0.14672337E+00 0.21412209E+03</pdfrwt>
<pdfrwt beam="2">  1       21 0.99627073E-02 0.21412209E+03</pdfrwt>
<totfact> 0.25525031E+04</totfact>
</mgrwt>
</event>
<event>
12    1  0.1074575E-001  0.2332980E+03  0.7546771E-02  0.1127012E+00
         21   -1    0    0  501  502  0.00000000000E+00  0.00000000000E+00  0.32896282977E+03  0.32896282977E+03  0.00000000000E+00 0.  1.
         21   -1    0    0  502  503 -0.00000000000E+00 -0.00000000000E+00 -0.24776761332E+03  0.24776761332E+03  0.00000000000E+00 0.  1.
         -6    2    1    2    0  503  0.61703194917E+02 -0.14406971984E+03 -0.13492071998E+03  0.26950242162E+03  0.17281373250E+03 0.  0.
        -24    2    3    3    0    0  0.21470122441E+02 -0.16109185803E+03 -0.77352228467E+02  0.19708229649E+03  0.80290170381E+02 0.  0.
          6    2    1    2  501    0 -0.61703194917E+02  0.14406971984E+03  0.21611593643E+03  0.30722802148E+03  0.15205127675E+03 0.  0.
         24    2    5    5    0    0 -0.74700045246E+02  0.79636892801E+02  0.19592430035E+03  0.23830560505E+03  0.80505269857E+02 0.  0.
          5    1    5    5  501    0  0.12996850329E+02  0.64432827039E+02  0.20191636082E+02  0.68922416428E+02  0.47000000000E+01 0. -1.
        -13    1    6    6    0    0 -0.91741571101E+02  0.60445279103E+02  0.15464060259E+03  0.18969413170E+03  0.00000000000E+00 0.  1.
         14    1    6    6    0    0  0.17041525855E+02  0.19191613698E+02  0.41283697765E+02  0.48611473347E+02  0.00000000000E+00 0. -1.
         -5    1    3    3    0  503  0.40233072476E+02  0.17022138185E+02 -0.57568491513E+02  0.72420125134E+02  0.47000000000E+01 0.  1.
         13    1    4    4    0    0  0.21977319126E+02 -0.22723602866E+01 -0.55239799957E+01  0.22774558881E+02  0.00000000000E+00 0. -1.
        -14    1    4    4    0    0 -0.50719668533E+00 -0.15881949774E+03 -0.71828248471E+02  0.17430773760E+03  0.00000000000E+00 0.  1.
<mgrwt>
<rscale>  2 0.22947145E+03</rscale>
<asrwt>0</asrwt>
<pdfrwt beam="1">  1       21 0.50609666E-01 0.23329800E+03</pdfrwt>
<pdfrwt beam="2">  1       21 0.38118094E-01 0.23329800E+03</pdfrwt>
<totfact> 0.24118953E+04</totfact>
</mgrwt>
</event>
<event>
12    1  0.1074575E-001  0.2239276E+03  0.7546771E-02  0.1131240E+00
         21   -1    0    0  501  502  0.00000000000E+00  0.00000000000E+00  0.14166063966E+03  0.14166063966E+03  0.00000000000E+00 0. -1.
         21   -1    0    0  502  503 -0.00000000000E+00 -0.00000000000E+00 -0.35392210191E+03  0.35392210191E+03  0.00000000000E+00 0. -1.
         -6    2    1    2    0  503 -0.11805130604E+02 -0.14172169751E+03 -0.87267049910E+02  0.24033126362E+03  0.17297160929E+03 0.  0.
        -24    2    3    3    0    0 -0.21219525007E+02 -0.20403424375E+02  0.64840452838E+01  0.86649410207E+02  0.81237365037E+02 0.  0.
          6    2    1    2  501    0  0.11805130604E+02  0.14172169751E+03 -0.12499441235E+03  0.25525147795E+03  0.17118794707E+03 0.  0.
         24    2    5    5    0    0  0.72229135574E+02  0.71657971893E+02 -0.82566947247E+02  0.15335856446E+03  0.79684600483E+02 0.  0.
          5    1    5    5  501    0 -0.60424004970E+02  0.70063725617E+02 -0.42427465098E+02  0.10189291349E+03  0.47000000000E+01 0. -1.
        -13    1    6    6    0    0 -0.53752729718E+01  0.27146184871E+01  0.11686524718E+02  0.13146770441E+02  0.00000000000E+00 0.  1.
         14    1    6    6    0    0  0.77604408546E+02  0.68943353405E+02 -0.94253471965E+02  0.14021179402E+03  0.00000000000E+00 0. -1.
         -5    1    3    3    0  503  0.94143944034E+01 -0.12131827314E+03 -0.93751095194E+02  0.15368185341E+03  0.47000000000E+01 0.  1.
         11    1    4    4    0    0 -0.21996430043E+01 -0.35487592972E+02 -0.27455262366E+02  0.44922145050E+02  0.00000000000E+00 0. -1.
        -12    1    4    4    0    0 -0.19019882003E+02  0.15084168597E+02  0.33939307650E+02  0.41727265157E+02  0.00000000000E+00 0.  1.
<mgrwt>
<rscale>  2 0.22358310E+03</rscale>
<asrwt>0</asrwt>
<pdfrwt beam="1">  1       21 0.21793945E-01 0.22392762E+03</pdfrwt>
<pdfrwt beam="2">  1       21 0.54449554E-01 0.22392762E+03</pdfrwt>
<totfact> 0.61734049E+04</totfact>
</mgrwt>
</event>
<event>
12    1  0.1074575E-001  0.3077867E+03  0.7546771E-02  0.1081833E+00
         21   -1    0    0  501  502  0.00000000000E+00  0.00000000000E+00  0.42351843818E+03  0.42351843818E+03  0.00000000000E+00 0.  1.
         21   -1    0    0  502  503 -0.00000000000E+00 -0.00000000000E+00 -0.24210804515E+03  0.24210804515E+03  0.00000000000E+00 0. -1.
         -6    2    1    2    0  503 -0.15347960043E+02  0.25243279960E+03 -0.66982636056E+01  0.30785959013E+03  0.17542742748E+03 0.  0.
        -24    2    3    3    0    0  0.22354398830E+02  0.12164814132E+03  0.57155165325E+02  0.15744202104E+03  0.78887816755E+02 0.  0.
          6    2    1    2  501    0  0.15347960043E+02 -0.25243279960E+03  0.18810865664E+03  0.35776689320E+03  0.16927612050E+03 0.  0.
         24    2    5    5    0    0 -0.35093824327E+02 -0.92267837108E+02  0.12518383498E+03  0.17838235651E+03  0.80027134797E+02 0.  0.
          5    1    5    5  501    0  0.50441784370E+02 -0.16016496249E+03  0.62924821660E+02  0.17938453668E+03  0.47000000000E+01 0. -1.
        -11    1    6    6    0    0  0.23874774015E+02 -0.46293004664E+02  0.56599271040E+02  0.76918948233E+02  0.00000000000E+00 0.  1.
         12    1    6    6    0    0 -0.58968598341E+02 -0.45974832444E+02  0.68584563941E+02  0.10146340828E+03  0.00000000000E+00 0. -1.
         -5    1    3    3    0  503 -0.37702358873E+02  0.13078465828E+03 -0.63853428931E+02  0.15041756910E+03  0.47000000000E+01 0.  1.
         13    1    4    4    0    0  0.52025269495E+02  0.77919662417E+02  0.32937462250E+02  0.99312531317E+02  0.00000000000E+00 0. -1.
        -14    1    4    4    0    0 -0.29670870666E+02  0.43728478899E+02  0.24217703075E+02  0.58129489720E+02  0.00000000000E+00 0.  1.
<mgrwt>
<rscale>  2 0.30691702E+03</rscale>
<asrwt>0</asrwt>
<pdfrwt beam="1">  1       21 0.65156683E-01 0.30778671E+03</pdfrwt>
<pdfrwt beam="2">  1       21 0.37247392E-01 0.30778671E+03</pdfrwt>
<totfact> 0.14194886E+04</totfact>
</mgrwt>
</event>
<event>
12    1  0.1074575E-001  0.2284447E+03  0.7546771E-02  0.1127858E+00
         21   -1    0    0  501  502  0.00000000000E+00  0.00000000000E+00  0.23650108559E+03  0.23650108559E+03  0.00000000000E+00 0. -1.
         21   -1    0    0  502  503 -0.00000000000E+00 -0.00000000000E+00 -0.29074827100E+03  0.29074827100E+03  0.00000000000E+00 0.  1.
         -6    2    1    2    0  503  0.10300676363E+03 -0.10758759897E+03 -0.15717694613E+03  0.27729326982E+03  0.17320935392E+03 0.  0.
        -24    2    3    3    0    0  0.91521178660E+02 -0.54406338091E+02 -0.26316941377E+02  0.13549554059E+03  0.79563084079E+02 0.  0.
          6    2    1    2  501    0 -0.10300676363E+03  0.10758759897E+03  0.10292976072E+03  0.24995608676E+03  0.17233114884E+03 0.  0.
         24    2    5    5    0    0 -0.14049661788E+03  0.85871880700E+02  0.84689617651E+02  0.20271358036E+03  0.82505665228E+02 0.  0.
          5    1    5    5  501    0  0.37489854248E+02  0.21715718274E+02  0.18240143070E+02  0.47242506400E+02  0.47000000000E+01 0. -1.
        -11    1    6    6    0    0 -0.60231922792E+01  0.42195601012E+02  0.16056216612E+02  0.45547224744E+02  0.00000000000E+00 0.  1.
         12    1    6    6    0    0 -0.13447342560E+03  0.43676279688E+02  0.68633401039E+02  0.15716635562E+03  0.00000000000E+00 0. -1.
         -5    1    3    3    0  503  0.11485584971E+02 -0.53181260884E+02 -0.13086000476E+03  0.14179772923E+03  0.47000000000E+01 0.  1.
         11    1    4    4    0    0  0.23469708901E+02 -0.53112853053E+02  0.90879453632E+01  0.58774085669E+02  0.00000000000E+00 0. -1.
        -12    1    4    4    0    0  0.68051469759E+02 -0.12934850382E+01 -0.35404886740E+02  0.76721454919E+02  0.00000000000E+00 0.  1.
<mgrwt>
<rscale>  2 0.22827820E+03</rscale>
<asrwt>0</asrwt>
<pdfrwt beam="1">  1       21 0.36384783E-01 0.22844467E+03</pdfrwt>
<pdfrwt beam="2">  1       21 0.44730503E-01 0.22844467E+03</pdfrwt>
<totfact> 0.34317451E+04</totfact>
</mgrwt>
</event>
<event>
12    1  0.1074575E-001  0.2243568E+03  0.7546771E-02  0.1131615E+00
         21   -1    0    0  501  502  0.00000000000E+00  0.00000000000E+00  0.54362252772E+03  0.54362252772E+03  0.00000000000E+00 0.  1.
         21   -1    0    0  502  503 -0.00000000000E+00 -0.00000000000E+00 -0.20269136565E+03  0.20269136565E+03  0.00000000000E+00 0.  1.
         -6    2    1    2    0  503 -0.13469366843E+03  0.38684742765E+01 -0.10627284445E+03  0.24825368407E+03  0.17938401483E+03 0.  0.
        -24    2    3    3    0    0 -0.13624558800E+03 -0.63085635553E+01 -0.18235916738E+02  0.15949236820E+03  0.80638753900E+02 0.  0.
          6    2    1    2  501    0  0.13469366843E+03 -0.38684742765E+01  0.44720400653E+03  0.49806020930E+03  0.17296010879E+03 0.  0.
         24    2    5    5    0    0  0.52805978867E+02  0.29182121214E+02  0.11029065184E+03  0.14973473776E+03  0.81341233116E+02 0.  0.
          5    1    5    5  501    0  0.81887689560E+02 -0.33050595491E+02  0.33691335469E+03  0.34832547155E+03  0.47000000000E+01 0. -1.
        -11    1    6    6    0    0  0.74081747456E+02  0.28938685280E+02  0.80867825394E+02  0.11342467984E+03  0.00000000000E+00 0.  1.
         12    1    6    6    0    0 -0.21275768589E+02  0.24343593378E+00  0.29422826446E+02  0.36310057920E+02  0.00000000000E+00 0. -1.
         -5    1    3    3    0  503  0.15519195733E+01  0.10177037832E+02 -0.88036927712E+02  0.88761315867E+02  0.47000000000E+01 0.  1.
         13    1    4    4    0    0 -0.71248253630E+01 -0.12793148900E+01  0.22794243634E+02  0.23916047455E+02  0.00000000000E+00 0. -1.
        -14    1    4    4    0    0 -0.12912076264E+03 -0.50292486653E+01 -0.41030160371E+02  0.13557632074E+03  0.00000000000E+00 0.  1.
<mgrwt>
<rscale>  2 0.22307021E+03</rscale>
<asrwt>0</asrwt>
<pdfrwt beam="1">  1       21 0.83634234E-01 0.22435680E+03</pdfrwt>
<pdfrwt beam="2">  1       21 0.31183287E-01 0.22435680E+03</pdfrwt>
<totfact> 0.12036925E+04</totfact>
</mgrwt>
</event>
<event>
12    1  0.1074575E-001  0.1838944E+03  0.7546771E-02  0.1164458E+00
         21   -1    0    0  503  502  0.00000000000E+00  0.00000000000E+00  0.90171671678E+02  0.90171671678E+02  0.00000000000E+00 0. -1.
         21   -1    0    0  501  503 -0.00000000000E+00 -0.00000000000E+00 -0.50059521306E+03  0.50059521306E+03  0.00000000000E+00 0. -1.
          6    2    1    2  501    0 -0.59873839807E+02  0.77878990938E+01 -0.35567600724E+03  0.40040300506E+03  0.17369978776E+03 0.  0.
         24    2    3    3    0    0 -0.56526977522E+02 -0.10271294256E+02 -0.86473832948E+02  0.13053408022E+03  0.79124102774E+02 0.  0.
         -6    2    1    2    0  502  0.59873839807E+02 -0.77878990938E+01 -0.54747534139E+02  0.19036387968E+03  0.17203367730E+03 0.  0.
        -24    2    5    5    0    0 -0.10014861024E+02 -0.18219119825E+02 -0.78617245838E+02  0.11563039317E+03  0.82203909347E+02 0.  0.
          5    1    3    3  501    0 -0.33468622845E+01  0.18059193349E+02 -0.26920217429E+03  0.26986892484E+03  0.47000000000E+01 0. -1.
        -13    1    4    4    0    0 -0.11509998885E+02  0.29494047206E+02 -0.53094033807E+02  0.61817111877E+02  0.00000000000E+00 0.  1.
         14    1    4    4    0    0 -0.45016978637E+02 -0.39765341461E+02 -0.33379799141E+02  0.68716968340E+02  0.00000000000E+00 0. -1.
         -5    1    5    5    0  502  0.69888700831E+02  0.10431220731E+02  0.23869711698E+02  0.74733486513E+02  0.47000000000E+01 0.  1.
         11    1    6    6    0    0  0.69457030681E+01 -0.43769393384E+02 -0.18264865445E+02  0.47933369358E+02  0.00000000000E+00 0. -1.
        -12    1    6    6    0    0 -0.16960564092E+02  0.25550273559E+02 -0.60352380393E+02  0.67697023807E+02  0.00000000000E+00 0.  1.
<mgrwt>
<rscale>  2 0.18349988E+03</rscale>
<asrwt>0</asrwt>
<pdfrwt beam="1">  1       21 0.13872565E-01 0.18389438E+03</pdfrwt>
<pdfrwt beam="2">  1       21 0.77014646E-01 0.18389438E+03</pdfrwt>
<totfact> 0.67995640E+04</totfact>
</mgrwt>
</event>
<event>
12    1  0.1074575E-001  0.2664361E+03  0.7546771E-02  0.1103737E+00
         21   -1    0    0  503  502  0.00000000000E+00  0.00000000000E+00  0.41425710111E+03  0.41425710111E+03  0.00000000000E+00 0.  1.
         21   -1    0    0  501  503 -0.00000000000E+00 -0.00000000000E+00 -0.51074823220E+03  0.51074823220E+03  0.00000000000E+00 0.  1.
          6    2    1    2  501    0 -0.21073990899E+02  0.20114732473E+03 -0.42614927005E+03  0.50113896193E+03  0.16921199561E+03 0.  0.
         24    2    3    3    0    0 -0.81220306788E+01  0.20230656573E+03 -0.28254591980E+03  0.35687146969E+03  0.80815438887E+02 0.  0.
         -6    2    1    2    0  502  0.21073990899E+02 -0.20114732473E+03  0.32965813896E+03  0.42386637138E+03  0.17344697421E+03 0.  0.
        -24    2    5    5    0    0  0.22809483974E+02 -0.19709911111E+03  0.19748424275E+03  0.29153561603E+03  0.81391996678E+02 0.  0.
          5    1    3    3  501    0 -0.12951960220E+02 -0.11592409998E+01 -0.14360335025E+03  0.14426749224E+03  0.47000000000E+01 0. -1.
        -11    1    4    4    0    0 -0.22440581215E+02  0.86156231120E+02 -0.66357844824E+02  0.11103981005E+03  0.00000000000E+00 0.  1.
         12    1    4    4    0    0  0.14318550536E+02  0.11615033461E+03 -0.21618807498E+03  0.24583165964E+03  0.00000000000E+00 0. -1.
         -5    1    5    5    0  502 -0.17354930751E+01 -0.40482136253E+01  0.13217389621E+03  0.13233075534E+03  0.47000000000E+01 0.  1.
         11    1    6    6    0    0 -0.15155049388E+02 -0.65986259247E+02  0.11076921501E+03  0.12982172747E+03  0.00000000000E+00 0. -1.
        -12    1    6    6    0    0  0.37964533362E+02 -0.13111285186E+03  0.86715027744E+02  0.16171388856E+03  0.00000000000E+00 0.  1.
<mgrwt>
<rscale>  2 0.26574915E+03</rscale>
<asrwt>0</asrwt>
<pdfrwt beam="1">  1       21 0.63731862E-01 0.26643613E+03</pdfrwt>
<pdfrwt beam="2">  1       21 0.78576651E-01 0.26643613E+03</pdfrwt>
<totfact> 0.30866312E+03</totfact>
</mgrwt>
</event>
<event>
12    1  0.1074575E-001  0.2253536E+03  0.7546771E-02  0.1129974E+00
         21   -1    0    0  503  502  0.00000000000E+00  0.00000000000E+00  0.12020481794E+03  0.12020481794E+03  0.00000000000E+00 0. -1.
         21   -1    0    0  501  503 -0.00000000000E+00 -0.00000000000E+00 -0.48988912457E+03  0.48988912457E+03  0.00000000000E+00 0. -1.
          6    2    1    2  501    0  0.11006929654E+03 -0.93969417174E+02 -0.29821509317E+03  0.37378670136E+03  0.17273897913E+03 0.  0.
         24    2    3    3    0    0  0.58686915192E+02 -0.99048221697E+02 -0.28917605677E+03  0.32115840528E+03  0.79153175802E+02 0.  0.
         -6    2    1    2    0  502 -0.11006929654E+03  0.93969417174E+02 -0.71469213459E+02  0.23630724115E+03  0.17259131595E+03 0.  0.
        -24    2    5    5    0    0 -0.23319215516E+02  0.27002322893E+02  0.23544254328E+02  0.91187231037E+02  0.80547302491E+02 0.  0.
          5    1    3    3  501    0  0.51382381349E+02  0.50788045235E+01 -0.90390364015E+01  0.52628296073E+02  0.47000000000E+01 0. -1.
        -11    1    4    4    0    0  0.31578335201E+02  0.50316775574E+01 -0.59536263551E+02  0.67580142873E+02  0.00000000000E+00 0.  1.
         12    1    4    4    0    0  0.27108579992E+02 -0.10407989925E+03 -0.22963979322E+03  0.25357826241E+03  0.00000000000E+00 0. -1.
         -5    1    5    5    0  502 -0.86750081025E+02  0.66967094281E+02 -0.95013467787E+02  0.14512001011E+03  0.47000000000E+01 0.  1.
         13    1    6    6    0    0  0.10499930565E+01  0.48972154564E+02 -0.28671283546E+01  0.49067248069E+02  0.00000000000E+00 0. -1.
        -14    1    6    6    0    0 -0.24369208572E+02 -0.21969831671E+02  0.26411382683E+02  0.42119982969E+02  0.00000000000E+00 0.  1.
<mgrwt>
<rscale>  2 0.22532533E+03</rscale>
<asrwt>0</asrwt>
<pdfrwt beam="1">  1       21 0.18493049E-01 0.22535363E+03</pdfrwt>
<pdfrwt beam="2">  1       21 0.75367557E-01 0.22535363E+03</pdfrwt>
<totfact> 0.41319034E+04</totfact>
</mgrwt>
</event>
<event>
12    1  0.1074575E-001  0.3289929E+03  0.7546771E-02  0.1071679E+00
         21   -1    0    0  503  502  0.00000000000E+00  0.00000000000E+00  0.22891379900E+04  0.22891379900E+04  0.00000000000E+00 0.  1.
         21   -1    0    0  501  503 -0.00000000000E+00 -0.00000000000E+00 -0.65056779624E+02  0.65056779624E+02  0.00000000000E+00 0. -1.
          6    2    1    2  501    0 -0.20911720728E+03  0.18512662025E+03  0.49569724361E+03  0.59493870707E+03  0.17388052201E+03 0.  0.
         24    2    3    3    0    0 -0.16542822906E+03  0.76850323941E+02  0.39283182867E+03  0.43925997778E+03  0.73212097389E+02 0.  0.
         -6    2    1    2    0  502  0.20911720728E+03 -0.18512662025E+03  0.17283839667E+04  0.17592560625E+04  0.17224658244E+03 0.  0.
        -24    2    5    5    0    0  0.81062755355E+02 -0.96540103057E+02  0.53195727414E+03  0.55273029221E+03  0.81492776435E+02 0.  0.
          5    1    3    3  501    0 -0.43688978225E+02  0.10827629631E+03  0.10286541495E+03  0.15567872929E+03  0.47000000000E+01 0. -1.
        -13    1    4    4    0    0 -0.22563497489E+02  0.43288131859E+02  0.80025657334E+02  0.93739423993E+02  0.00000000000E+00 0.  1.
         14    1    4    4    0    0 -0.14286473157E+03  0.33562192082E+02  0.31280617133E+03  0.34552055378E+03  0.00000000000E+00 0. -1.
         -5    1    5    5    0  502  0.12805445193E+03 -0.88586517197E+02  0.11964266926E+04  0.12065257703E+04  0.47000000000E+01 0.  1.
         11    1    6    6    0    0  0.51767381998E+02 -0.35895845768E+01  0.15921801671E+03  0.16746081273E+03  0.00000000000E+00 0. -1.
        -12    1    6    6    0    0  0.29295373357E+02 -0.92950518481E+02  0.37273925743E+03  0.38526947947E+03  0.00000000000E+00 0.  1.
<mgrwt>
<rscale>  2 0.32877750E+03</rscale>
<asrwt>0</asrwt>
<pdfrwt beam="1">  1       21 0.35217501E+00 0.32899287E+03</pdfrwt>
<pdfrwt beam="2">  1       21 0.10008737E-01 0.32899287E+03</pdfrwt>
<totfact> 0.11880016E+03</totfact>
</mgrwt>
</event>
<event>
12    1  0.1074575E-001  0.1744596E+03  0.7546771E-02  0.1173393E+00
         21   -1    0    0  501  502  0.00000000000E+00  0.00000000000E+00  0.25038814854E+03  0.25038814854E+03  0.00000000000E+00 0. -1.
         21   -1    0    0  502  503 -0.00000000000E+00 -0.00000000000E+00 -0.14539891500E+03  0.14539891500E+03  0.00000000000E+00 0. -1.
         -6    2    1    2    0  503  0.23738122265E+02  0.45862165288E+01 -0.28125366736E+02  0.17671214279E+03  0.17277619433E+03 0.  0.
        -24    2    3    3    0    0  0.20322814869E+02  0.27149127601E+02 -0.80133583076E+02  0.11972360142E+03  0.82232947578E+02 0.  0.
          6    2    1    2  501    0 -0.23738122265E+02 -0.45862165288E+01  0.13311460028E+03  0.21907492075E+03  0.17230726120E+03 0.  0.
         24    2    5    5    0    0  0.46254958462E+02  0.10677380607E+02  0.40512249416E+02  0.10190285013E+03  0.80556941809E+02 0.  0.
          5    1    5    5  501    0 -0.69993080726E+02 -0.15263597136E+02  0.92602350865E+02  0.11717207062E+03  0.47000000000E+01 0. -1.
        -11    1    6    6    0    0  0.43605666647E+02 -0.26245622153E+02  0.40244764457E+02  0.64883957279E+02  0.00000000000E+00 0.  1.
         12    1    6    6    0    0  0.26492918153E+01  0.36923002760E+02  0.26748495825E+00  0.37018892855E+02  0.00000000000E+00 0. -1.
         -5    1    3    3    0  503  0.34153073955E+01 -0.22562911072E+02  0.52008216340E+02  0.56988541370E+02  0.47000000000E+01 0.  1.
         11    1    4    4    0    0  0.22738765195E+02 -0.25498766447E+02 -0.19315347903E+02  0.39246925962E+02  0.00000000000E+00 0. -1.
        -12    1    4    4    0    0 -0.24159503256E+01  0.52647894047E+02 -0.60818235173E+02  0.80476675460E+02  0.00000000000E+00 0.  1.
<mgrwt>
<rscale>  2 0.17434337E+03</rscale>
<asrwt>0</asrwt>
<pdfrwt beam="1">  1       21 0.38521254E-01 0.17445958E+03</pdfrwt>
<pdfrwt beam="2">  1       21 0.22369064E-01 0.17445958E+03</pdfrwt>
<totfact> 0.12234726E+05</totfact>
</mgrwt>
</event>
<event>
12    1  0.1074575E-001  0.1834458E+03  0.7546771E-02  0.1165250E+00
         21   -1    0    0  503  502  0.00000000000E+00  0.00000000000E+00  0.76827550357E+02  0.76827550357E+02  0.00000000000E+00 0.  1.
         21   -1    0    0  501  503 -0.00000000000E+00 -0.00000000000E+00 -0.43480889268E+03  0.43480889268E+03  0.00000000000E+00 0.  1.
          6    2    1    2  501    0  0.32631197507E+02  0.43419251640E+02 -0.20256090459E+03  0.27120374450E+03  0.17196082258E+03 0.  0.
         24    2    3    3    0    0 -0.42841035582E+02  0.50985386386E+02 -0.10864760600E+03  0.15039355448E+03  0.79868986371E+02 0.  0.
         -6    2    1    2    0  502 -0.32631197507E+02 -0.43419251640E+02 -0.15542043773E+03  0.24043269853E+03  0.17522084235E+03 0.  0.
        -24    2    5    5    0    0  0.48181858506E+02 -0.84146663685E+01 -0.82094615962E+02  0.12573816008E+03  0.81720626720E+02 0.  0.
          5    1    3    3  501    0  0.75472233089E+02 -0.75661347455E+01 -0.93913298590E+02  0.12081019003E+03  0.47000000000E+01 0. -1.
        -11    1    4    4    0    0 -0.17570436060E+02  0.32049369493E+02 -0.11277218039E+03  0.11854723522E+03  0.00000000000E+00 0.  1.
         12    1    4    4    0    0 -0.25270599523E+02  0.18936016892E+02  0.41245743958E+01  0.31846319252E+02  0.00000000000E+00 0. -1.
         -5    1    5    5    0  502 -0.80813056013E+02 -0.35004585272E+02 -0.73325821773E+02  0.11469453845E+03  0.47000000000E+01 0.  1.
         13    1    6    6    0    0  0.26169834357E+02  0.27467257253E+02 -0.73587565861E+02  0.82791547277E+02  0.00000000000E+00 0. -1.
        -14    1    6    6    0    0  0.22012024149E+02 -0.35881923621E+02 -0.85070501009E+01  0.42946612804E+02  0.00000000000E+00 0.  1.
<mgrwt>
<rscale>  2 0.18266301E+03</rscale>
<asrwt>0</asrwt>
<pdfrwt beam="1">  1       21 0.11819623E-01 0.18344582E+03</pdfrwt>
<pdfrwt beam="2">  1       21 0.66893675E-01 0.18344582E+03</pdfrwt>
<totfact> 0.12383364E+05</totfact>
</mgrwt>
</event>
<event>
12    1  0.1074575E-001  0.1784270E+03  0.7546771E-02  0.1170801E+00
         21   -1    0    0  501  502  0.00000000000E+00  0.00000000000E+00  0.13728045324E+03  0.13728045324E+03  0.00000000000E+00 0.  1.
         21   -1    0    0  502  503 -0.00000000000E+00 -0.00000000000E+00 -0.24571465117E+03  0.24571465117E+03  0.00000000000E+00 0.  1.
         -6    2    1    2    0  503 -0.86900408769E+01  0.43648649145E+02  0.31176960021E+01  0.17256692730E+03  0.16670003895E+03 0.  0.
        -24    2    3    3    0    0  0.51971771543E+02 -0.34070997352E+01  0.12308531688E+02  0.95102997311E+02  0.78615563212E+02 0.  0.
          6    2    1    2  501    0  0.86900408769E+01 -0.43648649145E+02 -0.11155189393E+03  0.21042817711E+03  0.17278735862E+03 0.  0.
         24    2    5    5    0    0 -0.22466398481E+02  0.20856172466E+02 -0.10584839557E+02  0.86541003463E+02  0.80234577716E+02 0.  0.
          5    1    5    5  501    0  0.31156439358E+02 -0.64504821611E+02 -0.10096705438E+03  0.12388717364E+03  0.47000000000E+01 0. -1.
        -11    1    6    6    0    0 -0.92281842071E+01 -0.26196494857E+02  0.14790790237E+02  0.31467176587E+02  0.00000000000E+00 0.  1.
         12    1    6    6    0    0 -0.13238214274E+02  0.47052667323E+02 -0.25375629794E+02  0.55073826876E+02  0.00000000000E+00 0. -1.
         -5    1    3    3    0  503 -0.60661812420E+02  0.47055748881E+02 -0.91908356860E+01  0.77463929989E+02  0.47000000000E+01 0.  1.
         13    1    4    4    0    0  0.35596602013E+02 -0.38582106331E+02  0.18808441426E+02  0.55762482663E+02  0.00000000000E+00 0. -1.
        -14    1    4    4    0    0  0.16375169530E+02  0.35175006596E+02 -0.64999097375E+01  0.39340514648E+02  0.00000000000E+00 0.  1.
<mgrwt>
<rscale>  2 0.17693636E+03</rscale>
<asrwt>0</asrwt>
<pdfrwt beam="1">  1       21 0.21120070E-01 0.17842700E+03</pdfrwt>
<pdfrwt beam="2">  1       21 0.37802254E-01 0.17842700E+03</pdfrwt>
<totfact> 0.14133367E+05</totfact>
</mgrwt>
</event>
<event>
12    1  0.1074575E-001  0.2264030E+03  0.7546771E-02  0.1129309E+00
         21   -1    0    0  501  502  0.00000000000E+00  0.00000000000E+00  0.15142995723E+03  0.15142995723E+03  0.00000000000E+00 0. -1.
         21   -1    0    0  502  503 -0.00000000000E+00 -0.00000000000E+00 -0.33964977599E+03  0.33964977599E+03  0.00000000000E+00 0.  1.
         -6    2    1    2    0  503 -0.14606603202E+03  0.41480971581E+01 -0.74760366978E+02  0.23783798886E+03  0.17212002804E+03 0.  0.
        -24    2    3    3    0    0 -0.79747486168E+02 -0.57298556944E+02 -0.74701348575E+02  0.14730658929E+03  0.80474552444E+02 0.  0.
          6    2    1    2  501    0  0.14606603202E+03 -0.41480971581E+01 -0.11345945178E+03  0.25324174437E+03  0.17293305488E+03 0.  0.
         24    2    5    5    0    0  0.49982651187E+02 -0.31608513077E+02 -0.11877528193E+03  0.15305971721E+03  0.76304298147E+02 0.  0.
          5    1    5    5  501    0  0.96083380837E+02  0.27460415919E+02  0.53158301488E+01  0.10018202716E+03  0.47000000000E+01 0. -1.
        -13    1    6    6    0    0  0.48435224726E+02 -0.10402954698E+02 -0.22403076024E+02  0.54369939085E+02  0.00000000000E+00 0.  1.
         14    1    6    6    0    0  0.15474264602E+01 -0.21205558379E+02 -0.96372205909E+02  0.98689778126E+02  0.00000000000E+00 0. -1.
         -5    1    3    3    0  503 -0.66318545856E+02  0.61446654102E+02 -0.59018403092E-01  0.90531399569E+02  0.47000000000E+01 0.  1.
         11    1    4    4    0    0 -0.46389969729E+02  0.90449152932E+01 -0.89094330191E+01  0.48095922705E+02  0.00000000000E+00 0. -1.
        -12    1    4    4    0    0 -0.33357516439E+02 -0.66343472238E+02 -0.65791915556E+02  0.99210666584E+02  0.00000000000E+00 0.  1.
<mgrwt>
<rscale>  2 0.22624777E+03</rscale>
<asrwt>0</asrwt>
<pdfrwt beam="1">  1       21 0.23296917E-01 0.22640303E+03</pdfrwt>
<pdfrwt beam="2">  1       21 0.52253811E-01 0.22640303E+03</pdfrwt>
<totfact> 0.59284205E+04</totfact>
</mgrwt>
</event>
<event>
12    1  0.1074575E-001  0.1937618E+03  0.7546771E-02  0.1155257E+00
         21   -1    0    0  501  502  0.00000000000E+00  0.00000000000E+00  0.98132982468E+02  0.98132982468E+02  0.00000000000E+00 0.  1.
         21   -1    0    0  502  503 -0.00000000000E+00 -0.00000000000E+00 -0.20112381661E+04  0.20112381661E+04  0.00000000000E+00 0.  1.
         -6    2    1    2    0  503  0.69567254741E+02 -0.56589762562E+02 -0.19057101604E+04  0.19154682665E+04  0.17101304198E+03 0.  0.
        -24    2    3    3    0    0 -0.16008621798E+01 -0.81413415166E+02 -0.10024107166E+04  0.10090174462E+04  0.81598131007E+02 0.  0.
          6    2    1    2  501    0 -0.69567254741E+02  0.56589762562E+02 -0.73950232232E+01  0.19390288201E+03  0.17176040617E+03 0.  0.
         24    2    5    5    0    0 -0.35986893179E+02  0.35882548133E+01 -0.65149930621E+02  0.10849492082E+03  0.78858749238E+02 0.  0.
          5    1    5    5  501    0 -0.33580361562E+02  0.53001507749E+02  0.57754907397E+02  0.85407961191E+02  0.47000000000E+01 0. -1.
        -13    1    6    6    0    0 -0.26172407809E+02 -0.21863803277E+01  0.13149700603E+02  0.29371581765E+02  0.00000000000E+00 0.  1.
         14    1    6    6    0    0 -0.98144853697E+01  0.57746351410E+01 -0.78299631223E+02  0.79123339059E+02  0.00000000000E+00 0. -1.
         -5    1    3    3    0  503  0.71168116921E+02  0.24823652604E+02 -0.90329944378E+03  0.90645082036E+03  0.47000000000E+01 0.  1.
         11    1    4    4    0    0 -0.35844982257E+02 -0.64581176076E+02 -0.76530075609E+03  0.76885683865E+03  0.00000000000E+00 0. -1.
        -12    1    4    4    0    0  0.34244120077E+02 -0.16832239090E+02 -0.23710996050E+03  0.24016060751E+03  0.00000000000E+00 0.  1.
<mgrwt>
<rscale>  2 0.19359606E+03</rscale>
<asrwt>0</asrwt>
<pdfrwt beam="1">  1       21 0.15097382E-01 0.19376182E+03</pdfrwt>
<pdfrwt beam="2">  1       21 0.30942125E+00 0.19376182E+03</pdfrwt>
<totfact> 0.11661472E+03</totfact>
</mgrwt>
</event>
<event>
12    1  0.1074575E-001  0.2504920E+03  0.7546771E-02  0.1113003E+00
         21   -1    0    0  501  502  0.00000000000E+00  0.00000000000E+00  0.64583818160E+03  0.64583818160E+03  0.00000000000E+00 0.  1.
         21   -1    0    0  502  503 -0.00000000000E+00 -0.00000000000E+00 -0.10138943581E+03  0.10138943581E+03  0.00000000000E+00 0. -1.
         -6    2    1    2    0  503 -0.16133505386E+03 -0.82671462617E+02  0.19569681033E+03  0.31787337692E+03  0.17286605174E+03 0.  0.
        -24    2    3    3    0    0 -0.14814006447E+03 -0.10107992508E+03  0.10016893474E+03  0.21958480052E+03  0.77595355368E+02 0.  0.
          6    2    1    2  501    0  0.16133505386E+03  0.82671462617E+02  0.34875193546E+03  0.42935424049E+03  0.17278188854E+03 0.  0.
         24    2    5    5    0    0  0.17760086389E+03  0.72983826893E+02  0.23476773472E+03  0.31371292054E+03  0.80194771689E+02 0.  0.
          5    1    5    5  501    0 -0.16265810029E+02  0.96876357244E+01  0.11398420075E+03  0.11564131996E+03  0.47000000000E+01 0. -1.
        -13    1    6    6    0    0  0.28222062391E+02 -0.11037001684E+02  0.68609302512E+02  0.75003577267E+02  0.00000000000E+00 0.  1.
         14    1    6    6    0    0  0.14937880150E+03  0.84020828577E+02  0.16615843220E+03  0.23870934327E+03  0.00000000000E+00 0. -1.
         -5    1    3    3    0  503 -0.13194989386E+02  0.18408462467E+02  0.95527875593E+02  0.98288576400E+02  0.47000000000E+01 0.  1.
         11    1    4    4    0    0 -0.40296110317E+02 -0.64489469354E+02  0.15327082165E+02  0.77573111397E+02  0.00000000000E+00 0. -1.
        -12    1    4    4    0    0 -0.10784395415E+03 -0.36590455730E+02  0.84841852575E+02  0.14201168912E+03  0.00000000000E+00 0.  1.
<mgrwt>
<rscale>  2 0.25047748E+03</rscale>
<asrwt>0</asrwt>
<pdfrwt beam="1">  1       21 0.99359718E-01 0.25049200E+03</pdfrwt>
<pdfrwt beam="2">  1       21 0.15598375E-01 0.25049200E+03</pdfrwt>
<totfact> 0.29542204E+04</totfact>
</mgrwt>
</event>
<event>
12    1  0.1074575E-001  0.1870357E+03  0.7546771E-02  0.1162459E+00
         21   -1    0    0  501  502  0.00000000000E+00  0.00000000000E+00  0.48063549614E+03  0.48063549614E+03  0.00000000000E+00 0.  1.
         21   -1    0    0  502  503 -0.00000000000E+00 -0.00000000000E+00 -0.72479896258E+02  0.72479896258E+02  0.00000000000E+00 0.  1.
         -6    2    1    2    0  503 -0.53550085220E+02  0.11625528683E+02  0.16304061272E+03  0.24812214600E+03  0.17882839091E+03 0.  0.
        -24    2    3    3    0    0 -0.45331141543E+02  0.18490312352E+02  0.10515570979E+02  0.95149420820E+02  0.80907546032E+02 0.  0.
          6    2    1    2  501    0  0.53550085220E+02 -0.11625528683E+02  0.24511498716E+03  0.30499324640E+03  0.17302242304E+03 0.  0.
         24    2    5    5    0    0  0.70266476330E+02 -0.66220267925E+02  0.15898297991E+03  0.20154840140E+03  0.77612296863E+02 0.  0.
          5    1    5    5  501    0 -0.16716391110E+02  0.54594739242E+02  0.86132007252E+02  0.10344484500E+03  0.47000000000E+01 0. -1.
        -13    1    6    6    0    0  0.27547696991E+02  0.59079438988E+01  0.85668389200E+02  0.90182328196E+02  0.00000000000E+00 0.  1.
         14    1    6    6    0    0  0.42718779339E+02 -0.72128211824E+02  0.73314590709E+02  0.11136607320E+03  0.00000000000E+00 0. -1.
         -5    1    3    3    0  503 -0.82189436775E+01 -0.68647836690E+01  0.15252504174E+03  0.15297272518E+03  0.47000000000E+01 0.  1.
         13    1    4    4    0    0 -0.30254261675E+01 -0.29105581526E+02 -0.48002052957E+01  0.29653499800E+02  0.00000000000E+00 0. -1.
        -14    1    4    4    0    0 -0.42305715375E+02  0.47595893878E+02  0.15315776274E+02  0.65495921021E+02  0.00000000000E+00 0.  1.
<mgrwt>
<rscale>  2 0.18563423E+03</rscale>
<asrwt>0</asrwt>
<pdfrwt beam="1">  1       21 0.73943920E-01 0.18703571E+03</pdfrwt>
<pdfrwt beam="2">  1       21 0.11150754E-01 0.18703571E+03</pdfrwt>
<totfact> 0.11000547E+05</totfact>
</mgrwt>
</event>
<event>
12    1  0.1074575E-001  0.1751265E+03  0.7546771E-02  0.1173333E+00
         21   -1    0    0  501  502  0.00000000000E+00  0.00000000000E+00  0.99730816073E+02  0.99730816073E+02  0.00000000000E+00 0.  1.
         21   -1    0    0  502  503 -0.00000000000E+00 -0.00000000000E+00 -0.30697301842E+03  0.30697301842E+03  0.00000000000E+00 0.  1.
         -6    2    1    2    0  503  0.17218562567E+02  0.16232455127E+02 -0.12905362499E+03  0.21754110037E+03  0.17352037554E+03 0.  0.
        -24    2    3    3    0    0 -0.28576989722E+02 -0.63291139413E+01 -0.14099198540E+03  0.16490203258E+03  0.80356943543E+02 0.  0.
          6    2    1    2  501    0 -0.17218562567E+02 -0.16232455127E+02 -0.78188577358E+02  0.18916273413E+03  0.17061393512E+03 0.  0.
         24    2    5    5    0    0 -0.39079530491E+02  0.33567060390E+01 -0.11226364045E+03  0.14394285931E+03  0.81104528856E+02 0.  0.
          5    1    5    5  501    0  0.21860967924E+02 -0.19589161166E+02  0.34075063093E+02  0.45219874818E+02  0.47000000000E+01 0. -1.
        -11    1    6    6    0    0 -0.15375632503E+02 -0.24045135950E+02 -0.28458744100E+01  0.28682357624E+02  0.00000000000E+00 0.  1.
         12    1    6    6    0    0 -0.23703897988E+02  0.27401841989E+02 -0.10941776604E+03  0.11526050169E+03  0.00000000000E+00 0. -1.
         -5    1    3    3    0  503  0.45795552289E+02  0.22561569068E+02  0.11938360411E+02  0.52639067787E+02  0.47000000000E+01 0.  1.
         13    1    4    4    0    0 -0.23660450785E+01 -0.41530983372E+02 -0.66253812222E+02  0.78230354615E+02  0.00000000000E+00 0. -1.
        -14    1    4    4    0    0 -0.26210944643E+02  0.35201869431E+02 -0.74738173181E+02  0.86671677963E+02  0.00000000000E+00 0.  1.
<mgrwt>
<rscale>  2 0.17440219E+03</rscale>
<asrwt>0</asrwt>
<pdfrwt beam="1">  1       21 0.15343203E-01 0.17512650E+03</pdfrwt>
<pdfrwt beam="2">  1       21 0.47226618E-01 0.17512650E+03</pdfrwt>
<totfact> 0.16238274E+05</totfact>
</mgrwt>
</event>
<event>
12    1  0.1074575E-001  0.2159686E+03  0.7546771E-02  0.1136988E+00
         21   -1    0    0  503  502  0.00000000000E+00  0.00000000000E+00  0.25157543818E+03  0.25157543818E+03  0.00000000000E+00 0. -1.
         21   -1    0    0  501  503 -0.00000000000E+00 -0.00000000000E+00 -0.41254912706E+03  0.41254912706E+03  0.00000000000E+00 0. -1.
          6    2    1    2  501    0  0.41454012565E+02 -0.12252297833E+03 -0.32700984698E+03  0.39170864988E+03  0.17253959254E+03 0.  0.
         24    2    3    3    0    0  0.52004232517E+02 -0.68289035629E+02 -0.31041392524E+03  0.33382823610E+03  0.87844485567E+02 0.  0.
         -6    2    1    2    0  502 -0.41454012565E+02  0.12252297833E+03  0.16603615811E+03  0.27241591535E+03  0.17295117740E+03 0.  0.
        -24    2    5    5    0    0 -0.71605818424E+02  0.41680111854E+02  0.52679264504E+02  0.12987968914E+03  0.85023548424E+02 0.  0.
          5    1    3    3  501    0 -0.10550219952E+02 -0.54233942698E+02 -0.16595921737E+02  0.57880413785E+02  0.47000000000E+01 0. -1.
        -13    1    4    4    0    0 -0.22255045963E+02 -0.34798694688E+02 -0.10900140455E+03  0.11656561421E+03  0.00000000000E+00 0.  1.
         14    1    4    4    0    0  0.74259278480E+02 -0.33490340941E+02 -0.20141252070E+03  0.21726262189E+03  0.00000000000E+00 0. -1.
         -5    1    5    5    0  502  0.30151805859E+02  0.80842866473E+02  0.11335689360E+03  0.14253622621E+03  0.47000000000E+01 0.  1.
         11    1    6    6    0    0  0.15825382543E+02  0.22598185292E+02  0.21971045375E+02  0.35268222892E+02  0.00000000000E+00 0. -1.
        -12    1    6    6    0    0 -0.87431200967E+02  0.19081926562E+02  0.30708219129E+02  0.94611466250E+02  0.00000000000E+00 0.  1.
<mgrwt>
<rscale>  2 0.21588616E+03</rscale>
<asrwt>0</asrwt>
<pdfrwt beam="1">  1       21 0.38703914E-01 0.21596857E+03</pdfrwt>
<pdfrwt beam="2">  1       21 0.63469096E-01 0.21596857E+03</pdfrwt>
<totfact> 0.14560159E+04</totfact>
</mgrwt>
</event>
<event>
12    1  0.1074575E-001  0.2042101E+03  0.7546771E-02  0.1146776E+00
         21   -1    0    0  503  502  0.00000000000E+00  0.00000000000E+00  0.15488996907E+04  0.15488996907E+04  0.00000000000E+00 0. -1.
         21   -1    0    0  501  503 -0.00000000000E+00 -0.00000000000E+00 -0.51097465827E+02  0.51097465827E+02  0.00000000000E+00 0.  1.
          6    2    1    2  501    0  0.74271749415E+02 -0.70860231626E+02  0.19726294133E+03  0.28392682879E+03  0.17653416354E+03 0.  0.
         24    2    3    3    0    0  0.53616797059E+00  0.15800215026E+02  0.12688358831E+03  0.15005258811E+03  0.78526428329E+02 0.  0.
         -6    2    1    2    0  502 -0.74271749415E+02  0.70860231626E+02  0.13005392835E+04  0.13160703277E+04  0.17349701535E+03 0.  0.
        -24    2    5    5    0    0 -0.24796536589E+02  0.57197373017E+02  0.34442388854E+03  0.35856669383E+03  0.77819349912E+02 0.  0.
          5    1    3    3  501    0  0.73735581445E+02 -0.86660446652E+02  0.70379353027E+02  0.13387424068E+03  0.47000000000E+01 0. -1.
        -13    1    4    4    0    0 -0.10709538924E+02 -0.30546398814E+02  0.53674165721E+02  0.62679285018E+02  0.00000000000E+00 0.  1.
         14    1    4    4    0    0  0.11245706894E+02  0.46346613840E+02  0.73209422586E+02  0.87373303093E+02  0.00000000000E+00 0. -1.
         -5    1    5    5    0  502 -0.49475212826E+02  0.13662858609E+02  0.95611539500E+03  0.95750363390E+03  0.47000000000E+01 0.  1.
         11    1    6    6    0    0 -0.30398488056E+02  0.74607064862E+02  0.29718614809E+03  0.30791214465E+03  0.00000000000E+00 0. -1.
        -12    1    6    6    0    0  0.56019514662E+01 -0.17409691845E+02  0.47237740445E+02  0.50654549181E+02  0.00000000000E+00 0.  1.
<mgrwt>
<rscale>  2 0.20355201E+03</rscale>
<asrwt>0</asrwt>
<pdfrwt beam="1">  1       21 0.23829222E+00 0.20421013E+03</pdfrwt>
<pdfrwt beam="2">  1       21 0.78611498E-02 0.20421013E+03</pdfrwt>
<totfact> 0.95468558E+03</totfact>
</mgrwt>
</event>
<event>
12    1  0.1074575E-001  0.1911947E+03  0.7546771E-02  0.1157497E+00
         21   -1    0    0  501  502  0.00000000000E+00  0.00000000000E+00  0.74361110176E+03  0.74361110176E+03  0.00000000000E+00 0. -1.
         21   -1    0    0  502  503 -0.00000000000E+00 -0.00000000000E+00 -0.59263407704E+02  0.59263407704E+02  0.00000000000E+00 0.  1.
         -6    2    1    2    0  503 -0.19711159332E+01  0.79747535977E+02  0.17575420214E+03  0.25970165615E+03  0.17375803821E+03 0.  0.
        -24    2    3    3    0    0  0.55677473994E+02  0.50698234509E+02  0.41283630754E+02  0.11046477597E+03  0.69482634301E+02 0.  0.
          6    2    1    2  501    0  0.19711159332E+01 -0.79747535977E+02  0.50859349192E+03  0.54317285332E+03  0.17322197830E+03 0.  0.
         24    2    5    5    0    0 -0.13707793341E+02 -0.66849121137E+01  0.10491576461E+03  0.13261010206E+03  0.79658834127E+02 0.  0.
          5    1    5    5  501    0  0.15678909274E+02 -0.73062623863E+02  0.40367772731E+03  0.41056275126E+03  0.47000000000E+01 0. -1.
        -11    1    6    6    0    0 -0.21107618100E+02 -0.40648095314E+02  0.51956946617E+02  0.69262713607E+02  0.00000000000E+00 0.  1.
         12    1    6    6    0    0  0.73998247590E+01  0.33963183200E+02  0.52958817997E+02  0.63347388448E+02  0.00000000000E+00 0. -1.
         -5    1    3    3    0  503 -0.57648589927E+02  0.29049301468E+02  0.13447057139E+03  0.14923688018E+03  0.47000000000E+01 0.  1.
         11    1    4    4    0    0  0.22946727037E+02  0.33436585967E+02  0.57254699685E+02  0.70161657612E+02  0.00000000000E+00 0. -1.
        -12    1    4    4    0    0  0.32730746956E+02  0.17261648542E+02 -0.15971068931E+02  0.40303118359E+02  0.00000000000E+00 0.  1.
<mgrwt>
<rscale>  2 0.19107282E+03</rscale>
<asrwt>0</asrwt>
<pdfrwt beam="1">  1       21 0.11440170E+00 0.19119469E+03</pdfrwt>
<pdfrwt beam="2">  1       21 0.91174479E-02 0.19119469E+03</pdfrwt>
<totfact> 0.56737761E+04</totfact>
</mgrwt>
</event>
<event>
12    1  0.1074575E-001  0.1983897E+03  0.7546771E-02  0.1151133E+00
         21   -1    0    0  503  502  0.00000000000E+00  0.00000000000E+00  0.59967164841E+03  0.59967164841E+03  0.00000000000E+00 0. -1.
         21   -1    0    0  501  503 -0.00000000000E+00 -0.00000000000E+00 -0.93146957202E+02  0.93146957202E+02  0.00000000000E+00 0. -1.
          6    2    1    2  501    0 -0.95323167524E+02  0.18648426133E+02  0.64901810346E+02  0.20873600006E+03  0.17298613433E+03 0.  0.
         24    2    3    3    0    0  0.90925707260E+01 -0.19875576510E+02  0.48436863286E+02  0.96130806327E+02  0.80107982224E+02 0.  0.
         -6    2    1    2    0  502  0.95323167524E+02 -0.18648426133E+02  0.44162288087E+03  0.48408260556E+03  0.17283208624E+03 0.  0.
        -24    2    5    5    0    0  0.98019659054E+02 -0.57022095870E+02  0.22726243575E+03  0.26624711711E+03  0.79874524651E+02 0.  0.
          5    1    3    3  501    0 -0.10441573825E+03  0.38524002643E+02  0.16464947059E+02  0.11260519373E+03  0.47000000000E+01 0. -1.
        -11    1    4    4    0    0  0.15610326841E+02 -0.35998782129E+02 -0.53515055489E+01  0.39600924617E+02  0.00000000000E+00 0.  1.
         12    1    4    4    0    0 -0.65177561153E+01  0.16123205619E+02  0.53788368835E+02  0.56529881710E+02  0.00000000000E+00 0. -1.
         -5    1    5    5    0  502 -0.26964915297E+01  0.38373669737E+02  0.21436044512E+03  0.21783548845E+03  0.47000000000E+01 0.  1.
         11    1    6    6    0    0  0.24642745666E+02  0.18758101100E+02  0.73731237527E+02  0.79971411505E+02  0.00000000000E+00 0. -1.
        -12    1    6    6    0    0  0.73376913388E+02 -0.75780196970E+02  0.15353119822E+03  0.18627570560E+03  0.00000000000E+00 0.  1.
<mgrwt>
<rscale>  2 0.19835611E+03</rscale>
<asrwt>0</asrwt>
<pdfrwt beam="1">  1       21 0.92257174E-01 0.19838970E+03</pdfrwt>
<pdfrwt beam="2">  1       21 0.14330301E-01 0.19838970E+03</pdfrwt>
<totfact> 0.42150904E+04</totfact>
</mgrwt>
</event>
<event>
12    1  0.1074575E-001  0.2203471E+03  0.7546771E-02  0.1133750E+00
         21   -1    0    0  501  502  0.00000000000E+00  0.00000000000E+00  0.39197616837E+02  0.39197616837E+02  0.00000000000E+00 0. -1.
         21   -1    0    0  502  503 -0.00000000000E+00 -0.00000000000E+00 -0.12923710708E+04  0.12923710708E+04  0.00000000000E+00 0. -1.
         -6    2    1    2    0  503 -0.10995880271E+03 -0.78407815911E+02 -0.48526959681E+03  0.53267622287E+03  0.17325891878E+03 0.  0.
        -24    2    3    3    0    0 -0.13416237301E+03 -0.25089708784E+02 -0.38529214584E+03  0.41671841130E+03  0.81087365526E+02 0.  0.
          6    2    1    2  501    0  0.10995880271E+03  0.78407815911E+02 -0.76790385712E+03  0.79889246473E+03  0.17410948433E+03 0.  0.
         24    2    5    5    0    0  0.57151235647E+02  0.68140946422E+02 -0.70930257230E+03  0.71920401933E+03  0.78960939943E+02 0.  0.
          5    1    5    5  501    0  0.52807567058E+02  0.10266869489E+02 -0.58601284828E+02  0.79688445406E+02  0.47000000000E+01 0. -1.
        -13    1    6    6    0    0 -0.44732921951E+01  0.22597033806E+02 -0.39589809575E+03  0.39656769724E+03  0.00000000000E+00 0.  1.
         14    1    6    6    0    0  0.61624527842E+02  0.45543912616E+02 -0.31340447655E+03  0.32263632208E+03  0.00000000000E+00 0. -1.
         -5    1    3    3    0  503  0.24203570306E+02 -0.53318107127E+02 -0.99977450965E+02  0.11595781157E+03  0.47000000000E+01 0.  1.
         13    1    4    4    0    0 -0.12185836545E+03 -0.26532164997E+02 -0.23611306491E+03  0.26702583476E+03  0.00000000000E+00 0. -1.
        -14    1    4    4    0    0 -0.12304007563E+02  0.14424562131E+01 -0.14917908094E+03  0.14969257654E+03  0.00000000000E+00 0.  1.
<mgrwt>
<rscale>  2 0.22017902E+03</rscale>
<asrwt>0</asrwt>
<pdfrwt beam="1">  1       21 0.60304039E-02 0.22034708E+03</pdfrwt>
<pdfrwt beam="2">  1       21 0.19882628E+00 0.22034708E+03</pdfrwt>
<totfact> 0.26193224E+04</totfact>
</mgrwt>
</event>
<event>
12    1  0.1074575E-001  0.1827332E+03  0.7546771E-02  0.1167988E+00
         21   -1    0    0  501  502  0.00000000000E+00  0.00000000000E+00  0.79579202845E+03  0.79579202845E+03  0.00000000000E+00 0. -1.
         21   -1    0    0  502  503 -0.00000000000E+00 -0.00000000000E+00 -0.92345538792E+02  0.92345538792E+02  0.00000000000E+00 0. -1.
         -6    2    1    2    0  503 -0.29016755341E+02  0.21544507226E+02  0.20321864747E+02  0.18385972075E+03  0.17912364681E+03 0.  0.
        -24    2    3    3    0    0  0.35934156506E+02  0.45100902521E+02  0.48345644913E+02  0.10915398493E+03  0.79069185100E+02 0.  0.
          6    2    1    2  501    0  0.29016755341E+02 -0.21544507226E+02  0.68312462491E+03  0.70427784650E+03  0.16745714084E+03 0.  0.
         24    2    5    5    0    0 -0.22197883955E+02 -0.52159674845E+02  0.54764286689E+03  0.55616429370E+03  0.78693291908E+02 0.  0.
          5    1    5    5  501    0  0.51214639296E+02  0.30615167619E+02  0.13548175802E+03  0.14811355280E+03  0.47000000000E+01 0. -1.
        -13    1    6    6    0    0 -0.18123619023E+02 -0.12058151152E+02  0.30601796967E+02  0.37554421222E+02  0.00000000000E+00 0.  1.
         14    1    6    6    0    0 -0.40742649320E+01 -0.40101523694E+02  0.51704106993E+03  0.51860987247E+03  0.00000000000E+00 0. -1.
         -5    1    3    3    0  503 -0.64950911848E+02 -0.23556395295E+02 -0.28023780166E+02  0.74705735817E+02  0.47000000000E+01 0.  1.
         11    1    4    4    0    0  0.58594983185E+01  0.40824009924E+02 -0.10826673849E+02  0.42639774547E+02  0.00000000000E+00 0. -1.
        -12    1    4    4    0    0  0.30074658188E+02  0.42768925972E+01  0.59172318762E+02  0.66514210384E+02  0.00000000000E+00 0.  1.
<mgrwt>
<rscale>  2 0.17980860E+03</rscale>
<asrwt>0</asrwt>
<pdfrwt beam="1">  1       21 0.12242954E+00 0.18273319E+03</pdfrwt>
<pdfrwt beam="2">  1       21 0.14207006E-01 0.18273319E+03</pdfrwt>
<totfact> 0.21889217E+04</totfact>
</mgrwt>
</event>
<event>
12    1  0.1074575E-001  0.2485083E+03  0.7546771E-02  0.1114598E+00
         21   -1    0    0  501  502  0.00000000000E+00  0.00000000000E+00  0.49502110518E+02  0.49502110518E+02  0.00000000000E+00 0. -1.
         21   -1    0    0  502  503 -0.00000000000E+00 -0.00000000000E+00 -0.12562954590E+04  0.12562954590E+04  0.00000000000E+00 0.  1.
         -6    2    1    2    0  503 -0.28125169583E+02 -0.17571158210E+03 -0.68759021605E+03  0.73112015704E+03  0.17346698120E+03 0.  0.
        -24    2    3    3    0    0 -0.36483435493E+02 -0.85013259765E+02 -0.19926324607E+03  0.23434921798E+03  0.81580753432E+02 0.  0.
          6    2    1    2  501    0  0.28125169583E+02  0.17571158210E+03 -0.51920313247E+03  0.57467741252E+03  0.17034274404E+03 0.  0.
         24    2    5    5    0    0  0.22149526317E+01  0.18525857009E+03 -0.50288567010E+03  0.54226084422E+03  0.82626764309E+02 0.  0.
          5    1    5    5  501    0  0.25910216952E+02 -0.95469879829E+01 -0.16317462371E+02  0.32416568298E+02  0.47000000000E+01 0. -1.
        -11    1    6    6    0    0 -0.33582877770E+02  0.13862083577E+03 -0.38396929260E+03  0.40960464285E+03  0.00000000000E+00 0.  1.
         12    1    6    6    0    0  0.35797830402E+02  0.46637734320E+02 -0.11891637750E+03  0.13265620137E+03  0.00000000000E+00 0. -1.
         -5    1    3    3    0  503  0.83582659100E+01 -0.90698322338E+02 -0.48832696998E+03  0.49677093906E+03  0.47000000000E+01 0.  1.
         11    1    4    4    0    0 -0.22691295261E+02 -0.93650692285E+02 -0.19502654018E+03  0.21753321222E+03  0.00000000000E+00 0. -1.
        -12    1    4    4    0    0 -0.13792140232E+02  0.86374325196E+01 -0.42367058924E+01  0.16816005754E+02  0.00000000000E+00 0.  1.
<mgrwt>
<rscale>  2 0.24796386E+03</rscale>
<asrwt>0</asrwt>
<pdfrwt beam="1">  1       21 0.76157090E-02 0.24850831E+03</pdfrwt>
<pdfrwt beam="2">  1       21 0.19327623E+00 0.24850831E+03</pdfrwt>
<totfact> 0.18676876E+04</totfact>
</mgrwt>
</event>
<event>
12    1  0.1074575E-001  0.2084417E+03  0.7546771E-02  0.1142875E+00
         21   -1    0    0  503  502  0.00000000000E+00  0.00000000000E+00  0.39482152733E+02  0.39482152733E+02  0.00000000000E+00 0. -1.
         21   -1    0    0  501  503 -0.00000000000E+00 -0.00000000000E+00 -0.11020204376E+04  0.11020204376E+04  0.00000000000E+00 0. -1.
          6    2    1    2  501    0 -0.40007674864E+02  0.10895996132E+03 -0.56334389644E+03  0.60066986390E+03  0.17313304860E+03 0.  0.
         24    2    3    3    0    0  0.23949172635E+02  0.63771101803E+02 -0.45458997107E+03  0.46657281825E+03  0.79986477875E+02 0.  0.
         -6    2    1    2    0  502  0.40007674864E+02 -0.10895996132E+03 -0.49919438838E+03  0.54083272639E+03  0.17271975373E+03 0.  0.
        -24    2    5    5    0    0  0.56862375340E+02 -0.90801837099E+01 -0.32232399082E+03  0.33695708185E+03  0.79570977674E+02 0.  0.
          5    1    3    3  501    0 -0.63956847500E+02  0.45188859512E+02 -0.10875392538E+03  0.13409704564E+03  0.47000000000E+01 0. -1.
        -11    1    4    4    0    0  0.15571085519E+02 -0.13368775441E+02 -0.41952432123E+02  0.46703205694E+02  0.00000000000E+00 0.  1.
         12    1    4    4    0    0  0.83780871161E+01  0.77139877244E+02 -0.41263753894E+03  0.41986961256E+03  0.00000000000E+00 0. -1.
         -5    1    5    5    0  502 -0.16854700476E+02 -0.99879777605E+02 -0.17687039756E+03  0.20387564454E+03  0.47000000000E+01 0.  1.
         13    1    6    6    0    0  0.56199046786E+02 -0.13031278399E+02 -0.10671193919E+03  0.12130781113E+03  0.00000000000E+00 0. -1.
        -14    1    6    6    0    0  0.66332855378E+00  0.39510946890E+01 -0.21561205163E+03  0.21564927072E+03  0.00000000000E+00 0.  1.
<mgrwt>
<rscale>  2 0.20835585E+03</rscale>
<asrwt>0</asrwt>
<pdfrwt beam="1">  1       21 0.60741777E-02 0.20844169E+03</pdfrwt>
<pdfrwt beam="2">  1       21 0.16954160E+00 0.20844169E+03</pdfrwt>
<totfact> 0.41103887E+04</totfact>
</mgrwt>
</event>
<event>
12    1  0.1074575E-001  0.1802654E+03  0.7546771E-02  0.1167618E+00
         21   -1    0    0  503  502  0.00000000000E+00  0.00000000000E+00  0.13476639576E+04  0.13476639576E+04  0.00000000000E+00 0. -1.
         21   -1    0    0  501  503 -0.00000000000E+00 -0.00000000000E+00 -0.24761190536E+02  0.24761190536E+02  0.00000000000E+00 0. -1.
          6    2    1    2  501    0 -0.50277787458E+02  0.12494212094E+02  0.54756000404E+03  0.57646991545E+03  0.17266048808E+03 0.  0.
         24    2    3    3    0    0 -0.13012752113E+02  0.62333502950E+02  0.21733358052E+03  0.24039816930E+03  0.80638683463E+02 0.  0.
         -6    2    1    2    0  502  0.50277787458E+02 -0.12494212094E+02  0.77534276302E+03  0.79595523269E+03  0.17234956055E+03 0.  0.
        -24    2    5    5    0    0  0.47954140378E+02 -0.18296521184E+02  0.21575997745E+03  0.23631780539E+03  0.81604993761E+02 0.  0.
          5    1    3    3  501    0 -0.37265035345E+02 -0.49839290856E+02  0.33022642352E+03  0.33607174615E+03  0.47000000000E+01 0. -1.
        -13    1    4    4    0    0  0.16329295908E+02 -0.10905262268E+02  0.76399910256E+02  0.78882931849E+02  0.00000000000E+00 0.  1.
         14    1    4    4    0    0 -0.29342048021E+02  0.73238765218E+02  0.14093367027E+03  0.16151523745E+03  0.00000000000E+00 0. -1.
         -5    1    5    5    0  502  0.23236470800E+01  0.58023090903E+01  0.55958278557E+03  0.55963742730E+03  0.47000000000E+01 0.  1.
         11    1    6    6    0    0  0.58967685445E+02 -0.28698847476E+02  0.21017951429E+03  0.22017320455E+03  0.00000000000E+00 0. -1.
        -12    1    6    6    0    0 -0.11013545067E+02  0.10402326291E+02  0.55804631611E+01  0.16144600841E+02  0.00000000000E+00 0.  1.
<mgrwt>
<rscale>  2 0.18019088E+03</rscale>
<asrwt>0</asrwt>
<pdfrwt beam="1">  1       21 0.20733286E+00 0.18026537E+03</pdfrwt>
<pdfrwt beam="2">  1       21 0.38094150E-02 0.18026537E+03</pdfrwt>
<totfact> 0.51713010E+04</totfact>
</mgrwt>
</event>
<event>
12    1  0.1074575E-001  0.2093126E+03  0.7546771E-02  0.1142161E+00
         21   -1    0    0  501  502  0.00000000000E+00  0.00000000000E+00  0.11784826484E+03  0.11784826484E+03  0.00000000000E+00 0. -1.
         21   -1    0    0  502  503 -0.00000000000E+00 -0.00000000000E+00 -0.68707745349E+03  0.68707745349E+03  0.00000000000E+00 0.  1.
         -6    2    1    2    0  503 -0.96595525718E+02  0.67666096776E+02 -0.55754249574E+03  0.59553789902E+03  0.17292298395E+03 0.  0.
        -24    2    3    3    0    0 -0.99516024632E+01  0.74813772370E+02 -0.16293188403E+03  0.19143657067E+03  0.66370376135E+02 0.  0.
          6    2    1    2  501    0  0.96595525718E+02 -0.67666096776E+02 -0.11686692911E+02  0.20938781930E+03  0.17261889769E+03 0.  0.
         24    2    5    5    0    0 -0.79224068880E+01 -0.52341727781E+02  0.29598622140E+02  0.95873935744E+02  0.74251680953E+02 0.  0.
          5    1    5    5  501    0  0.10451793261E+03 -0.15324368994E+02 -0.41285315050E+02  0.11351388356E+03  0.47000000000E+01 0. -1.
        -13    1    6    6    0    0 -0.77557533805E+01  0.18633086623E+02  0.54902622747E+01  0.20916180518E+02  0.00000000000E+00 0.  1.
         14    1    6    6    0    0 -0.16665350757E+00 -0.70974814405E+02  0.24108359865E+02  0.74957755226E+02  0.00000000000E+00 0. -1.
         -5    1    3    3    0  503 -0.86643923255E+02 -0.71476755949E+01 -0.39461061171E+03  0.40410132836E+03  0.47000000000E+01 0.  1.
         11    1    4    4    0    0 -0.29734066310E+02  0.60100162769E+02 -0.77318551413E+02  0.10234404065E+03  0.00000000000E+00 0. -1.
        -12    1    4    4    0    0  0.19782463847E+02  0.14713609601E+02 -0.85613332613E+02  0.89092530015E+02  0.00000000000E+00 0.  1.
<mgrwt>
<rscale>  2 0.20924976E+03</rscale>
<asrwt>0</asrwt>
<pdfrwt beam="1">  1       21 0.18130502E-01 0.20931258E+03</pdfrwt>
<pdfrwt beam="2">  1       21 0.10570422E+00 0.20931258E+03</pdfrwt>
<totfact> 0.19712642E+04</totfact>
</mgrwt>
</event>
<event>
12    1  0.1074575E-001  0.2006583E+03  0.7546771E-02  0.1149255E+00
         21   -1    0    0  503  502  0.00000000000E+00  0.00000000000E+00  0.13053413352E+03  0.13053413352E+03  0.00000000000E+00 0.  1.
         21   -1    0    0  501  503 -0.00000000000E+00 -0.00000000000E+00 -0.39858072949E+03  0.39858072949E+03  0.00000000000E+00 0. -1.
          6    2    1    2  501    0 -0.57295778496E+02  0.83779019211E+02 -0.79511656471E+01  0.20081577410E+03  0.17309541819E+03 0.  0.
         24    2    3    3    0    0 -0.67946025883E+02  0.25811163743E+02 -0.59343608258E+02  0.12247693830E+03  0.78715042829E+02 0.  0.
         -6    2    1    2    0  502  0.57295778496E+02 -0.83779019211E+02 -0.26009543032E+03  0.32829908891E+03  0.17271053417E+03 0.  0.
        -24    2    5    5    0    0  0.66694014781E+02  0.11681301563E+02 -0.16629977113E+03  0.19405783084E+03  0.73608990046E+02 0.  0.
          5    1    3    3  501    0  0.10650247386E+02  0.57967855467E+02  0.51392442611E+02  0.78338835799E+02  0.47000000000E+01 0. -1.
        -13    1    4    4    0    0 -0.17514250930E+02 -0.14415926317E+02  0.12516832372E+02  0.25908280720E+02  0.00000000000E+00 0.  1.
         14    1    4    4    0    0 -0.50431774953E+02  0.40227090061E+02 -0.71860440630E+02  0.96568657582E+02  0.00000000000E+00 0. -1.
         -5    1    5    5    0  502 -0.93982362845E+01 -0.95460320774E+02 -0.93795659186E+02  0.13424125808E+03  0.47000000000E+01 0.  1.
         13    1    6    6    0    0  0.24021916682E+02  0.27788017215E+02 -0.13192803346E+03  0.13694609302E+03  0.00000000000E+00 0. -1.
        -14    1    6    6    0    0  0.42672098099E+02 -0.16106715652E+02 -0.34371737677E+02  0.57111737814E+02  0.00000000000E+00 0.  1.
<mgrwt>
<rscale>  2 0.20057527E+03</rscale>
<asrwt>0</asrwt>
<pdfrwt beam="1">  1       21 0.20082174E-01 0.20065830E+03</pdfrwt>
<pdfrwt beam="2">  1       21 0.61320112E-01 0.20065830E+03</pdfrwt>
<totfact> 0.56425508E+04</totfact>
</mgrwt>
</event>
<event>
12    1  0.1074575E-001  0.1776510E+03  0.7546771E-02  0.1171290E+00
         21   -1    0    0  503  502  0.00000000000E+00  0.00000000000E+00  0.82234057237E+02  0.82234057237E+02  0.00000000000E+00 0.  1.
         21   -1    0    0  501  503 -0.00000000000E+00 -0.00000000000E+00 -0.52357742027E+03  0.52357742027E+03  0.00000000000E+00 0.  1.
          6    2    1    2  501    0 -0.25492596189E+02 -0.22362767903E+02 -0.38496742463E+03  0.42398090250E+03  0.17438440816E+03 0.  0.
         24    2    3    3    0    0 -0.62548315604E+02 -0.12840984017E+02 -0.36627968266E+03  0.38114269047E+03  0.83855601581E+02 0.  0.
         -6    2    1    2    0  502  0.25492596189E+02  0.22362767903E+02 -0.56375938406E+02  0.18183057501E+03  0.16951149143E+03 0.  0.
        -24    2    5    5    0    0 -0.18799345196E+02 -0.37512934768E+01 -0.88469753143E+02  0.12103729234E+03  0.80347005748E+02 0.  0.
          5    1    3    3  501    0  0.37055719415E+02 -0.95217838856E+01 -0.18687741969E+02  0.42838212026E+02  0.47000000000E+01 0. -1.
        -11    1    4    4    0    0  0.10819163610E+02 -0.10402670792E+01 -0.18368138462E+03  0.18400268344E+03  0.00000000000E+00 0.  1.
         12    1    4    4    0    0 -0.73367479213E+02 -0.11800716938E+02 -0.18259829804E+03  0.19714000703E+03  0.00000000000E+00 0. -1.
         -5    1    5    5    0  502  0.44291941385E+02  0.26114061379E+02  0.32093814738E+02  0.60793282670E+02  0.47000000000E+01 0.  1.
         11    1    6    6    0    0  0.42435696481E+01 -0.34504335946E+02 -0.14472009277E+02  0.37656289447E+02  0.00000000000E+00 0. -1.
        -12    1    6    6    0    0 -0.23042914844E+02  0.30753042470E+02 -0.73997743867E+02  0.83381002891E+02  0.00000000000E+00 0.  1.
<mgrwt>
<rscale>  2 0.17644357E+03</rscale>
<asrwt>0</asrwt>
<pdfrwt beam="1">  1       21 0.12651393E-01 0.17765103E+03</pdfrwt>
<pdfrwt beam="2">  1       21 0.80550373E-01 0.17765103E+03</pdfrwt>
<totfact> 0.72758685E+04</totfact>
</mgrwt>
</event>
<event>
11    1  0.1074575E-001  0.2903196E+03  0.7546771E-02  0.1090620E+00
         21   -1    0    0  503  502  0.00000000000E+00  0.00000000000E+00  0.51408764506E+03  0.51408764506E+03  0.00000000000E+00 0. -1.
         21   -1    0    0  501  503 -0.00000000000E+00 -0.00000000000E+00 -0.16220113445E+03  0.16220113445E+03  0.00000000000E+00 0. -1.
          6    2    1    2  501    0 -0.21236912622E+03 -0.94832180335E+02  0.18651991533E+03  0.34507265082E+03  0.17375749575E+03 0.  0.
         24    2    3    3    0    0 -0.15684322044E+03 -0.12055750210E+03  0.18610738926E+03  0.28369530507E+03  0.81933867704E+02 0.  0.
         -6    2    1    2    0  502  0.21236912622E+03  0.94832180335E+02  0.16536659528E+03  0.33121612868E+03  0.16811967424E+03 0.  0.
          5    1    3    3  501    0 -0.55525905788E+02  0.25725321761E+02  0.41252607559E+00  0.61377345748E+02  0.47000000000E+01 0. -1.
        -11    1    4    4    0    0 -0.65024750377E+02 -0.52822738424E+02  0.13452386057E+03  0.15847753443E+03  0.00000000000E+00 0.  1.
         12    1    4    4    0    0 -0.91818470059E+02 -0.67734763672E+02  0.51583528689E+02  0.12521777065E+03  0.00000000000E+00 0. -1.
         -5    1    5    5    0  502  0.74327239191E+02 -0.87246154292E+01  0.54193860842E+02  0.92518765411E+02  0.47000000000E+01 0.  1.
         13    1    5    5    0    0  0.13738724563E+03  0.35173335644E+02  0.63818765275E+02  0.15551608793E+03  0.00000000000E+00 0. -1.
        -14    1    5    5    0    0  0.65464140217E+00  0.68383460120E+02  0.47353969160E+02  0.83181275348E+02  0.00000000000E+00 0.  1.
<mgrwt>
<rscale>  2 0.28948127E+03</rscale>
<asrwt>0</asrwt>
<pdfrwt beam="1">  1       21 0.79090406E-01 0.29031957E+03</pdfrwt>
<pdfrwt beam="2">  1       21 0.24954021E-01 0.29031957E+03</pdfrwt>
<totfact> 0.20416249E+04</totfact>
</mgrwt>
</event>
<event>
12    1  0.1074575E-001  0.1834983E+03  0.7546771E-02  0.1166000E+00
         21   -1    0    0  503  502  0.00000000000E+00  0.00000000000E+00  0.39990994234E+03  0.39990994234E+03  0.00000000000E+00 0.  1.
         21   -1    0    0  501  503 -0.00000000000E+00 -0.00000000000E+00 -0.88721065476E+02  0.88721065476E+02  0.00000000000E+00 0.  1.
          6    2    1    2  501    0 -0.76902854599E+01  0.12456596613E+02  0.82336485148E+02  0.19529664916E+03  0.17648562859E+03 0.  0.
         24    2    3    3    0    0 -0.37093092302E+02  0.66923768283E+02  0.28957576756E+02  0.11342726721E+03  0.78565357746E+02 0.  0.
         -6    2    1    2    0  502  0.76902854599E+01 -0.12456596613E+02  0.22885239172E+03  0.29333435865E+03  0.18291342619E+03 0.  0.
        -24    2    5    5    0    0  0.49071597249E+02  0.50600026997E+02  0.14450909638E+03  0.18008934899E+03  0.81122809938E+02 0.  0.
          5    1    3    3  501    0  0.29402806842E+02 -0.54467171670E+02  0.53378908392E+02  0.81869381951E+02  0.47000000000E+01 0. -1.
        -13    1    4    4    0    0 -0.53990201299E+02  0.18201933859E+02  0.23274557412E+02  0.61546382958E+02  0.00000000000E+00 0.  1.
         14    1    4    4    0    0  0.16897108997E+02  0.48721834424E+02  0.56830193441E+01  0.51880884254E+02  0.00000000000E+00 0. -1.
         -5    1    5    5    0  502 -0.41381311789E+02 -0.63056623611E+02  0.84343295332E+02  0.11324500967E+03  0.47000000000E+01 0.  1.
         13    1    6    6    0    0  0.16206262910E+02  0.66405416905E+02  0.74205032197E+02  0.10088958893E+03  0.00000000000E+00 0. -1.
        -14    1    6    6    0    0  0.32865334339E+02 -0.15805389907E+02  0.70304064187E+02  0.79199760054E+02  0.00000000000E+00 0.  1.
<mgrwt>
<rscale>  2 0.18187526E+03</rscale>
<asrwt>0</asrwt>
<pdfrwt beam="1">  1       21 0.61524605E-01 0.18349831E+03</pdfrwt>
<pdfrwt beam="2">  1       21 0.13649395E-01 0.18349831E+03</pdfrwt>
<totfact> 0.11466677E+05</totfact>
</mgrwt>
</event>
<event>
12    1  0.1074575E-001  0.1968589E+03  0.7546771E-02  0.1152572E+00
         21   -1    0    0  503  502  0.00000000000E+00  0.00000000000E+00  0.33968292424E+03  0.33968292424E+03  0.00000000000E+00 0.  1.
         21   -1    0    0  501  503 -0.00000000000E+00 -0.00000000000E+00 -0.37977307951E+03  0.37977307951E+03  0.00000000000E+00 0.  1.
          6    2    1    2  501    0 -0.36987854546E+02  0.85026672004E+02 -0.32115300373E+03  0.37630916359E+03  0.17283430925E+03 0.  0.
         24    2    3    3    0    0 -0.43943206955E+02  0.11701587308E+03 -0.30530916224E+03  0.33963760477E+03  0.80723590327E+02 0.  0.
         -6    2    1    2    0  502  0.36987854546E+02 -0.85026672004E+02  0.28106284846E+03  0.34314684017E+03  0.17365423346E+03 0.  0.
        -24    2    5    5    0    0  0.74909697780E+02 -0.71351023911E+02  0.27172695727E+03  0.30150145136E+03  0.79781917935E+02 0.  0.
          5    1    3    3  501    0  0.69553524093E+01 -0.31989201077E+02 -0.15843841492E+02  0.36671558815E+02  0.47000000000E+01 0. -1.
        -11    1    4    4    0    0 -0.31890587698E+02  0.47972232522E+02 -0.22853390682E+03  0.23568218270E+03  0.00000000000E+00 0.  1.
         12    1    4    4    0    0 -0.12052619257E+02  0.69043640559E+02 -0.76775255426E+02  0.10395542207E+03  0.00000000000E+00 0. -1.
         -5    1    5    5    0  502 -0.37921843234E+02 -0.13675648093E+02  0.93358911943E+01  0.41645388813E+02  0.47000000000E+01 0.  1.
         13    1    6    6    0    0 -0.99772215034E+01  0.45237239688E+01  0.61843920075E+01  0.12579973449E+02  0.00000000000E+00 0. -1.
        -14    1    6    6    0    0  0.84886919283E+02 -0.75874747880E+02  0.26554256526E+03  0.28892147791E+03  0.00000000000E+00 0.  1.
<mgrwt>
<rscale>  2 0.19667793E+03</rscale>
<asrwt>0</asrwt>
<pdfrwt beam="1">  1       21 0.52258911E-01 0.19685891E+03</pdfrwt>
<pdfrwt beam="2">  1       21 0.58426628E-01 0.19685891E+03</pdfrwt>
<totfact> 0.95013739E+03</totfact>
</mgrwt>
</event>
<event>
12    1  0.1074575E-001  0.1962486E+03  0.7546771E-02  0.1153922E+00
         21   -1    0    0  503  502  0.00000000000E+00  0.00000000000E+00  0.67553526308E+02  0.67553526308E+02  0.00000000000E+00 0.  1.
         21   -1    0    0  501  503 -0.00000000000E+00 -0.00000000000E+00 -0.70308116861E+03  0.70308116861E+03  0.00000000000E+00 0.  1.
          6    2    1    2  501    0  0.50709799010E+02 -0.65116082205E+02 -0.49617610180E+03  0.53357684173E+03  0.17805036973E+03 0.  0.
         24    2    3    3    0    0 -0.27589182306E+02 -0.47264820831E+02 -0.37713267183E+03  0.38990072602E+03  0.82452396695E+02 0.  0.
         -6    2    1    2    0  502 -0.50709799010E+02  0.65116082205E+02 -0.13935154050E+03  0.23705785318E+03  0.17310686306E+03 0.  0.
        -24    2    5    5    0    0 -0.90555142437E+02  0.76799528453E+02 -0.13099488102E+03  0.19444238572E+03  0.80930718029E+02 0.  0.
          5    1    3    3  501    0  0.78298981316E+02 -0.17851261373E+02 -0.11904342996E+03  0.14367611571E+03  0.47000000000E+01 0. -1.
        -11    1    4    4    0    0  0.42293361470E+01  0.19605993338E+02 -0.40200166057E+02  0.44925890197E+02  0.00000000000E+00 0.  1.
         12    1    4    4    0    0 -0.31818518452E+02 -0.66870814170E+02 -0.33693250578E+03  0.34497483583E+03  0.00000000000E+00 0. -1.
         -5    1    5    5    0  502  0.39845343427E+02 -0.11683446248E+02 -0.83566594838E+01  0.42615467459E+02  0.47000000000E+01 0.  1.
         13    1    6    6    0    0 -0.44272524271E+02  0.65925378074E+02 -0.33924276420E+02  0.86354319001E+02  0.00000000000E+00 0. -1.
        -14    1    6    6    0    0 -0.46282618166E+02  0.10874150378E+02 -0.97070604599E+02  0.10808806672E+03  0.00000000000E+00 0.  1.
<mgrwt>
<rscale>  2 0.19512048E+03</rscale>
<asrwt>0</asrwt>
<pdfrwt beam="1">  1       21 0.10392850E-01 0.19624862E+03</pdfrwt>
<pdfrwt beam="2">  1       21 0.10816634E+00 0.19624862E+03</pdfrwt>
<totfact> 0.51462104E+04</totfact>
</mgrwt>
</event>
<event>
12    1  0.1074575E-001  0.1906980E+03  0.7546771E-02  0.1157868E+00
         21   -1    0    0  501  502  0.00000000000E+00  0.00000000000E+00  0.14465763618E+03  0.14465763618E+03  0.00000000000E+00 0.  1.
         21   -1    0    0  502  503 -0.00000000000E+00 -0.00000000000E+00 -0.26594704583E+03  0.26594704583E+03  0.00000000000E+00 0.  1.
         -6    2    1    2    0  503 -0.54589597941E+02  0.58093698226E+02 -0.12258338467E+02  0.19093791676E+03  0.17306680565E+03 0.  0.
        -24    2    3    3    0    0 -0.72187901443E+02  0.88563255893E+02  0.21511484653E+02  0.14194214976E+03  0.81426571204E+02 0.  0.
          6    2    1    2  501    0  0.54589597941E+02 -0.58093698226E+02 -0.10903107118E+03  0.21966676524E+03  0.17323628746E+03 0.  0.
         24    2    5    5    0    0  0.12250011205E+02 -0.88311738251E+02 -0.11740241806E+03  0.16677120781E+03  0.77976163658E+02 0.  0.
          5    1    5    5  501    0  0.42339586735E+02  0.30218040025E+02  0.83713468804E+01  0.52895557436E+02  0.47000000000E+01 0. -1.
        -13    1    6    6    0    0  0.18171762496E+02 -0.36705907245E+02 -0.10593344047E+03  0.11357565932E+03  0.00000000000E+00 0.  1.
         14    1    6    6    0    0 -0.59217512907E+01 -0.51605831006E+02 -0.11468977589E+02  0.53195548490E+02  0.00000000000E+00 0. -1.
         -5    1    3    3    0  503  0.17598303502E+02 -0.30469557667E+02 -0.33769823120E+02  0.48995767002E+02  0.47000000000E+01 0.  1.
         11    1    4    4    0    0 -0.47969248673E+02  0.26089549056E+02 -0.25324594777E+02  0.60191764294E+02  0.00000000000E+00 0. -1.
        -12    1    4    4    0    0 -0.24218652770E+02  0.62473706837E+02  0.46836079429E+02  0.81750385469E+02  0.00000000000E+00 0.  1.
<mgrwt>
<rscale>  2 0.19065946E+03</rscale>
<asrwt>0</asrwt>
<pdfrwt beam="1">  1       21 0.22255021E-01 0.19069796E+03</pdfrwt>
<pdfrwt beam="2">  1       21 0.40914930E-01 0.19069796E+03</pdfrwt>
<totfact> 0.10876436E+05</totfact>
</mgrwt>
</event>
<event>
12    1  0.1074575E-001  0.2036250E+03  0.7546771E-02  0.1146772E+00
         21   -1    0    0  503  502  0.00000000000E+00  0.00000000000E+00  0.10999124565E+04  0.10999124565E+04  0.00000000000E+00 0. -1.
         21   -1    0    0  501  503 -0.00000000000E+00 -0.00000000000E+00 -0.38796013297E+02  0.38796013297E+02  0.00000000000E+00 0. -1.
          6    2    1    2  501    0 -0.73494415884E+02  0.79507707424E+02  0.62888809166E+03  0.66103203569E+03  0.17245351742E+03 0.  0.
         24    2    3    3    0    0  0.10529015931E+02  0.48885605332E+02  0.18739236813E+03  0.21054539424E+03  0.81931683842E+02 0.  0.
         -6    2    1    2    0  502  0.73494415884E+02 -0.79507707424E+02  0.43222835155E+03  0.47767643412E+03  0.17213518850E+03 0.  0.
        -24    2    5    5    0    0 -0.63152215876E+01  0.73191770464E+01  0.23211445300E+03  0.24534875928E+03  0.78901470289E+02 0.  0.
          5    1    3    3  501    0 -0.84023431814E+02  0.30622102092E+02  0.44149572353E+03  0.45048664145E+03  0.47000000000E+01 0. -1.
        -11    1    4    4    0    0 -0.32521030115E+02  0.36797971323E+02  0.75690801387E+02  0.90226412473E+02  0.00000000000E+00 0.  1.
         12    1    4    4    0    0  0.43050046046E+02  0.12087634009E+02  0.11170156675E+03  0.12031898177E+03  0.00000000000E+00 0. -1.
         -5    1    5    5    0  502  0.79809637471E+02 -0.86826884471E+02  0.20011389856E+03  0.23232767484E+03  0.47000000000E+01 0.  1.
         11    1    6    6    0    0  0.13339268465E+01 -0.28990138773E+02  0.38510752142E+02  0.48221214600E+02  0.00000000000E+00 0. -1.
        -12    1    6    6    0    0 -0.76491484341E+01  0.36309315819E+02  0.19360370085E+03  0.19712754468E+03  0.00000000000E+00 0.  1.
<mgrwt>
<rscale>  2 0.20355753E+03</rscale>
<asrwt>0</asrwt>
<pdfrwt beam="1">  1       21 0.16921728E+00 0.20362495E+03</pdfrwt>
<pdfrwt beam="2">  1       21 0.59686183E-02 0.20362495E+03</pdfrwt>
<totfact> 0.42706076E+04</totfact>
</mgrwt>
</event>
<event>
12    1  0.1074575E-001  0.2316895E+03  0.7546771E-02  0.1125864E+00
         21   -1    0    0  501  502  0.00000000000E+00  0.00000000000E+00  0.84067318322E+02  0.84067318322E+02  0.00000000000E+00 0.  1.
         21   -1    0    0  502  503 -0.00000000000E+00 -0.00000000000E+00 -0.10492630418E+04  0.10492630418E+04  0.00000000000E+00 0.  1.
         -6    2    1    2    0  503 -0.15316179379E+03  0.10076378005E+02 -0.83841390702E+03  0.86922122441E+03  0.17043353248E+03 0.  0.
        -24    2    3    3    0    0 -0.15643751984E+02 -0.24460118848E+02 -0.36548540193E+03  0.37547286504E+03  0.80976965698E+02 0.  0.
          6    2    1    2  501    0  0.15316179379E+03 -0.10076378005E+02 -0.12678181642E+03  0.26410913568E+03  0.17355096688E+03 0.  0.
         24    2    5    5    0    0  0.12416289254E+03 -0.66092017145E+02 -0.11780715343E+03  0.20022390517E+03  0.80165504966E+02 0.  0.
          5    1    5    5  501    0  0.28998901246E+02  0.56015639140E+02 -0.89746629864E+01  0.63885230511E+02  0.47000000000E+01 0. -1.
        -13    1    6    6    0    0  0.65188983883E+02  0.64392713891E+01 -0.67523497047E+02  0.94077045496E+02  0.00000000000E+00 0.  1.
         14    1    6    6    0    0  0.58973908661E+02 -0.72531288534E+02 -0.50283656384E+02  0.10614685967E+03  0.00000000000E+00 0. -1.
         -5    1    3    3    0  503 -0.13751804181E+03  0.34536496853E+02 -0.47292850510E+03  0.49374835936E+03  0.47000000000E+01 0.  1.
         11    1    4    4    0    0 -0.34481489546E+02 -0.41249057972E+02 -0.16827918902E+03  0.17665883324E+03  0.00000000000E+00 0. -1.
        -12    1    4    4    0    0  0.18837737562E+02  0.16788939123E+02 -0.19720621290E+03  0.19881403180E+03  0.00000000000E+00 0.  1.
<mgrwt>
<rscale>  2 0.23110579E+03</rscale>
<asrwt>0</asrwt>
<pdfrwt beam="1">  1       21 0.12933434E-01 0.23168946E+03</pdfrwt>
<pdfrwt beam="2">  1       21 0.16142508E+00 0.23168946E+03</pdfrwt>
<totfact> 0.12263876E+04</totfact>
</mgrwt>
</event>
<event>
12    1  0.1074575E-001  0.1852066E+03  0.7546771E-02  0.1162887E+00
         21   -1    0    0  501  502  0.00000000000E+00  0.00000000000E+00  0.11185219776E+04  0.11185219776E+04  0.00000000000E+00 0. -1.
         21   -1    0    0  502  503 -0.00000000000E+00 -0.00000000000E+00 -0.11648845488E+03  0.11648845488E+03  0.00000000000E+00 0. -1.
         -6    2    1    2    0  503  0.61021741379E+02  0.24159571830E+02 -0.29029485226E+02  0.18746784412E+03  0.17318817435E+03 0.  0.
        -24    2    3    3    0    0  0.73514110333E+02  0.68885817676E+02  0.57882037405E+01  0.12923677153E+03  0.80740693076E+02 0.  0.
          6    2    1    2  501    0 -0.61021741379E+02 -0.24159571830E+02  0.10310630079E+04  0.10475425883E+04  0.17305262273E+03 0.  0.
         24    2    5    5    0    0 -0.77547118159E+02  0.12236286318E+02  0.95393445201E+03  0.96054459579E+03  0.80571083799E+02 0.  0.
          5    1    5    5  501    0  0.16525376780E+02 -0.36395858148E+02  0.77128555907E+02  0.86997992531E+02  0.47000000000E+01 0. -1.
        -13    1    6    6    0    0 -0.70031684993E+01 -0.23092808957E+02  0.95859929329E+02  0.98850636040E+02  0.00000000000E+00 0.  1.
         14    1    6    6    0    0 -0.70543949660E+02  0.35329095275E+02  0.85807452268E+03  0.86169395975E+03  0.00000000000E+00 0. -1.
         -5    1    3    3    0  503 -0.12492368954E+02 -0.44726245846E+02 -0.34817688967E+02  0.58231072586E+02  0.47000000000E+01 0.  1.
         11    1    4    4    0    0  0.16939540341E+02 -0.12336727170E+02  0.20322594235E+02  0.29191620384E+02  0.00000000000E+00 0. -1.
        -12    1    4    4    0    0  0.56574569993E+02  0.81222544846E+02 -0.14534390494E+02  0.10004515115E+03  0.00000000000E+00 0.  1.
<mgrwt>
<rscale>  2 0.18517490E+03</rscale>
<asrwt>0</asrwt>
<pdfrwt beam="1">  1       21 0.17208030E+00 0.18520659E+03</pdfrwt>
<pdfrwt beam="2">  1       21 0.17921301E-01 0.18520659E+03</pdfrwt>
<totfact> 0.58780967E+03</totfact>
</mgrwt>
</event>
<event>
12    1  0.1074575E-001  0.2740344E+03  0.7546771E-02  0.1099374E+00
         21   -1    0    0  501  502  0.00000000000E+00  0.00000000000E+00  0.19060830422E+03  0.19060830422E+03  0.00000000000E+00 0.  1.
         21   -1    0    0  502  503 -0.00000000000E+00 -0.00000000000E+00 -0.47426312169E+03  0.47426312169E+03  0.00000000000E+00 0. -1.
         -6    2    1    2    0  503  0.18674345668E+03 -0.93475456916E+02 -0.28245251291E+03  0.39354070386E+03  0.17743754926E+03 0.  0.
        -24    2    3    3    0    0  0.65154859682E+02 -0.89748134731E+02 -0.21277806104E+03  0.25327560095E+03  0.81081091212E+02 0.  0.
          6    2    1    2  501    0 -0.18674345668E+03  0.93475456916E+02 -0.12023045527E+01  0.27133072205E+03  0.17322856443E+03 0.  0.
         24    2    5    5    0    0 -0.62159033894E+02  0.33997667487E+02  0.56563993450E+02  0.12160456862E+03  0.81046893004E+02 0.  0.
          5    1    5    5  501    0 -0.12458442278E+03  0.59477789429E+02 -0.57766298003E+02  0.14972615343E+03  0.47000000000E+01 0. -1.
        -11    1    6    6    0    0 -0.75261703960E+02  0.37199565338E+02  0.64576225859E+02  0.10591610213E+03  0.00000000000E+00 0.  1.
         12    1    6    6    0    0  0.13102670066E+02 -0.32018978506E+01 -0.80122324089E+01  0.15688466492E+02  0.00000000000E+00 0. -1.
         -5    1    3    3    0  503  0.12158859699E+03 -0.37273221850E+01 -0.69674451876E+02  0.14026510291E+03  0.47000000000E+01 0.  1.
         13    1    4    4    0    0  0.11233893336E+01 -0.70055169006E+02 -0.11749624896E+03  0.13680042847E+03  0.00000000000E+00 0. -1.
        -14    1    4    4    0    0  0.64031470349E+02 -0.19692965725E+02 -0.95281812074E+02  0.11647517249E+03  0.00000000000E+00 0.  1.
<mgrwt>
<rscale>  2 0.27335531E+03</rscale>
<asrwt>0</asrwt>
<pdfrwt beam="1">  1       21 0.29324355E-01 0.27403442E+03</pdfrwt>
<pdfrwt beam="2">  1       21 0.72963556E-01 0.27403442E+03</pdfrwt>
<totfact> 0.18029799E+04</totfact>
</mgrwt>
</event>
<event>
12    1  0.1074575E-001  0.2812229E+03  0.7546771E-02  0.1095137E+00
         21   -1    0    0  501  502  0.00000000000E+00  0.00000000000E+00  0.64609221115E+03  0.64609221115E+03  0.00000000000E+00 0. -1.
         21   -1    0    0  502  503 -0.00000000000E+00 -0.00000000000E+00 -0.12626652917E+03  0.12626652917E+03  0.00000000000E+00 0.  1.
         -6    2    1    2    0  503  0.36698375810E+02 -0.21893360756E+03  0.18890944940E+03  0.33808709277E+03  0.17128165961E+03 0.  0.
        -24    2    3    3    0    0 -0.43109955491E+02 -0.10091791966E+03  0.11004451725E+03  0.17517963481E+03  0.80840669870E+02 0.  0.
          6    2    1    2  501    0 -0.36698375810E+02  0.21893360756E+03  0.33091623258E+03  0.43427164754E+03  0.17264882150E+03 0.  0.
         24    2    5    5    0    0 -0.83033480747E+02  0.96447625320E+02  0.20068954812E+03  0.24952631704E+03  0.76094578110E+02 0.  0.
          5    1    5    5  501    0  0.46335104937E+02  0.12248598224E+03  0.13022668446E+03  0.18474533050E+03  0.47000000000E+01 0. -1.
        -11    1    6    6    0    0 -0.34477883986E+02  0.74694796491E+02  0.68575480618E+02  0.10710104411E+03  0.00000000000E+00 0.  1.
         12    1    6    6    0    0 -0.48555596761E+02  0.21752828830E+02  0.13211406750E+03  0.14242527294E+03  0.00000000000E+00 0. -1.
         -5    1    3    3    0  503  0.79808331300E+02 -0.11801568791E+03  0.78864932148E+02  0.16290745796E+03  0.47000000000E+01 0.  1.
         13    1    4    4    0    0  0.65299685975E+01 -0.12982583333E+02  0.61396944704E+02  0.63093365569E+02  0.00000000000E+00 0. -1.
        -14    1    4    4    0    0 -0.49639924088E+02 -0.87935336323E+02  0.48647572551E+02  0.11208626924E+03  0.00000000000E+00 0.  1.
<mgrwt>
<rscale>  2 0.28101334E+03</rscale>
<asrwt>0</asrwt>
<pdfrwt beam="1">  1       21 0.99398800E-01 0.28122288E+03</pdfrwt>
<pdfrwt beam="2">  1       21 0.19425620E-01 0.28122288E+03</pdfrwt>
<totfact> 0.19362343E+04</totfact>
</mgrwt>
</event>
<event>
12    1  0.1074575E-001  0.1813956E+03  0.7546771E-02  0.1166838E+00
         21   -1    0    0  501  502  0.00000000000E+00  0.00000000000E+00  0.10251770064E+03  0.10251770064E+03  0.00000000000E+00 0.  1.
         21   -1    0    0  502  503 -0.00000000000E+00 -0.00000000000E+00 -0.32589706465E+03  0.32589706465E+03  0.00000000000E+00 0.  1.
         -6    2    1    2    0  503  0.24890740740E+02 -0.37874350295E+02 -0.14416402897E+03  0.23047680136E+03  0.17401802588E+03 0.  0.
        -24    2    3    3    0    0  0.66815105581E+02  0.17816650483E+02 -0.10874453414E+03  0.15214564186E+03  0.80877878703E+02 0.  0.
          6    2    1    2  501    0 -0.24890740740E+02  0.37874350295E+02 -0.79215335037E+02  0.19793796393E+03  0.17564268523E+03 0.  0.
         24    2    5    5    0    0 -0.56884807551E+02 -0.30930852345E+02 -0.27858125888E+02  0.10619141548E+03  0.79422557164E+02 0.  0.
          5    1    5    5  501    0  0.31994066811E+02  0.68805202639E+02 -0.51357209149E+02  0.91746548452E+02  0.47000000000E+01 0. -1.
        -13    1    6    6    0    0 -0.42476637700E+02 -0.19018756507E+01 -0.50977470034E+02  0.66382108525E+02  0.00000000000E+00 0.  1.
         14    1    6    6    0    0 -0.14408169851E+02 -0.29028976694E+02  0.23119344146E+02  0.39809306953E+02  0.00000000000E+00 0. -1.
         -5    1    3    3    0  503 -0.41924364841E+02 -0.55691000778E+02 -0.35419494830E+02  0.78331159502E+02  0.47000000000E+01 0.  1.
         13    1    4    4    0    0  0.28154570637E+02  0.41454078154E+02 -0.22943422437E+02  0.55113710421E+02  0.00000000000E+00 0. -1.
        -14    1    4    4    0    0  0.38660534944E+02 -0.23637427671E+02 -0.85801111707E+02  0.97031931441E+02  0.00000000000E+00 0.  1.
<mgrwt>
<rscale>  2 0.18100116E+03</rscale>
<asrwt>0</asrwt>
<pdfrwt beam="1">  1       21 0.15771954E-01 0.18139561E+03</pdfrwt>
<pdfrwt beam="2">  1       21 0.50138010E-01 0.18139561E+03</pdfrwt>
<totfact> 0.13613257E+05</totfact>
</mgrwt>
</event>
<event>
12    1  0.1074575E-001  0.1957805E+03  0.7546771E-02  0.1153890E+00
         21   -1    0    0  501  502  0.00000000000E+00  0.00000000000E+00  0.12333140823E+03  0.12333140823E+03  0.00000000000E+00 0. -1.
         21   -1    0    0  502  503 -0.00000000000E+00 -0.00000000000E+00 -0.74178252890E+03  0.74178252890E+03  0.00000000000E+00 0. -1.
         -6    2    1    2    0  503 -0.85300412567E+02 -0.18672489407E+02 -0.64125279689E+03  0.67047384081E+03  0.17522899144E+03 0.  0.
        -24    2    3    3    0    0  0.17198935693E+02 -0.20065448758E+02 -0.38878922994E+03  0.39795228319E+03  0.80687847629E+02 0.  0.
          6    2    1    2  501    0  0.85300412567E+02  0.18672489407E+02  0.22801676220E+02  0.19464009632E+03  0.17245297449E+03 0.  0.
         24    2    5    5    0    0 -0.39728620867E+01 -0.51253725206E+01 -0.32119113456E+02  0.87055529864E+02  0.80653423697E+02 0.  0.
          5    1    5    5  501    0  0.89273274654E+02  0.23797861928E+02  0.54920789676E+02  0.10758456645E+03  0.47000000000E+01 0. -1.
        -13    1    6    6    0    0  0.10018201493E+01  0.12759806817E+02 -0.55638918620E+02  0.57092079826E+02  0.00000000000E+00 0.  1.
         14    1    6    6    0    0 -0.49746822360E+01 -0.17885179338E+02  0.23519805163E+02  0.29963450039E+02  0.00000000000E+00 0. -1.
         -5    1    3    3    0  503 -0.10249934826E+03  0.13929593514E+01 -0.25246356695E+03  0.27252155762E+03  0.47000000000E+01 0.  1.
         13    1    4    4    0    0  0.51611516922E+01 -0.48184548402E+02 -0.30349123671E+03  0.30733584066E+03  0.00000000000E+00 0. -1.
        -14    1    4    4    0    0  0.12037784000E+02  0.28119099643E+02 -0.85297993227E+02  0.90616442531E+02  0.00000000000E+00 0.  1.
<mgrwt>
<rscale>  2 0.19515741E+03</rscale>
<asrwt>0</asrwt>
<pdfrwt beam="1">  1       21 0.18974063E-01 0.19578054E+03</pdfrwt>
<pdfrwt beam="2">  1       21 0.11412039E+00 0.19578054E+03</pdfrwt>
<totfact> 0.15178401E+04</totfact>
</mgrwt>
</event>
<event>
12    1  0.1074575E-001  0.1854273E+03  0.7546771E-02  0.1162749E+00
         21   -1    0    0  503  502  0.00000000000E+00  0.00000000000E+00  0.58794884493E+02  0.58794884493E+02  0.00000000000E+00 0.  1.
         21   -1    0    0  501  503 -0.00000000000E+00 -0.00000000000E+00 -0.64260695091E+03  0.64260695091E+03  0.00000000000E+00 0.  1.
          6    2    1    2  501    0  0.52559318458E+02 -0.39530994865E+02 -0.39798339055E+03  0.43888405681E+03  0.17292557549E+03 0.  0.
         24    2    3    3    0    0  0.58059306336E+02 -0.42408901247E+02 -0.11498358146E+03  0.15577716153E+03  0.76654432959E+02 0.  0.
         -6    2    1    2    0  502 -0.52559318458E+02  0.39530994865E+02 -0.18582867587E+03  0.26251777859E+03  0.17337273658E+03 0.  0.
        -24    2    5    5    0    0  0.79038601081E+01 -0.18449805513E+02 -0.11530369236E+03  0.15291197366E+03  0.98408657596E+02 0.  0.
          5    1    3    3  501    0 -0.54999878775E+01  0.28779063827E+01 -0.28299980908E+03  0.28310689528E+03  0.47000000000E+01 0. -1.
        -11    1    4    4    0    0  0.49085984872E+02  0.13813456906E+01 -0.94733228166E+02  0.10670392001E+03  0.00000000000E+00 0.  1.
         12    1    4    4    0    0  0.89733214641E+01 -0.43790246938E+02 -0.20250353297E+02  0.49073241524E+02  0.00000000000E+00 0. -1.
         -5    1    5    5    0  502 -0.60463178566E+02  0.57980800378E+02 -0.70524983506E+02  0.10960580492E+03  0.47000000000E+01 0.  1.
         13    1    6    6    0    0  0.50282079553E+02  0.38220714988E+01 -0.43416872189E+02  0.66542622021E+02  0.00000000000E+00 0. -1.
        -14    1    6    6    0    0 -0.42378219445E+02 -0.22271877012E+02 -0.71886820172E+02  0.86369351644E+02  0.00000000000E+00 0.  1.
<mgrwt>
<rscale>  2 0.18532272E+03</rscale>
<asrwt>0</asrwt>
<pdfrwt beam="1">  1       21 0.90453670E-02 0.18542731E+03</pdfrwt>
<pdfrwt beam="2">  1       21 0.98862606E-01 0.18542731E+03</pdfrwt>
<totfact> 0.81925556E+04</totfact>
</mgrwt>
</event>
<event>
12    1  0.1074575E-001  0.3224704E+03  0.7546771E-02  0.1074684E+00
         21   -1    0    0  501  502  0.00000000000E+00  0.00000000000E+00  0.11042046476E+04  0.11042046476E+04  0.00000000000E+00 0. -1.
         21   -1    0    0  502  503 -0.00000000000E+00 -0.00000000000E+00 -0.13386778343E+03  0.13386778343E+03  0.00000000000E+00 0.  1.
         -6    2    1    2    0  503  0.92319327715E+01 -0.27045328205E+03  0.14551792652E+03  0.35245772022E+03  0.17268691685E+03 0.  0.
        -24    2    3    3    0    0 -0.44603733100E+02 -0.15864472398E+03  0.13608794845E+03  0.22791677489E+03  0.79173765299E+02 0.  0.
          6    2    1    2  501    0 -0.92319327715E+01  0.27045328205E+03  0.82481893762E+03  0.88561471078E+03  0.17537653702E+03 0.  0.
         24    2    5    5    0    0  0.19257433587E+02  0.78085586381E+02  0.44014730935E+03  0.45455633198E+03  0.80147348499E+02 0.  0.
          5    1    5    5  501    0 -0.28489366359E+02  0.19236769567E+03  0.38467162828E+03  0.43105837880E+03  0.47000000000E+01 0. -1.
        -13    1    6    6    0    0  0.13278029521E+02 -0.14655211938E+02  0.58300799825E+02  0.61563500268E+02  0.00000000000E+00 0.  1.
         14    1    6    6    0    0  0.59794040670E+01  0.92740798319E+02  0.38184650952E+03  0.39299283172E+03  0.00000000000E+00 0. -1.
         -5    1    3    3    0  503  0.53835665871E+02 -0.11180855807E+03  0.94299780723E+01  0.12454094533E+03  0.47000000000E+01 0.  1.
         11    1    4    4    0    0 -0.52062454250E+02 -0.14927718127E+03  0.93494093015E+02  0.18367177632E+03  0.00000000000E+00 0. -1.
        -12    1    4    4    0    0  0.74587211501E+01 -0.93675427117E+01  0.42593855430E+02  0.44244998566E+02  0.00000000000E+00 0.  1.
<mgrwt>
<rscale>  2 0.32210604E+03</rscale>
<asrwt>0</asrwt>
<pdfrwt beam="1">  1       21 0.16987763E+00 0.32247036E+03</pdfrwt>
<pdfrwt beam="2">  1       21 0.20595044E-01 0.32247036E+03</pdfrwt>
<totfact> 0.42710610E+03</totfact>
</mgrwt>
</event>
<event>
12    1  0.1074575E-001  0.1859921E+03  0.7546771E-02  0.1162367E+00
         21   -1    0    0  501  502  0.00000000000E+00  0.00000000000E+00  0.45310503025E+03  0.45310503025E+03  0.00000000000E+00 0. -1.
         21   -1    0    0  502  503 -0.00000000000E+00 -0.00000000000E+00 -0.15036197483E+03  0.15036197483E+03  0.00000000000E+00 0. -1.
         -6    2    1    2    0  503  0.52107800975E+02 -0.43839057760E+02 -0.60717588453E+02  0.19565193257E+03  0.17307792252E+03 0.  0.
        -24    2    3    3    0    0  0.34918217061E+02  0.41946893114E+02 -0.24959626716E+02  0.10101878304E+03  0.81258770828E+02 0.  0.
          6    2    1    2  501    0 -0.52107800975E+02  0.43839057760E+02  0.36346064387E+03  0.40781507251E+03  0.17196629849E+03 0.  0.
         24    2    5    5    0    0 -0.38069149731E+02 -0.26253418257E+02  0.10490161380E+03  0.13951505210E+03  0.79508484154E+02 0.  0.
          5    1    5    5  501    0 -0.14038651243E+02  0.70092476017E+02  0.25855903006E+03  0.26830002041E+03  0.47000000000E+01 0. -1.
        -13    1    6    6    0    0  0.23886297437E+02 -0.11320366039E+02  0.44210988225E+02  0.51510361796E+02  0.00000000000E+00 0.  1.
         14    1    6    6    0    0 -0.61955447168E+02 -0.14933052218E+02  0.60690625578E+02  0.88004690304E+02  0.00000000000E+00 0. -1.
         -5    1    3    3    0  503  0.17189583914E+02 -0.85785950874E+02 -0.35757961737E+02  0.94633149531E+02  0.47000000000E+01 0.  1.
         11    1    4    4    0    0  0.34540452980E+02 -0.13682932011E+02 -0.26053772046E+02  0.45376916580E+02  0.00000000000E+00 0. -1.
        -12    1    4    4    0    0  0.37776408052E+00  0.55629825125E+02  0.10941453300E+01  0.55641866460E+02  0.00000000000E+00 0.  1.
<mgrwt>
<rscale>  2 0.18573304E+03</rscale>
<asrwt>0</asrwt>
<pdfrwt beam="1">  1       21 0.69708466E-01 0.18599208E+03</pdfrwt>
<pdfrwt beam="2">  1       21 0.23132612E-01 0.18599208E+03</pdfrwt>
<totfact> 0.32946926E+04</totfact>
</mgrwt>
</event>
<event>
12    1  0.1074575E-001  0.1793196E+03  0.7546771E-02  0.1168793E+00
         21   -1    0    0  503  502  0.00000000000E+00  0.00000000000E+00  0.15841449794E+03  0.15841449794E+03  0.00000000000E+00 0.  1.
         21   -1    0    0  501  503 -0.00000000000E+00 -0.00000000000E+00 -0.34375425703E+03  0.34375425703E+03  0.00000000000E+00 0.  1.
          6    2    1    2  501    0  0.20817954828E+02  0.37113667314E+02 -0.25442120723E+03  0.31126461955E+03  0.17419730525E+03 0.  0.
         24    2    3    3    0    0  0.61558162369E+02  0.88454641284E+01 -0.79271110048E+02  0.12916985751E+03  0.80828791971E+02 0.  0.
         -6    2    1    2    0  502 -0.20817954828E+02 -0.37113667314E+02  0.69081448141E+02  0.19090413542E+03  0.17280431389E+03 0.  0.
        -24    2    5    5    0    0  0.19771890839E+02  0.14284263410E+02  0.86751704994E+02  0.12290699702E+03  0.83578129600E+02 0.  0.
          5    1    3    3  501    0 -0.40740207541E+02  0.28268203186E+02 -0.17515009718E+03  0.18209476204E+03  0.47000000000E+01 0. -1.
        -11    1    4    4    0    0 -0.11477494699E+02  0.24305311865E+02 -0.26517012386E+02  0.37757555738E+02  0.00000000000E+00 0.  1.
         12    1    4    4    0    0  0.73035657068E+02 -0.15459847737E+02 -0.52754097661E+02  0.91412301773E+02  0.00000000000E+00 0. -1.
         -5    1    5    5    0  502 -0.40589845667E+02 -0.51397930724E+02 -0.17670256853E+02  0.67997138405E+02  0.47000000000E+01 0.  1.
         11    1    6    6    0    0 -0.11053031129E+02  0.40759831139E+02  0.62984140145E+02  0.75832283636E+02  0.00000000000E+00 0. -1.
        -12    1    6    6    0    0  0.30824921968E+02 -0.26475567729E+02  0.23767564849E+02  0.47074713380E+02  0.00000000000E+00 0.  1.
<mgrwt>
<rscale>  2 0.17898040E+03</rscale>
<asrwt>0</asrwt>
<pdfrwt beam="1">  1       21 0.24371461E-01 0.17931958E+03</pdfrwt>
<pdfrwt beam="2">  1       21 0.52885270E-01 0.17931958E+03</pdfrwt>
<totfact> 0.54204301E+04</totfact>
</mgrwt>
</event>
<event>
12    1  0.1074575E-001  0.1924998E+03  0.7546771E-02  0.1156394E+00
         21   -1    0    0  501  502  0.00000000000E+00  0.00000000000E+00  0.99596747220E+03  0.99596747220E+03  0.00000000000E+00 0.  1.
         21   -1    0    0  502  503 -0.00000000000E+00 -0.00000000000E+00 -0.37176745225E+02  0.37176745225E+02  0.00000000000E+00 0.  1.
         -6    2    1    2    0  503  0.80583459891E+02  0.14064090238E+01  0.50931490152E+03  0.54447943067E+03  0.17481564439E+03 0.  0.
        -24    2    3    3    0    0  0.11335229902E+02 -0.44731015940E+02  0.15412718737E+03  0.17964469875E+03  0.79922942118E+02 0.  0.
          6    2    1    2  501    0 -0.80583459891E+02 -0.14064090238E+01  0.44947582546E+03  0.48866478675E+03  0.17398012573E+03 0.  0.
         24    2    5    5    0    0 -0.22236231398E+02  0.53867758766E+02  0.32897707877E+03  0.34374525511E+03  0.80862207708E+02 0.  0.
          5    1    5    5  501    0 -0.58347228493E+02 -0.55274167790E+02  0.12049874669E+03  0.14491953165E+03  0.47000000000E+01 0. -1.
        -11    1    6    6    0    0  0.91282756226E+01 -0.82835733637E+01  0.66899973544E+01  0.14024944496E+02  0.00000000000E+00 0.  1.
         12    1    6    6    0    0 -0.31364507020E+02  0.62151332130E+02  0.32228708141E+03  0.32972031061E+03  0.00000000000E+00 0. -1.
         -5    1    3    3    0  503  0.69248229988E+02  0.46137424964E+02  0.35518771415E+03  0.36483473193E+03  0.47000000000E+01 0.  1.
         13    1    4    4    0    0  0.35748766821E+02 -0.26715498128E+02  0.13850609577E+03  0.14551848932E+03  0.00000000000E+00 0. -1.
        -14    1    4    4    0    0 -0.24413536919E+02 -0.18015517812E+02  0.15621091605E+02  0.34126209427E+02  0.00000000000E+00 0.  1.
<mgrwt>
<rscale>  2 0.19230993E+03</rscale>
<asrwt>0</asrwt>
<pdfrwt beam="1">  1       21 0.15322574E+00 0.19249982E+03</pdfrwt>
<pdfrwt beam="2">  1       21 0.57195000E-02 0.19249982E+03</pdfrwt>
<totfact> 0.60477011E+04</totfact>
</mgrwt>
</event>
<event>
12    1  0.1074575E-001  0.2086973E+03  0.7546771E-02  0.1143133E+00
         21   -1    0    0  503  502  0.00000000000E+00  0.00000000000E+00  0.27084499699E+02  0.27084499699E+02  0.00000000000E+00 0.  1.
         21   -1    0    0  501  503 -0.00000000000E+00 -0.00000000000E+00 -0.17391276705E+04  0.17391276705E+04  0.00000000000E+00 0.  1.
          6    2    1    2  501    0  0.33517096835E+02  0.11153146561E+03 -0.11215110888E+04  0.11407636352E+04  0.17318165463E+03 0.  0.
         24    2    3    3    0    0  0.69079053357E+02  0.12881947804E+03 -0.90222150439E+03  0.91788801977E+03  0.84548212934E+02 0.  0.
         -6    2    1    2    0  502 -0.33517096835E+02 -0.11153146561E+03 -0.59053208203E+03  0.62544853502E+03  0.16998548896E+03 0.  0.
        -24    2    5    5    0    0  0.10358362274E+02 -0.72908124782E+01 -0.15005041000E+03  0.17065477620E+03  0.80296173514E+02 0.  0.
          5    1    3    3  501    0 -0.35561956522E+02 -0.17288012435E+02 -0.21928958436E+03  0.22287561539E+03  0.47000000000E+01 0. -1.
        -13    1    4    4    0    0  0.19701281530E+02  0.10865687224E+03 -0.70436449079E+03  0.71296829681E+03  0.00000000000E+00 0.  1.
         14    1    4    4    0    0  0.49377771827E+02  0.20162605806E+02 -0.19785701361E+03  0.20491972296E+03  0.00000000000E+00 0. -1.
         -5    1    5    5    0  502 -0.43875459109E+02 -0.10424065313E+03 -0.44048167202E+03  0.45479375882E+03  0.47000000000E+01 0.  1.
         11    1    6    6    0    0  0.16385737778E+02  0.87199898196E+01 -0.15227579503E+03  0.15340289560E+03  0.00000000000E+00 0. -1.
        -12    1    6    6    0    0 -0.60273755037E+01 -0.16010802298E+02  0.22253850290E+01  0.17251880599E+02  0.00000000000E+00 0.  1.
<mgrwt>
<rscale>  2 0.20803297E+03</rscale>
<asrwt>0</asrwt>
<pdfrwt beam="1">  1       21 0.41668459E-02 0.20869727E+03</pdfrwt>
<pdfrwt beam="2">  1       21 0.26755812E+00 0.20869727E+03</pdfrwt>
<totfact> 0.18940205E+04</totfact>
</mgrwt>
</event>
<event>
12    1  0.1074575E-001  0.3074017E+03  0.7546771E-02  0.1081662E+00
         21   -1    0    0  501  502  0.00000000000E+00  0.00000000000E+00  0.48087025778E+02  0.48087025778E+02  0.00000000000E+00 0.  1.
         21   -1    0    0  502  503 -0.00000000000E+00 -0.00000000000E+00 -0.21839513359E+04  0.21839513359E+04  0.00000000000E+00 0.  1.
         -6    2    1    2    0  503 -0.25460738080E+03 -0.33155310599E+01 -0.14231005681E+04  0.14558116380E+04  0.17127868271E+03 0.  0.
        -24    2    3    3    0    0 -0.56983805925E+02 -0.39029024454E+02 -0.46524326769E+03  0.47711698234E+03  0.80118024328E+02 0.  0.
          6    2    1    2  501    0  0.25460738080E+03  0.33155310599E+01 -0.71276374194E+03  0.77622672365E+03  0.17222039246E+03 0.  0.
         24    2    5    5    0    0  0.13562156549E+03  0.61689969531E+02 -0.32266196588E+03  0.36419919423E+03  0.79570393292E+02 0.  0.
          5    1    5    5  501    0  0.11898581531E+03 -0.58374438471E+02 -0.39010177606E+03  0.41202752942E+03  0.47000000000E+01 0. -1.
        -13    1    6    6    0    0  0.13137992778E+03  0.28163219464E+02 -0.24318588180E+03  0.27783668847E+03  0.00000000000E+00 0.  1.
         14    1    6    6    0    0  0.42416377035E+01  0.33526750066E+02 -0.79476084078E+02  0.86362505758E+02  0.00000000000E+00 0. -1.
         -5    1    3    3    0  503 -0.19762357488E+03  0.35713493395E+02 -0.95785730046E+03  0.97869465565E+03  0.47000000000E+01 0.  1.
         13    1    4    4    0    0 -0.27251296234E+02  0.23384428435E+02 -0.13338059178E+03  0.13812981903E+03  0.00000000000E+00 0. -1.
        -14    1    4    4    0    0 -0.29732509691E+02 -0.62413452890E+02 -0.33186267590E+03  0.33898716331E+03  0.00000000000E+00 0.  1.
<mgrwt>
<rscale>  2 0.30726992E+03</rscale>
<asrwt>0</asrwt>
<pdfrwt beam="1">  1       21 0.73980036E-02 0.30740165E+03</pdfrwt>
<pdfrwt beam="2">  1       21 0.33599253E+00 0.30740165E+03</pdfrwt>
<totfact> 0.25825273E+03</totfact>
</mgrwt>
</event>
<event>
12    1  0.1074575E-001  0.1739069E+03  0.7546771E-02  0.1173966E+00
         21   -1    0    0  503  502  0.00000000000E+00  0.00000000000E+00  0.63699559196E+02  0.63699559196E+02  0.00000000000E+00 0.  1.
         21   -1    0    0  501  503 -0.00000000000E+00 -0.00000000000E+00 -0.76839633155E+03  0.76839633155E+03  0.00000000000E+00 0.  1.
          6    2    1    2  501    0  0.91188497789E+01  0.20616327892E+02 -0.61047989267E+03  0.63476713216E+03  0.17243963095E+03 0.  0.
         24    2    3    3    0    0 -0.37651182633E+01  0.79156392047E+02 -0.42056443072E+03  0.43556143839E+03  0.80990219822E+02 0.  0.
         -6    2    1    2    0  502 -0.91188497789E+01 -0.20616327892E+02 -0.94216879682E+02  0.19732875858E+03  0.17191169870E+03 0.  0.
        -24    2    5    5    0    0  0.55051276565E+02 -0.14171096004E+02 -0.23003023508E+02  0.10113702588E+03  0.80424473267E+02 0.  0.
          5    1    3    3  501    0  0.12883968042E+02 -0.58540064155E+02 -0.18991546195E+03  0.19920569377E+03  0.47000000000E+01 0. -1.
        -13    1    4    4    0    0 -0.37077564438E+02  0.27421853630E+02 -0.25045601860E+03  0.25466629360E+03  0.00000000000E+00 0.  1.
         14    1    4    4    0    0  0.33312446175E+02  0.51734538417E+02 -0.17010841212E+03  0.18089514479E+03  0.00000000000E+00 0. -1.
         -5    1    5    5    0  502 -0.64170126344E+02 -0.64452318878E+01 -0.71213856174E+02  0.96191732702E+02  0.47000000000E+01 0.  1.
         11    1    6    6    0    0  0.33538819626E+01 -0.29371037107E+02 -0.35120317422E+02  0.45905806178E+02  0.00000000000E+00 0. -1.
        -12    1    6    6    0    0  0.51697394602E+02  0.15199941103E+02  0.12117293914E+02  0.55231219704E+02  0.00000000000E+00 0.  1.
<mgrwt>
<rscale>  2 0.17377589E+03</rscale>
<asrwt>0</asrwt>
<pdfrwt beam="1">  1       21 0.97999323E-02 0.17390691E+03</pdfrwt>
<pdfrwt beam="2">  1       21 0.11821482E+00 0.17390691E+03</pdfrwt>
<totfact> 0.46550476E+04</totfact>
</mgrwt>
</event>
<event>
12    1  0.1074575E-001  0.1811360E+03  0.7546771E-02  0.1167439E+00
         21   -1    0    0  501  502  0.00000000000E+00  0.00000000000E+00  0.37905601798E+03  0.37905601798E+03  0.00000000000E+00 0. -1.
         21   -1    0    0  502  503 -0.00000000000E+00 -0.00000000000E+00 -0.86502165606E+02  0.86502165606E+02  0.00000000000E+00 0.  1.
         -6    2    1    2    0  503 -0.19291029835E+02 -0.35020666833E+02  0.11808597156E+03  0.21622799140E+03  0.17666821063E+03 0.  0.
        -24    2    3    3    0    0  0.10680050067E+02 -0.19849549337E+02 -0.89441642945E+01  0.84747293762E+02  0.81203680007E+02 0.  0.
          6    2    1    2  501    0  0.19291029835E+02  0.35020666833E+02  0.17446788081E+03  0.24933019218E+03  0.17357393918E+03 0.  0.
         24    2    5    5    0    0  0.25883661582E+02  0.43809856842E+02  0.19968263359E+03  0.22142703086E+03  0.81040165020E+02 0.  0.
          5    1    5    5  501    0 -0.65926317472E+01 -0.87891900085E+01 -0.25214752774E+02  0.27903161323E+02  0.47000000000E+01 0. -1.
        -13    1    6    6    0    0 -0.75045988827E+00  0.23035245680E+02  0.46765771756E+01  0.23517144973E+02  0.00000000000E+00 0.  1.
         14    1    6    6    0    0  0.26634121470E+02  0.20774611161E+02  0.19500605641E+03  0.19790988589E+03  0.00000000000E+00 0. -1.
         -5    1    3    3    0  503 -0.29971079902E+02 -0.15171117496E+02  0.12703013585E+03  0.13148069764E+03  0.47000000000E+01 0.  1.
         13    1    4    4    0    0  0.88979357390E+01 -0.27105606064E+02  0.32148115918E+02  0.42981257515E+02  0.00000000000E+00 0. -1.
        -14    1    4    4    0    0  0.17821143283E+01  0.72560567269E+01 -0.41092280213E+02  0.41766036247E+02  0.00000000000E+00 0.  1.
<mgrwt>
<rscale>  2 0.18037708E+03</rscale>
<asrwt>0</asrwt>
<pdfrwt beam="1">  1       21 0.58316309E-01 0.18113599E+03</pdfrwt>
<pdfrwt beam="2">  1       21 0.13308026E-01 0.18113599E+03</pdfrwt>
<totfact> 0.13473915E+05</totfact>
</mgrwt>
</event>
<event>
12    1  0.1074575E-001  0.2061613E+03  0.7546771E-02  0.1144832E+00
         21   -1    0    0  501  502  0.00000000000E+00  0.00000000000E+00  0.12003290890E+03  0.12003290890E+03  0.00000000000E+00 0. -1.
         21   -1    0    0  502  503 -0.00000000000E+00 -0.00000000000E+00 -0.39596273458E+03  0.39596273458E+03  0.00000000000E+00 0. -1.
         -6    2    1    2    0  503  0.88069059494E+02 -0.69012061722E+02 -0.22372542860E+03  0.30422942469E+03  0.17315788039E+03 0.  0.
        -24    2    3    3    0    0  0.50910026513E+02 -0.11174781426E+03 -0.18166931280E+03  0.23353327802E+03  0.80340823623E+02 0.  0.
          6    2    1    2  501    0 -0.88069059494E+02  0.69012061722E+02 -0.52204397084E+02  0.21176621879E+03  0.17204885481E+03 0.  0.
         24    2    5    5    0    0 -0.49869779898E+01 -0.10882365135E+02 -0.49488032323E+02  0.96374623135E+02  0.81827298751E+02 0.  0.
          5    1    5    5  501    0 -0.83082081504E+02  0.79894426857E+02 -0.27163647614E+01  0.11539159565E+03  0.47000000000E+01 0. -1.
        -11    1    6    6    0    0  0.29423280648E+02  0.11670858750E+02 -0.44958153250E+02  0.54983396873E+02  0.00000000000E+00 0.  1.
         12    1    6    6    0    0 -0.34410258638E+02 -0.22553223885E+02 -0.45298790732E+01  0.41391226263E+02  0.00000000000E+00 0. -1.
         -5    1    3    3    0  503  0.37159032981E+02  0.42735752537E+02 -0.42056115804E+02  0.70696146666E+02  0.47000000000E+01 0.  1.
         13    1    4    4    0    0  0.54826858019E+01 -0.26641881363E+01 -0.72192148687E+02  0.72449044673E+02  0.00000000000E+00 0. -1.
        -14    1    4    4    0    0  0.45427340711E+02 -0.10908362612E+03 -0.10947716411E+03  0.16108423335E+03  0.00000000000E+00 0.  1.
<mgrwt>
<rscale>  2 0.20592824E+03</rscale>
<asrwt>0</asrwt>
<pdfrwt beam="1">  1       21 0.18466601E-01 0.20616129E+03</pdfrwt>
<pdfrwt beam="2">  1       21 0.60917344E-01 0.20616129E+03</pdfrwt>
<totfact> 0.66745051E+04</totfact>
</mgrwt>
</event>
<event>
12    1  0.1074575E-001  0.1776485E+03  0.7546771E-02  0.1170602E+00
         21   -1    0    0  501  502  0.00000000000E+00  0.00000000000E+00  0.52208482287E+03  0.52208482287E+03  0.00000000000E+00 0.  1.
         21   -1    0    0  502  503 -0.00000000000E+00 -0.00000000000E+00 -0.81967778352E+02  0.81967778352E+02  0.00000000000E+00 0.  1.
         -6    2    1    2    0  503  0.18613721958E+02  0.30839782149E+02  0.61918897200E+02  0.18620952660E+03  0.17187924586E+03 0.  0.
        -24    2    3    3    0    0  0.38777153552E+02  0.35376814032E+02 -0.23034780540E+02  0.98651740002E+02  0.80289339780E+02 0.  0.
          6    2    1    2  501    0 -0.18613721958E+02 -0.30839782149E+02  0.37819814732E+03  0.41784307462E+03  0.17395813740E+03 0.  0.
         24    2    5    5    0    0  0.44133950888E+02  0.59651830925E+01  0.12620080012E+03  0.15551383700E+03  0.79211883699E+02 0.  0.
          5    1    5    5  501    0 -0.62747672846E+02 -0.36804965241E+02  0.25199734720E+03  0.26232923762E+03  0.47000000000E+01 0. -1.
        -11    1    6    6    0    0  0.36645146808E+02  0.24490248156E+01  0.13704112899E+03  0.14187718472E+03  0.00000000000E+00 0.  1.
         12    1    6    6    0    0  0.74888040794E+01  0.35161582770E+01 -0.10840328874E+02  0.13636652290E+02  0.00000000000E+00 0. -1.
         -5    1    3    3    0  503 -0.20163431594E+02 -0.45370318827E+01  0.84953677740E+02  0.87557786595E+02  0.47000000000E+01 0.  1.
         11    1    4    4    0    0  0.34928329031E+02  0.40144283973E+02  0.18750772617E+02  0.56419351098E+02  0.00000000000E+00 0. -1.
        -12    1    4    4    0    0  0.38488245211E+01 -0.47674699414E+01 -0.41785553157E+02  0.42232388904E+02  0.00000000000E+00 0.  1.
<mgrwt>
<rscale>  2 0.17713752E+03</rscale>
<asrwt>0</asrwt>
<pdfrwt beam="1">  1       21 0.80320740E-01 0.17764852E+03</pdfrwt>
<pdfrwt beam="2">  1       21 0.12610428E-01 0.17764852E+03</pdfrwt>
<totfact> 0.73656075E+04</totfact>
</mgrwt>
</event>
<event>
12    1  0.1074575E-001  0.1766206E+03  0.7546771E-02  0.1171777E+00
         21   -1    0    0  501  502  0.00000000000E+00  0.00000000000E+00  0.18954852848E+03  0.18954852848E+03  0.00000000000E+00 0.  1.
         21   -1    0    0  502  503 -0.00000000000E+00 -0.00000000000E+00 -0.19944505140E+03  0.19944505140E+03  0.00000000000E+00 0.  1.
         -6    2    1    2    0  503  0.31470455392E+02  0.18304184252E+02 -0.89063035327E+02  0.19544210486E+03  0.17011748695E+03 0.  0.
        -24    2    3    3    0    0  0.59045223422E+01 -0.28133437052E+02  0.73237379105E+01  0.85339563288E+02  0.80017812147E+02 0.  0.
          6    2    1    2  501    0 -0.31470455392E+02 -0.18304184252E+02  0.79166512409E+02  0.19355147502E+03  0.17282767161E+03 0.  0.
         24    2    5    5    0    0 -0.48766235392E+02  0.10080208940E+02  0.11208531443E+03  0.14653493209E+03  0.80184863208E+02 0.  0.
          5    1    5    5  501    0  0.17295780000E+02 -0.28384393192E+02 -0.32918802017E+02  0.47016542928E+02  0.47000000000E+01 0. -1.
        -11    1    6    6    0    0 -0.12266107287E+02 -0.24280258350E+02  0.85643342228E+02  0.89859726249E+02  0.00000000000E+00 0.  1.
         12    1    6    6    0    0 -0.36500128104E+02  0.34360467290E+02  0.26441972197E+02  0.56675205846E+02  0.00000000000E+00 0. -1.
         -5    1    3    3    0  503  0.25565933049E+02  0.46437621304E+02 -0.96386773237E+02  0.11010254157E+03  0.47000000000E+01 0.  1.
         13    1    4    4    0    0 -0.27492482259E+02 -0.22561708521E+02 -0.20907746813E+02  0.41255316614E+02  0.00000000000E+00 0. -1.
        -14    1    4    4    0    0  0.33397004601E+02 -0.55717285312E+01  0.28231484723E+02  0.44084246674E+02  0.00000000000E+00 0.  1.
<mgrwt>
<rscale>  2 0.17595407E+03</rscale>
<asrwt>0</asrwt>
<pdfrwt beam="1">  1       21 0.29161312E-01 0.17662060E+03</pdfrwt>
<pdfrwt beam="2">  1       21 0.30683854E-01 0.17662060E+03</pdfrwt>
<totfact> 0.11549319E+05</totfact>
</mgrwt>
</event>
<event>
12    1  0.1074575E-001  0.2285829E+03  0.7546771E-02  0.1128768E+00
         21   -1    0    0  501  502  0.00000000000E+00  0.00000000000E+00  0.21761214350E+03  0.21761214350E+03  0.00000000000E+00 0.  1.
         21   -1    0    0  502  503 -0.00000000000E+00 -0.00000000000E+00 -0.27867710572E+03  0.27867710572E+03  0.00000000000E+00 0. -1.
         -6    2    1    2    0  503  0.13227661780E+03  0.42343178854E+02 -0.13070653588E+03  0.26331411873E+03  0.18154910682E+03 0.  0.
        -24    2    3    3    0    0  0.21997918079E+02 -0.15623064015E+02 -0.28515192175E+01  0.84735082413E+02  0.80273996417E+02 0.  0.
          6    2    1    2  501    0 -0.13227661780E+03 -0.42343178854E+02  0.69641573667E+02  0.23297513050E+03  0.17360130828E+03 0.  0.
         24    2    5    5    0    0 -0.17570916083E+02 -0.10864147785E+01  0.76821139883E+02  0.11077384262E+03  0.77842400312E+02 0.  0.
          5    1    5    5  501    0 -0.11470570171E+03 -0.41256764076E+02 -0.71795662163E+01  0.12220128788E+03  0.47000000000E+01 0. -1.
        -11    1    6    6    0    0 -0.21149988551E+02  0.16192337761E+02  0.86597140911E+02  0.90601206569E+02  0.00000000000E+00 0.  1.
         12    1    6    6    0    0  0.35790724682E+01 -0.17278752540E+02 -0.97760010275E+01  0.20172636049E+02  0.00000000000E+00 0. -1.
         -5    1    3    3    0  503  0.11027869972E+03  0.57966242869E+02 -0.12785501667E+03  0.17857903631E+03  0.47000000000E+01 0.  1.
         13    1    4    4    0    0 -0.28660667859E+01  0.26419354681E+02 -0.19685221559E+02  0.33071204823E+02  0.00000000000E+00 0. -1.
        -14    1    4    4    0    0  0.24863984865E+02 -0.42042418696E+02  0.16833702341E+02  0.51663877590E+02  0.00000000000E+00 0.  1.
<mgrwt>
<rscale>  2 0.22700154E+03</rscale>
<asrwt>0</asrwt>
<pdfrwt beam="1">  1       21 0.33478791E-01 0.22858287E+03</pdfrwt>
<pdfrwt beam="2">  1       21 0.42873401E-01 0.22858287E+03</pdfrwt>
<totfact> 0.44192777E+04</totfact>
</mgrwt>
</event>
<event>
12    1  0.1074575E-001  0.2144518E+03  0.7546771E-02  0.1139057E+00
         21   -1    0    0  501  502  0.00000000000E+00  0.00000000000E+00  0.22059897798E+03  0.22059897798E+03  0.00000000000E+00 0.  1.
         21   -1    0    0  502  503 -0.00000000000E+00 -0.00000000000E+00 -0.40036924470E+03  0.40036924470E+03  0.00000000000E+00 0.  1.
         -6    2    1    2    0  503  0.42536469383E+02  0.11043473006E+03 -0.30696287734E+03  0.37163406213E+03  0.17285973284E+03 0.  0.
        -24    2    3    3    0    0 -0.38693854870E+02  0.38652916688E+02 -0.10959233513E+03  0.14640481171E+03  0.80203657026E+02 0.  0.
          6    2    1    2  501    0 -0.42536469383E+02 -0.11043473006E+03  0.12719261062E+03  0.24933416055E+03  0.17884178088E+03 0.  0.
         24    2    5    5    0    0 -0.21342991733E+02 -0.59885340469E+02 -0.83684456898E+01  0.10303551301E+03  0.80650534773E+02 0.  0.
          5    1    5    5  501    0 -0.21193477650E+02 -0.50549389590E+02  0.13556105631E+03  0.14629864754E+03  0.47000000000E+01 0. -1.
        -11    1    6    6    0    0 -0.43571000913E+02 -0.47036204518E+02  0.17630946664E+02  0.66495766303E+02  0.00000000000E+00 0.  1.
         12    1    6    6    0    0  0.22228009180E+02 -0.12849135951E+02 -0.25999392353E+02  0.36539746709E+02  0.00000000000E+00 0. -1.
         -5    1    3    3    0  503  0.81230324254E+02  0.71781813372E+02 -0.19737054222E+03  0.22522925042E+03  0.47000000000E+01 0.  1.
         11    1    4    4    0    0  0.31742466101E+01 -0.14315094170E+02  0.31448007894E+01  0.14996250687E+02  0.00000000000E+00 0. -1.
        -12    1    4    4    0    0 -0.41868101480E+02  0.52968010858E+02 -0.11273713592E+03  0.13140856102E+03  0.00000000000E+00 0.  1.
<mgrwt>
<rscale>  2 0.21320018E+03</rscale>
<asrwt>0</asrwt>
<pdfrwt beam="1">  1       21 0.33938304E-01 0.21445177E+03</pdfrwt>
<pdfrwt beam="2">  1       21 0.61595268E-01 0.21445177E+03</pdfrwt>
<totfact> 0.20222751E+04</totfact>
</mgrwt>
</event>
<event>
12    1  0.1074575E-001  0.1892554E+03  0.7546771E-02  0.1160003E+00
         21   -1    0    0  503  502  0.00000000000E+00  0.00000000000E+00  0.38991608742E+03  0.38991608742E+03  0.00000000000E+00 0.  1.
         21   -1    0    0  501  503 -0.00000000000E+00 -0.00000000000E+00 -0.11214245774E+03  0.11214245774E+03  0.00000000000E+00 0.  1.
          6    2    1    2  501    0  0.50242591142E+02 -0.58976882473E+02  0.28547671922E+02  0.19139637017E+03  0.17267023575E+03 0.  0.
         24    2    3    3    0    0  0.97000183682E+02 -0.65334385836E+02  0.18765750003E+02  0.14297668094E+03  0.80078463471E+02 0.  0.
         -6    2    1    2    0  502 -0.50242591142E+02  0.58976882473E+02  0.24922595776E+03  0.31066217499E+03  0.16850762096E+03 0.  0.
        -24    2    5    5    0    0 -0.84064246230E+02 -0.18287384702E+01  0.17148653297E+03  0.20622685502E+03  0.77792949322E+02 0.  0.
          5    1    3    3  501    0 -0.46757592541E+02  0.63575033631E+01  0.97819219189E+01  0.48419689235E+02  0.47000000000E+01 0. -1.
        -11    1    4    4    0    0  0.92795491489E+02 -0.26292314814E+02 -0.58595231176E+01  0.96626202813E+02  0.00000000000E+00 0.  1.
         12    1    4    4    0    0  0.42046921933E+01 -0.39042071022E+02  0.24625273121E+02  0.46350478125E+02  0.00000000000E+00 0. -1.
         -5    1    5    5    0  502  0.33821655088E+02  0.60805620943E+02  0.77739424786E+02  0.10443531997E+03  0.47000000000E+01 0.  1.
         13    1    6    6    0    0  0.70000233735E+01 -0.20438335874E+02  0.32073646096E+02  0.38670979744E+02  0.00000000000E+00 0. -1.
        -14    1    6    6    0    0 -0.91064269603E+02  0.18609597404E+02  0.13941288687E+03  0.16755587528E+03  0.00000000000E+00 0.  1.
<mgrwt>
<rscale>  2 0.18830069E+03</rscale>
<asrwt>0</asrwt>
<pdfrwt beam="1">  1       21 0.59987090E-01 0.18925539E+03</pdfrwt>
<pdfrwt beam="2">  1       21 0.17252686E-01 0.18925539E+03</pdfrwt>
<totfact> 0.78819629E+04</totfact>
</mgrwt>
</event>
<event>
12    1  0.1074575E-001  0.1867481E+03  0.7546771E-02  0.1161479E+00
         21   -1    0    0  503  502  0.00000000000E+00  0.00000000000E+00  0.18047993290E+03  0.18047993290E+03  0.00000000000E+00 0.  1.
         21   -1    0    0  501  503 -0.00000000000E+00 -0.00000000000E+00 -0.24023225767E+03  0.24023225767E+03  0.00000000000E+00 0.  1.
          6    2    1    2  501    0  0.61259996288E+02 -0.33494724725E+02 -0.12313247308E+03  0.22350189330E+03  0.17296475552E+03 0.  0.
         24    2    3    3    0    0  0.81481523208E+02 -0.43427125578E+02 -0.29438173261E+02  0.12702249365E+03  0.82115491764E+02 0.  0.
         -6    2    1    2    0  502 -0.61259996288E+02  0.33494724725E+02  0.63380148306E+02  0.19721029727E+03  0.17320558426E+03 0.  0.
        -24    2    5    5    0    0 -0.64637231450E+02  0.46118869124E+02 -0.16976569801E+02  0.11566235503E+03  0.82369015225E+02 0.  0.
          5    1    3    3  501    0 -0.20221526920E+02  0.99324008526E+01 -0.93694299819E+02  0.96479399647E+02  0.47000000000E+01 0. -1.
        -11    1    4    4    0    0  0.39580465801E+02 -0.51642893948E+02 -0.47602964632E+02  0.80620369697E+02  0.00000000000E+00 0.  1.
         12    1    4    4    0    0  0.41901057407E+02  0.82157683702E+01  0.18164791371E+02  0.46402123952E+02  0.00000000000E+00 0. -1.
         -5    1    5    5    0  502  0.33772351624E+01 -0.12624144398E+02  0.80356718107E+02  0.81547942243E+02  0.47000000000E+01 0.  1.
         11    1    6    6    0    0 -0.21138419990E+01 -0.10543236415E+01 -0.35173982881E+02  0.35253212592E+02  0.00000000000E+00 0. -1.
        -12    1    6    6    0    0 -0.62523389451E+02  0.47173192765E+02  0.18197413080E+02  0.80409142434E+02  0.00000000000E+00 0.  1.
<mgrwt>
<rscale>  2 0.18669225E+03</rscale>
<asrwt>0</asrwt>
<pdfrwt beam="1">  1       21 0.27766143E-01 0.18674811E+03</pdfrwt>
<pdfrwt beam="2">  1       21 0.36958809E-01 0.18674811E+03</pdfrwt>
<totfact> 0.87631276E+04</totfact>
</mgrwt>
</event>
<event>
12    1  0.1074575E-001  0.2726681E+03  0.7546771E-02  0.1099961E+00
         21   -1    0    0  501  502  0.00000000000E+00  0.00000000000E+00  0.52676601374E+03  0.52676601374E+03  0.00000000000E+00 0.  1.
         21   -1    0    0  502  503 -0.00000000000E+00 -0.00000000000E+00 -0.15597286353E+03  0.15597286353E+03  0.00000000000E+00 0.  1.
         -6    2    1    2    0  503 -0.68057572947E+02 -0.19726442705E+03  0.77155904707E+02  0.28202613591E+03  0.17332230177E+03 0.  0.
        -24    2    3    3    0    0 -0.10538663231E+03 -0.18800353492E+03  0.78232659335E+02  0.24326439967E+03  0.81274520884E+02 0.  0.
          6    2    1    2  501    0  0.68057572947E+02  0.19726442705E+03  0.29363724550E+03  0.40071274137E+03  0.17550721277E+03 0.  0.
         24    2    5    5    0    0  0.19327025419E+02  0.13600743281E+03  0.27914415526E+03  0.32096799063E+03  0.78914104577E+02 0.  0.
          5    1    5    5  501    0  0.48730547528E+02  0.61256994239E+02  0.14493090242E+02  0.79744750739E+02  0.47000000000E+01 0. -1.
        -11    1    6    6    0    0  0.48108113230E+02  0.95550601015E+02  0.16702397673E+03  0.19834645627E+03  0.00000000000E+00 0.  1.
         12    1    6    6    0    0 -0.28781087811E+02  0.40456831793E+02  0.11212017853E+03  0.12262153435E+03  0.00000000000E+00 0. -1.
         -5    1    3    3    0  503  0.37329059365E+02 -0.92608921235E+01 -0.10767546280E+01  0.38761736243E+02  0.47000000000E+01 0.  1.
         13    1    4    4    0    0 -0.71776810971E+02 -0.52680641724E+02  0.45730441270E+02  0.10009212688E+03  0.00000000000E+00 0. -1.
        -14    1    4    4    0    0 -0.33609821342E+02 -0.13532289320E+03  0.32502218065E+02  0.14317227278E+03  0.00000000000E+00 0.  1.
<mgrwt>
<rscale>  2 0.27231708E+03</rscale>
<asrwt>0</asrwt>
<pdfrwt beam="1">  1       21 0.81040924E-01 0.27266806E+03</pdfrwt>
<pdfrwt beam="2">  1       21 0.23995825E-01 0.27266806E+03</pdfrwt>
<totfact> 0.20978700E+04</totfact>
</mgrwt>
</event>
<event>
12    1  0.1074575E-001  0.2155294E+03  0.7546771E-02  0.1137849E+00
         21   -1    0    0  503  502  0.00000000000E+00  0.00000000000E+00  0.94525423050E+02  0.94525423050E+02  0.00000000000E+00 0. -1.
         21   -1    0    0  501  503 -0.00000000000E+00 -0.00000000000E+00 -0.52023015360E+03  0.52023015360E+03  0.00000000000E+00 0.  1.
          6    2    1    2  501    0 -0.11992640994E+03 -0.41698319117E+01 -0.29199165139E+03  0.36111785142E+03  0.17534892882E+03 0.  0.
         24    2    3    3    0    0  0.64277727770E+01  0.17421291104E+02 -0.10167440364E+03  0.13160902616E+03  0.81476584151E+02 0.  0.
         -6    2    1    2    0  502  0.11992640994E+03  0.41698319117E+01 -0.13371307916E+03  0.25363772523E+03  0.17903401023E+03 0.  0.
        -24    2    5    5    0    0  0.84840222212E+02 -0.20685606819E+02 -0.16276472671E+03  0.20153281539E+03  0.80606214311E+02 0.  0.
          5    1    3    3  501    0 -0.12635418272E+03 -0.21591123016E+02 -0.19031724775E+03  0.22950882526E+03  0.47000000000E+01 0. -1.
        -11    1    4    4    0    0  0.31072593523E+00 -0.29143462857E+02 -0.14418315226E+02  0.32516546432E+02  0.00000000000E+00 0.  1.
         12    1    4    4    0    0  0.61170468417E+01  0.46564753961E+02 -0.87256088414E+02  0.99092479729E+02  0.00000000000E+00 0. -1.
         -5    1    5    5    0  502  0.35086187729E+02  0.24855438731E+02  0.29051647544E+02  0.52104909835E+02  0.47000000000E+01 0.  1.
         11    1    6    6    0    0  0.86227795012E+02 -0.43077144126E+02 -0.13335617534E+03  0.16454404419E+03  0.00000000000E+00 0. -1.
        -12    1    6    6    0    0 -0.13875728005E+01  0.22391537306E+02 -0.29408551369E+02  0.36988771199E+02  0.00000000000E+00 0.  1.
<mgrwt>
<rscale>  2 0.21476249E+03</rscale>
<asrwt>0</asrwt>
<pdfrwt beam="1">  1       21 0.14542372E-01 0.21552937E+03</pdfrwt>
<pdfrwt beam="2">  1       21 0.80035410E-01 0.21552937E+03</pdfrwt>
<totfact> 0.56405762E+04</totfact>
</mgrwt>
</event>
<event>
12    1  0.1074575E-001  0.2062752E+03  0.7546771E-02  0.1145986E+00
         21   -1    0    0  501  502  0.00000000000E+00  0.00000000000E+00  0.28521960934E+03  0.28521960934E+03  0.00000000000E+00 0.  1.
         21   -1    0    0  502  503 -0.00000000000E+00 -0.00000000000E+00 -0.35971225876E+03  0.35971225876E+03  0.00000000000E+00 0. -1.
         -6    2    1    2    0  503 -0.63042457856E+02  0.79566909584E+02 -0.28657803244E+03  0.34907773828E+03  0.17153149592E+03 0.  0.
        -24    2    3    3    0    0 -0.57241855296E+02  0.40441426117E+02 -0.29023861897E+03  0.30907848403E+03  0.79868106320E+02 0.  0.
          6    2    1    2  501    0  0.63042457856E+02 -0.79566909584E+02  0.21208538302E+03  0.29585412982E+03  0.17956673368E+03 0.  0.
         24    2    5    5    0    0 -0.38528017859E+02 -0.49780234025E+02  0.10093980780E+03  0.14229880927E+03  0.78087300254E+02 0.  0.
          5    1    5    5  501    0  0.10157047571E+03 -0.29786675559E+02  0.11114557522E+03  0.15355532055E+03  0.47000000000E+01 0. -1.
        -13    1    6    6    0    0 -0.44510412979E+02 -0.96064091500E+00  0.73622732554E+02  0.86037238701E+02  0.00000000000E+00 0.  1.
         14    1    6    6    0    0  0.59823951206E+01 -0.48819593110E+02  0.27317075246E+02  0.56261570568E+02  0.00000000000E+00 0. -1.
         -5    1    3    3    0  503 -0.58006025608E+01  0.39125483468E+02  0.36605865288E+01  0.39999254248E+02  0.47000000000E+01 0.  1.
         13    1    4    4    0    0 -0.50853132814E+02  0.57707104612E+02 -0.27379635854E+03  0.28439514235E+03  0.00000000000E+00 0. -1.
        -14    1    4    4    0    0 -0.63887224815E+01 -0.17265678496E+02 -0.16442260428E+02  0.24683341687E+02  0.00000000000E+00 0.  1.
<mgrwt>
<rscale>  2 0.20451386E+03</rscale>
<asrwt>0</asrwt>
<pdfrwt beam="1">  1       21 0.43879940E-01 0.20627520E+03</pdfrwt>
<pdfrwt beam="2">  1       21 0.55340348E-01 0.20627520E+03</pdfrwt>
<totfact> 0.15230817E+04</totfact>
</mgrwt>
</event>
<event>
12    1  0.1074575E-001  0.1910519E+03  0.7546771E-02  0.1159041E+00
         21   -1    0    0  501  502  0.00000000000E+00  0.00000000000E+00  0.26324197074E+03  0.26324197074E+03  0.00000000000E+00 0.  1.
         21   -1    0    0  502  503 -0.00000000000E+00 -0.00000000000E+00 -0.30317614848E+03  0.30317614848E+03  0.00000000000E+00 0.  1.
         -6    2    1    2    0  503  0.70354072558E+02  0.49215225969E+01 -0.23144613913E+03  0.29590439067E+03  0.17034722244E+03 0.  0.
        -24    2    3    3    0    0  0.45762472149E+02 -0.28543933177E+02 -0.49091573187E+02  0.10882162487E+03  0.80766351307E+02 0.  0.
          6    2    1    2  501    0 -0.70354072558E+02 -0.49215225969E+01  0.19151196139E+03  0.27051372855E+03  0.17755824134E+03 0.  0.
         24    2    5    5    0    0 -0.33260489745E+02 -0.41012505511E+02  0.20033981429E+03  0.21780211768E+03  0.67182106921E+02 0.  0.
          5    1    5    5  501    0 -0.37093582814E+02  0.36090982914E+02 -0.88278528990E+01  0.52711610869E+02  0.47000000000E+01 0. -1.
        -13    1    6    6    0    0 -0.17164867376E+02  0.16309975680E+02  0.81677775623E+02  0.85040619761E+02  0.00000000000E+00 0.  1.
         14    1    6    6    0    0 -0.16095622368E+02 -0.57322481190E+02  0.11866203866E+03  0.13276149792E+03  0.00000000000E+00 0. -1.
         -5    1    3    3    0  503  0.24591600409E+02  0.33465455774E+02 -0.18235456594E+03  0.18708276580E+03  0.47000000000E+01 0.  1.
         11    1    4    4    0    0  0.44242230393E+02 -0.54997285657E+02 -0.34318803134E+02  0.78484754114E+02  0.00000000000E+00 0. -1.
        -12    1    4    4    0    0  0.15202417563E+01  0.26453352480E+02 -0.14772770053E+02  0.30336870759E+02  0.00000000000E+00 0.  1.
<mgrwt>
<rscale>  2 0.18935895E+03</rscale>
<asrwt>0</asrwt>
<pdfrwt beam="1">  1       21 0.40498765E-01 0.19105195E+03</pdfrwt>
<pdfrwt beam="2">  1       21 0.46642485E-01 0.19105195E+03</pdfrwt>
<totfact> 0.25880353E+04</totfact>
</mgrwt>
</event>
<event>
12    1  0.1074575E-001  0.2234236E+03  0.7546771E-02  0.1131554E+00
         21   -1    0    0  503  502  0.00000000000E+00  0.00000000000E+00  0.60936640180E+02  0.60936640180E+02  0.00000000000E+00 0. -1.
         21   -1    0    0  501  503 -0.00000000000E+00 -0.00000000000E+00 -0.87905914688E+03  0.87905914688E+03  0.00000000000E+00 0.  1.
          6    2    1    2  501    0 -0.31754735072E+02  0.13685962739E+03 -0.53480120146E+03  0.57917856257E+03  0.17232690285E+03 0.  0.
         24    2    3    3    0    0  0.22793013441E+02  0.10359394238E+03 -0.46861990707E+03  0.48706929922E+03  0.79879024682E+02 0.  0.
         -6    2    1    2    0  502  0.31754735072E+02 -0.13685962739E+03 -0.28332130524E+03  0.36081722449E+03  0.17372157805E+03 0.  0.
        -24    2    5    5    0    0 -0.35497573646E+02 -0.12332037199E+03 -0.22068824728E+03  0.26780553483E+03  0.80922865218E+02 0.  0.
          5    1    3    3  501    0 -0.54547748513E+02  0.33265685004E+02 -0.66181294393E+02  0.92109263346E+02  0.47000000000E+01 0. -1.
        -11    1    4    4    0    0  0.48266671441E+02  0.41697085924E+02 -0.27163844289E+03  0.27902645430E+03  0.00000000000E+00 0.  1.
         12    1    4    4    0    0 -0.25473658000E+02  0.61896856458E+02 -0.19698146418E+03  0.20804284492E+03  0.00000000000E+00 0. -1.
         -5    1    5    5    0  502  0.67252308718E+02 -0.13539255394E+02 -0.62633057957E+02  0.93011689661E+02  0.47000000000E+01 0.  1.
         13    1    6    6    0    0  0.33193300228E+00  0.98296504384E+01 -0.32977672085E+01  0.10373402326E+02  0.00000000000E+00 0. -1.
        -14    1    6    6    0    0 -0.35829506648E+02 -0.13315002243E+03 -0.21739048007E+03  0.25743213251E+03  0.00000000000E+00 0.  1.
<mgrwt>
<rscale>  2 0.22315244E+03</rscale>
<asrwt>0</asrwt>
<pdfrwt beam="1">  1       21 0.93748680E-02 0.22342361E+03</pdfrwt>
<pdfrwt beam="2">  1       21 0.13523986E+00 0.22342361E+03</pdfrwt>
<totfact> 0.34941002E+04</totfact>
</mgrwt>
</event>
<event>
12    1  0.1074575E-001  0.2328448E+03  0.7546771E-02  0.1124847E+00
         21   -1    0    0  501  502  0.00000000000E+00  0.00000000000E+00  0.57664046559E+02  0.57664046559E+02  0.00000000000E+00 0. -1.
         21   -1    0    0  502  503 -0.00000000000E+00 -0.00000000000E+00 -0.93603795017E+03  0.93603795017E+03  0.00000000000E+00 0. -1.
         -6    2    1    2    0  503 -0.86212900376E+02  0.12940844049E+03 -0.43107214303E+03  0.48993868410E+03  0.17331333769E+03 0.  0.
        -24    2    3    3    0    0 -0.97391139019E+01  0.12300054334E+03 -0.34201092426E+03  0.37228116478E+03  0.79986307184E+02 0.  0.
          6    2    1    2  501    0  0.86212900376E+02 -0.12940844049E+03 -0.44730176058E+03  0.50376331263E+03  0.17181211096E+03 0.  0.
         24    2    5    5    0    0  0.94587502656E+02 -0.14501345675E+03 -0.44592474663E+03  0.48538842043E+03  0.82324605892E+02 0.  0.
          5    1    5    5  501    0 -0.83746022801E+01  0.15605016263E+02 -0.13770139528E+01  0.18374892199E+02  0.47000000000E+01 0. -1.
        -13    1    6    6    0    0 -0.12186989202E+02 -0.38932902886E+01 -0.51830339208E+02  0.53385995144E+02  0.00000000000E+00 0.  1.
         14    1    6    6    0    0  0.10677449186E+03 -0.14112016646E+03 -0.39409440742E+03  0.43200242529E+03  0.00000000000E+00 0. -1.
         -5    1    3    3    0  503 -0.76473786474E+02  0.64078971479E+01 -0.89061218771E+02  0.11765751932E+03  0.47000000000E+01 0.  1.
         13    1    4    4    0    0 -0.68683360543E+01  0.13472065626E+03 -0.31036905025E+03  0.33841657260E+03  0.00000000000E+00 0. -1.
        -14    1    4    4    0    0 -0.28707778476E+01 -0.11720112918E+02 -0.31641874011E+02  0.33864592175E+02  0.00000000000E+00 0.  1.
<mgrwt>
<rscale>  2 0.23256553E+03</rscale>
<asrwt>0</asrwt>
<pdfrwt beam="1">  1       21 0.88713919E-02 0.23284484E+03</pdfrwt>
<pdfrwt beam="2">  1       21 0.14400584E+00 0.23284484E+03</pdfrwt>
<totfact> 0.32554160E+04</totfact>
</mgrwt>
</event>
<event>
12    1  0.1074575E-001  0.1788582E+03  0.7546771E-02  0.1169313E+00
         21   -1    0    0  503  502  0.00000000000E+00  0.00000000000E+00  0.29300277396E+03  0.29300277396E+03  0.00000000000E+00 0.  1.
         21   -1    0    0  501  503 -0.00000000000E+00 -0.00000000000E+00 -0.22274720422E+03  0.22274720422E+03  0.00000000000E+00 0.  1.
          6    2    1    2  501    0  0.36858578636E+02 -0.20226918181E+02 -0.14972911915E+03  0.23325749040E+03  0.17384638238E+03 0.  0.
         24    2    3    3    0    0  0.32055144019E+01 -0.76843514090E+02 -0.11114996141E+03  0.15678259859E+03  0.79443491363E+02 0.  0.
         -6    2    1    2    0  502 -0.36858578636E+02  0.20226918181E+02  0.21998468889E+03  0.28249248778E+03  0.17216579007E+03 0.  0.
        -24    2    5    5    0    0  0.36221272225E+02  0.83906266061E+01  0.67127042761E+02  0.11258571223E+03  0.82383976302E+02 0.  0.
          5    1    3    3  501    0  0.33653064234E+02  0.56616595909E+02 -0.38579157742E+02  0.76474891806E+02  0.47000000000E+01 0. -1.
        -13    1    4    4    0    0 -0.30341011060E+02 -0.40723600789E+02 -0.22921747829E+02  0.55717099143E+02  0.00000000000E+00 0.  1.
         14    1    4    4    0    0  0.33546525462E+02 -0.36119913301E+02 -0.88228213582E+02  0.10106549945E+03  0.00000000000E+00 0. -1.
         -5    1    5    5    0  502 -0.73079850861E+02  0.11836291575E+02  0.15285764613E+03  0.16990677556E+03  0.47000000000E+01 0.  1.
         11    1    6    6    0    0 -0.41291046868E+01  0.39309675869E+02  0.28054077568E+02  0.48469901905E+02  0.00000000000E+00 0. -1.
        -12    1    6    6    0    0  0.40350376912E+02 -0.30919049263E+02  0.39072965192E+02  0.64115810322E+02  0.00000000000E+00 0.  1.
<mgrwt>
<rscale>  2 0.17844851E+03</rscale>
<asrwt>0</asrwt>
<pdfrwt beam="1">  1       21 0.45077350E-01 0.17885818E+03</pdfrwt>
<pdfrwt beam="2">  1       21 0.34268801E-01 0.17885818E+03</pdfrwt>
<totfact> 0.39018123E+04</totfact>
</mgrwt>
</event>
<event>
12    1  0.1074575E-001  0.1934103E+03  0.7546771E-02  0.1155462E+00
         21   -1    0    0  501  502  0.00000000000E+00  0.00000000000E+00  0.83587280626E+02  0.83587280626E+02  0.00000000000E+00 0. -1.
         21   -1    0    0  502  503 -0.00000000000E+00 -0.00000000000E+00 -0.51225946863E+03  0.51225946863E+03  0.00000000000E+00 0.  1.
         -6    2    1    2    0  503 -0.82835897525E+02  0.12914014574E+02 -0.32050407019E+03  0.37424379029E+03  0.17408905156E+03 0.  0.
        -24    2    3    3    0    0 -0.67299747740E+02  0.41640907331E+01 -0.33487304780E+03  0.35086665114E+03  0.80130225541E+02 0.  0.
          6    2    1    2  501    0  0.82835897525E+02 -0.12914014574E+02 -0.10816811781E+03  0.22160295896E+03  0.17429564544E+03 0.  0.
         24    2    5    5    0    0  0.12348201945E+03 -0.13840075787E+02 -0.10395468243E+03  0.18045921273E+03  0.79495878102E+02 0.  0.
          5    1    5    5  501    0 -0.40646121921E+02  0.92606121317E+00 -0.42134353846E+01  0.41143746236E+02  0.47000000000E+01 0. -1.
        -13    1    6    6    0    0  0.98646783215E+02  0.21348880342E+02 -0.89874559195E+02  0.13514584315E+03  0.00000000000E+00 0.  1.
         14    1    6    6    0    0  0.24835236232E+02 -0.35188956129E+02 -0.14080123233E+02  0.45313369577E+02  0.00000000000E+00 0. -1.
         -5    1    3    3    0  503 -0.15536149786E+02  0.87499238408E+01  0.14368977606E+02  0.23377139150E+02  0.47000000000E+01 0.  1.
         13    1    4    4    0    0 -0.44547775755E+02  0.20404033680E+02 -0.75592384149E+02  0.90083502687E+02  0.00000000000E+00 0. -1.
        -14    1    4    4    0    0 -0.22751971985E+02 -0.16239942947E+02 -0.25928066365E+03  0.26078314846E+03  0.00000000000E+00 0.  1.
<mgrwt>
<rscale>  2 0.19336371E+03</rscale>
<asrwt>0</asrwt>
<pdfrwt beam="1">  1       21 0.12859582E-01 0.19341026E+03</pdfrwt>
<pdfrwt beam="2">  1       21 0.78809149E-01 0.19341026E+03</pdfrwt>
<totfact> 0.73724436E+04</totfact>
</mgrwt>
</event>
<event>
12    1  0.1074575E-001  0.2221723E+03  0.7546771E-02  0.1132421E+00
         21   -1    0    0  501  502  0.00000000000E+00  0.00000000000E+00  0.42883929156E+03  0.42883929156E+03  0.00000000000E+00 0.  1.
         21   -1    0    0  502  503 -0.00000000000E+00 -0.00000000000E+00 -0.19326481467E+03  0.19326481467E+03  0.00000000000E+00 0.  1.
         -6    2    1    2    0  503 -0.76146279469E+02  0.11705863351E+03 -0.80673344881E+02  0.23561578856E+03  0.17177203408E+03 0.  0.
        -24    2    3    3    0    0 -0.49703096727E+02  0.29347368908E+02 -0.10222046279E+03  0.14138799998E+03  0.78802776845E+02 0.  0.
          6    2    1    2  501    0  0.76146279469E+02 -0.11705863351E+03  0.31624782177E+03  0.38648831767E+03  0.17279917640E+03 0.  0.
         24    2    5    5    0    0  0.45583951023E+02 -0.57381714223E+02  0.29765055658E+03  0.31675067440E+03  0.79778306476E+02 0.  0.
          5    1    5    5  501    0  0.30562328446E+02 -0.59676919285E+02  0.18597265188E+02  0.69737643263E+02  0.47000000000E+01 0. -1.
        -13    1    6    6    0    0  0.39848825346E+02  0.57541803215E+01  0.73471036157E+02  0.83779667143E+02  0.00000000000E+00 0.  1.
         14    1    6    6    0    0  0.57351256769E+01 -0.63135894544E+02  0.22417952042E+03  0.23297100726E+03  0.00000000000E+00 0. -1.
         -5    1    3    3    0  503 -0.26443182742E+02  0.87711264600E+02  0.21547117912E+02  0.94227788584E+02  0.47000000000E+01 0.  1.
         11    1    4    4    0    0  0.21391905752E+02  0.65992435346E+01 -0.17077290546E+02  0.28156659946E+02  0.00000000000E+00 0. -1.
        -12    1    4    4    0    0 -0.71095002479E+02  0.22748125373E+02 -0.85143172247E+02  0.11323134003E+03  0.00000000000E+00 0.  1.
<mgrwt>
<rscale>  2 0.22197255E+03</rscale>
<asrwt>0</asrwt>
<pdfrwt beam="1">  1       21 0.65975276E-01 0.22217231E+03</pdfrwt>
<pdfrwt beam="2">  1       21 0.29733048E-01 0.22217231E+03</pdfrwt>
<totfact> 0.22497339E+04</totfact>
</mgrwt>
</event>
<event>
12    1  0.1074575E-001  0.2128629E+03  0.7546771E-02  0.1139536E+00
         21   -1    0    0  503  502  0.00000000000E+00  0.00000000000E+00  0.87888014948E+02  0.87888014948E+02  0.00000000000E+00 0. -1.
         21   -1    0    0  501  503 -0.00000000000E+00 -0.00000000000E+00 -0.61238410007E+03  0.61238410007E+03  0.00000000000E+00 0. -1.
          6    2    1    2  501    0 -0.10804714179E+03 -0.54997340319E+02 -0.40282926550E+03  0.45509167508E+03  0.17360335048E+03 0.  0.
         24    2    3    3    0    0  0.10868721786E+02 -0.12499883615E+02 -0.19884391014E+03  0.21513515478E+03  0.80435427628E+02 0.  0.
         -6    2    1    2    0  502  0.10804714179E+03  0.54997340319E+02 -0.12166681963E+03  0.24518043994E+03  0.17496211258E+03 0.  0.
        -24    2    5    5    0    0  0.14229476798E+03  0.31549692036E+02 -0.11618503436E+03  0.20305168397E+03  0.80547129607E+02 0.  0.
          5    1    3    3  501    0 -0.11891586358E+03 -0.42497456705E+02 -0.20398535536E+03  0.23995652030E+03  0.47000000000E+01 0. -1.
        -13    1    4    4    0    0 -0.77268302093E+01 -0.20640754961E+02 -0.19265734814E+03  0.19391389446E+03  0.00000000000E+00 0.  1.
         14    1    4    4    0    0  0.18595551996E+02  0.81408713456E+01 -0.61865620001E+01  0.21221260322E+02  0.00000000000E+00 0. -1.
         -5    1    5    5    0  502 -0.34247626195E+02  0.23447648283E+02 -0.54817852640E+01  0.42128755972E+02  0.47000000000E+01 0.  1.
         11    1    6    6    0    0  0.12317520413E+03  0.27320046789E+02 -0.12836643098E+03  0.17999015660E+03  0.00000000000E+00 0. -1.
        -12    1    6    6    0    0  0.19119563855E+02  0.42296452467E+01  0.12181396620E+02  0.23061527367E+02  0.00000000000E+00 0.  1.
<mgrwt>
<rscale>  2 0.21258354E+03</rscale>
<asrwt>0</asrwt>
<pdfrwt beam="1">  1       21 0.13521233E-01 0.21286294E+03</pdfrwt>
<pdfrwt beam="2">  1       21 0.94212937E-01 0.21286294E+03</pdfrwt>
<totfact> 0.44263245E+04</totfact>
</mgrwt>
</event>
<event>
12    1  0.1074575E-001  0.2355441E+03  0.7546771E-02  0.1124307E+00
         21   -1    0    0  503  502  0.00000000000E+00  0.00000000000E+00  0.21825867482E+03  0.21825867482E+03  0.00000000000E+00 0.  1.
         21   -1    0    0  501  503 -0.00000000000E+00 -0.00000000000E+00 -0.33527845338E+03  0.33527845338E+03  0.00000000000E+00 0. -1.
          6    2    1    2  501    0  0.69094961932E+02 -0.14371593335E+03 -0.20136558153E+03  0.30334672892E+03  0.16137768513E+03 0.  0.
         24    2    3    3    0    0  0.83829591839E+02 -0.15522209875E+03 -0.13941228873E+03  0.23846374463E+03  0.79422105545E+02 0.  0.
         -6    2    1    2    0  502 -0.69094961932E+02  0.14371593335E+03  0.84345802973E+02  0.25019039928E+03  0.17335696740E+03 0.  0.
        -24    2    5    5    0    0 -0.15385602615E+02  0.13893179748E+02  0.69377596388E+02  0.10882286467E+03  0.81236862220E+02 0.  0.
          5    1    3    3  501    0 -0.14734629907E+02  0.11506165397E+02 -0.61953292805E+02  0.64882984288E+02  0.47000000000E+01 0. -1.
        -13    1    4    4    0    0  0.10382019946E+02 -0.34766476902E+02  0.49397343990E+01  0.36618236307E+02  0.00000000000E+00 0.  1.
         14    1    4    4    0    0  0.73447571893E+02 -0.12045562185E+03 -0.14435202312E+03  0.20184550833E+03  0.00000000000E+00 0. -1.
         -5    1    5    5    0  502 -0.53709359317E+02  0.12982275361E+03  0.14968206584E+02  0.14136753460E+03  0.47000000000E+01 0.  1.
         13    1    6    6    0    0 -0.36553588316E+02 -0.12152540154E+02  0.87146122414E+01  0.39494221317E+02  0.00000000000E+00 0. -1.
        -14    1    6    6    0    0  0.21167985700E+02  0.26045719901E+02  0.60662984147E+02  0.69328643354E+02  0.00000000000E+00 0.  1.
<mgrwt>
<rscale>  2 0.23334561E+03</rscale>
<asrwt>0</asrwt>
<pdfrwt beam="1">  1       21 0.33578258E-01 0.23554410E+03</pdfrwt>
<pdfrwt beam="2">  1       21 0.51581301E-01 0.23554410E+03</pdfrwt>
<totfact> 0.29830997E+04</totfact>
</mgrwt>
</event>
<event>
12    1  0.1074575E-001  0.2780809E+03  0.7546771E-02  0.1096877E+00
         21   -1    0    0  503  502  0.00000000000E+00  0.00000000000E+00  0.64276161255E+03  0.64276161255E+03  0.00000000000E+00 0.  1.
         21   -1    0    0  501  503 -0.00000000000E+00 -0.00000000000E+00 -0.13951561993E+03  0.13951561993E+03  0.00000000000E+00 0.  1.
          6    2    1    2  501    0 -0.18138214200E+03  0.11896696221E+03  0.10451350598E+03  0.29615320009E+03  0.17242686989E+03 0.  0.
         24    2    3    3    0    0 -0.19690686196E+03  0.83971769315E+02  0.11558702028E+03  0.25602349570E+03  0.79775314246E+02 0.  0.
         -6    2    1    2    0  502  0.18138214200E+03 -0.11896696221E+03  0.39873248664E+03  0.48612403238E+03  0.17400103283E+03 0.  0.
        -24    2    5    5    0    0  0.77046436447E+02 -0.61924731029E+02  0.31689388548E+03  0.34169618801E+03  0.81016816543E+02 0.  0.
          5    1    3    3  501    0  0.15524719961E+02  0.34995192895E+02 -0.11073514306E+02  0.40129704393E+02  0.47000000000E+01 0. -1.
        -13    1    4    4    0    0 -0.12851679182E+03  0.60330899601E+02  0.32127855221E+02  0.14556298399E+03  0.00000000000E+00 0.  1.
         14    1    4    4    0    0 -0.68390070141E+02  0.23640869714E+02  0.83459165062E+02  0.11046051171E+03  0.00000000000E+00 0. -1.
         -5    1    5    5    0  502  0.10433570555E+03 -0.57042231181E+02  0.81838601156E+02  0.14442784437E+03  0.47000000000E+01 0.  1.
         13    1    6    6    0    0 -0.89494279784E+01 -0.22116984831E+02  0.23948596028E+02  0.33805155389E+02  0.00000000000E+00 0. -1.
        -14    1    6    6    0    0  0.85995864425E+02 -0.39807746199E+02  0.29294528945E+03  0.30789103262E+03  0.00000000000E+00 0.  1.
<mgrwt>
<rscale>  2 0.27783499E+03</rscale>
<asrwt>0</asrwt>
<pdfrwt beam="1">  1       21 0.98886400E-01 0.27808089E+03</pdfrwt>
<pdfrwt beam="2">  1       21 0.21463942E-01 0.27808089E+03</pdfrwt>
<totfact> 0.16260383E+04</totfact>
</mgrwt>
</event>
<event>
12    1  0.1074575E-001  0.2366911E+03  0.7546771E-02  0.1122199E+00
         21   -1    0    0  501  502  0.00000000000E+00  0.00000000000E+00  0.12468622851E+03  0.12468622851E+03  0.00000000000E+00 0. -1.
         21   -1    0    0  502  503 -0.00000000000E+00 -0.00000000000E+00 -0.46559421250E+03  0.46559421250E+03  0.00000000000E+00 0. -1.
         -6    2    1    2    0  503 -0.60537594081E+02 -0.14733596309E+03 -0.22936969123E+03  0.32959543757E+03  0.17507144511E+03 0.  0.
        -24    2    3    3    0    0 -0.10808729315E+02 -0.99217020685E+02 -0.50463988090E+02  0.13771596179E+03  0.80363089870E+02 0.  0.
          6    2    1    2  501    0  0.60537594081E+02  0.14733596309E+03 -0.11153829276E+03  0.26068500344E+03  0.17361795400E+03 0.  0.
         24    2    5    5    0    0  0.89446097371E+02  0.98820099335E+02 -0.13545933819E+03  0.19917242739E+03  0.59618849032E+02 0.  0.
          5    1    5    5  501    0 -0.28908503290E+02  0.48515863756E+02  0.23921045430E+02  0.61512576055E+02  0.47000000000E+01 0. -1.
        -13    1    6    6    0    0  0.46843194210E+02  0.34582500122E+02 -0.22504407476E+02  0.62423413191E+02  0.00000000000E+00 0.  1.
         14    1    6    6    0    0  0.42602903161E+02  0.64237599213E+02 -0.11295493072E+03  0.13674901420E+03  0.00000000000E+00 0. -1.
         -5    1    3    3    0  503 -0.49728864766E+02 -0.48118942405E+02 -0.17890570314E+03  0.19187947578E+03  0.47000000000E+01 0.  1.
         11    1    4    4    0    0 -0.27643514470E+02 -0.53038226922E+02 -0.63125097301E+02  0.86959733880E+02  0.00000000000E+00 0. -1.
        -12    1    4    4    0    0  0.16834785156E+02 -0.46178793763E+02  0.12661109211E+02  0.50756227905E+02  0.00000000000E+00 0.  1.
<mgrwt>
<rscale>  2 0.23642242E+03</rscale>
<asrwt>0</asrwt>
<pdfrwt beam="1">  1       21 0.19182496E-01 0.23669114E+03</pdfrwt>
<pdfrwt beam="2">  1       21 0.71629880E-01 0.23669114E+03</pdfrwt>
<totfact> 0.43017893E+04</totfact>
</mgrwt>
</event>
<event>
12    1  0.1074575E-001  0.2005292E+03  0.7546771E-02  0.1152109E+00
         21   -1    0    0  503  502  0.00000000000E+00  0.00000000000E+00  0.95693225386E+02  0.95693225386E+02  0.00000000000E+00 0.  1.
         21   -1    0    0  501  503 -0.00000000000E+00 -0.00000000000E+00 -0.39677781927E+03  0.39677781927E+03  0.00000000000E+00 0. -1.
          6    2    1    2  501    0 -0.15103550958E+01 -0.75248669601E+02 -0.12342380096E+03  0.22456187226E+03  0.17184282463E+03 0.  0.
         24    2    3    3    0    0 -0.20509097531E+02 -0.11286904153E+03 -0.10577722055E+03  0.17863000534E+03  0.86947195481E+02 0.  0.
         -6    2    1    2    0  502  0.15103550958E+01  0.75248669601E+02 -0.17766079292E+03  0.26790917240E+03  0.18586910412E+03 0.  0.
        -24    2    5    5    0    0  0.25151135084E+02  0.93053410516E+02 -0.19635636456E+03  0.23258906939E+03  0.79059069632E+02 0.  0.
          5    1    3    3  501    0  0.18998742435E+02  0.37620371931E+02 -0.17646580407E+02  0.45931866916E+02  0.47000000000E+01 0. -1.
        -11    1    4    4    0    0  0.24831210182E+02 -0.79636458580E+01 -0.56364775182E+01  0.26679177897E+02  0.00000000000E+00 0.  1.
         12    1    4    4    0    0 -0.45340307713E+02 -0.10490539567E+03 -0.10014074304E+03  0.15195082744E+03  0.00000000000E+00 0. -1.
         -5    1    5    5    0  502 -0.23640779988E+02 -0.17804740915E+02  0.18695571641E+02  0.35320103008E+02  0.47000000000E+01 0.  1.
         11    1    6    6    0    0 -0.19304434359E+02  0.20008464891E+02 -0.13888417670E+02  0.31078738690E+02  0.00000000000E+00 0. -1.
        -12    1    6    6    0    0  0.44455569443E+02  0.73044945625E+02 -0.18246794689E+03  0.20151033070E+03  0.00000000000E+00 0.  1.
<mgrwt>
<rscale>  2 0.19721627E+03</rscale>
<asrwt>0</asrwt>
<pdfrwt beam="1">  1       21 0.14722035E-01 0.20052922E+03</pdfrwt>
<pdfrwt beam="2">  1       21 0.61042741E-01 0.20052922E+03</pdfrwt>
<totfact> 0.10101725E+05</totfact>
</mgrwt>
</event>
<event>
12    1  0.1074575E-001  0.2772453E+03  0.7546771E-02  0.1097293E+00
         21   -1    0    0  501  502  0.00000000000E+00  0.00000000000E+00  0.93662945992E+03  0.93662945992E+03  0.00000000000E+00 0.  1.
         21   -1    0    0  502  503 -0.00000000000E+00 -0.00000000000E+00 -0.11858605474E+03  0.11858605474E+03  0.00000000000E+00 0. -1.
         -6    2    1    2    0  503  0.20866146884E+03  0.57414158197E+02  0.11513127643E+03  0.29960290358E+03  0.17225183565E+03 0.  0.
        -24    2    3    3    0    0  0.59256730881E+02 -0.11441211814E+02  0.85741292222E+02  0.13242425999E+03  0.80884819086E+02 0.  0.
          6    2    1    2  501    0 -0.20866146884E+03 -0.57414158197E+02  0.70291212874E+03  0.75561261107E+03  0.17328866995E+03 0.  0.
         24    2    5    5    0    0 -0.12886338410E+03 -0.20203861879E+02  0.60064910048E+03  0.62058610467E+03  0.85637629645E+02 0.  0.
          5    1    5    5  501    0 -0.79798084738E+02 -0.37210296318E+02  0.10226302827E+03  0.13502650640E+03  0.47000000000E+01 0. -1.
        -13    1    6    6    0    0 -0.11820819246E+03 -0.29587096063E+02  0.59097183745E+03  0.60340391586E+03  0.00000000000E+00 0.  1.
         14    1    6    6    0    0 -0.10655191642E+02  0.93832341842E+01  0.96772630316E+01  0.17182188815E+02  0.00000000000E+00 0. -1.
         -5    1    3    3    0  503  0.14940473796E+03  0.68855370011E+02  0.29389984213E+02  0.16717864360E+03  0.47000000000E+01 0.  1.
         11    1    4    4    0    0  0.47003399895E+00  0.50751407939E+01 -0.14321416434E+02  0.15201347135E+02  0.00000000000E+00 0. -1.
        -12    1    4    4    0    0  0.58786696882E+02 -0.16516352608E+02  0.10006270866E+03  0.11722291285E+03  0.00000000000E+00 0.  1.
<mgrwt>
<rscale>  2 0.27708344E+03</rscale>
<asrwt>0</asrwt>
<pdfrwt beam="1">  1       21 0.14409684E+00 0.27724530E+03</pdfrwt>
<pdfrwt beam="2">  1       21 0.18244009E-01 0.27724530E+03</pdfrwt>
<totfact> 0.86029250E+03</totfact>
</mgrwt>
</event>
<event>
12    1  0.1074575E-001  0.1772647E+03  0.7546771E-02  0.1170899E+00
         21   -1    0    0  501  502  0.00000000000E+00  0.00000000000E+00  0.15890632821E+02  0.15890632821E+02  0.00000000000E+00 0. -1.
         21   -1    0    0  502  503 -0.00000000000E+00 -0.00000000000E+00 -0.20790700575E+04  0.20790700575E+04  0.00000000000E+00 0. -1.
         -6    2    1    2    0  503 -0.32007775530E+02 -0.10284756180E+02 -0.12885289951E+04  0.13006651232E+04  0.17404745749E+03 0.  0.
        -24    2    3    3    0    0 -0.65413159032E+02  0.41960224034E+02 -0.68857922205E+03  0.69750073612E+03  0.79538607389E+02 0.  0.
          6    2    1    2  501    0  0.32007775530E+02  0.10284756180E+02 -0.77465042953E+03  0.79429556712E+03  0.17231333691E+03 0.  0.
         24    2    5    5    0    0  0.57340480054E+02  0.36655181112E+02 -0.72504306359E+03  0.73248839938E+03  0.78868740341E+02 0.  0.
          5    1    5    5  501    0 -0.25332704523E+02 -0.26370424932E+02 -0.49607365936E+02  0.61807167745E+02  0.47000000000E+01 0. -1.
        -11    1    6    6    0    0 -0.19986069565E+02  0.57764288263E+01 -0.13228555724E+03  0.13391145867E+03  0.00000000000E+00 0.  1.
         12    1    6    6    0    0  0.77326549618E+02  0.30878752286E+02 -0.59275750635E+03  0.59857694071E+03  0.00000000000E+00 0. -1.
         -5    1    3    3    0  503  0.33405383501E+02 -0.52244980214E+02 -0.59994977308E+03  0.60316438706E+03  0.47000000000E+01 0.  1.
         13    1    4    4    0    0 -0.68303448851E+02  0.24568423450E+02 -0.65958457401E+03  0.66356671015E+03  0.00000000000E+00 0. -1.
        -14    1    4    4    0    0  0.28902898190E+01  0.17391800584E+02 -0.28994648046E+02  0.33934025964E+02  0.00000000000E+00 0.  1.
<mgrwt>
<rscale>  2 0.17683762E+03</rscale>
<asrwt>0</asrwt>
<pdfrwt beam="1">  1       21 0.24447141E-02 0.17726475E+03</pdfrwt>
<pdfrwt beam="2">  1       21 0.31985676E+00 0.17726475E+03</pdfrwt>
<totfact> 0.23633137E+04</totfact>
</mgrwt>
</event>
<event>
12    1  0.1074575E-001  0.1753806E+03  0.7546771E-02  0.1172484E+00
         21   -1    0    0  501  502  0.00000000000E+00  0.00000000000E+00  0.23617110453E+03  0.23617110453E+03  0.00000000000E+00 0.  1.
         21   -1    0    0  502  503 -0.00000000000E+00 -0.00000000000E+00 -0.53898832363E+03  0.53898832363E+03  0.00000000000E+00 0.  1.
         -6    2    1    2    0  503  0.12094325591E+02 -0.19583302416E+02 -0.48903709050E+03  0.51935445874E+03  0.17332628042E+03 0.  0.
        -24    2    3    3    0    0  0.18988757051E+02  0.51361278485E+02 -0.20717689386E+03  0.22858319607E+03  0.79557893103E+02 0.  0.
          6    2    1    2  501    0 -0.12094325591E+02  0.19583302416E+02  0.18621987139E+03  0.25580496942E+03  0.17386363460E+03 0.  0.
         24    2    5    5    0    0  0.22888546329E+02 -0.52194233705E+02  0.10614894581E+03  0.14262697181E+03  0.76333025670E+02 0.  0.
          5    1    5    5  501    0 -0.34982871920E+02  0.71777536121E+02  0.80070925583E+02  0.11317799761E+03  0.47000000000E+01 0. -1.
        -13    1    6    6    0    0 -0.11007929277E+02  0.15283850290E+02  0.29717657797E+02  0.35183941956E+02  0.00000000000E+00 0.  1.
         14    1    6    6    0    0  0.33896475607E+02 -0.67478083995E+02  0.76431288009E+02  0.10744302986E+03  0.00000000000E+00 0. -1.
         -5    1    3    3    0  503 -0.68944314600E+01 -0.70944580901E+02 -0.28186019663E+03  0.29077126266E+03  0.47000000000E+01 0.  1.
         11    1    4    4    0    0  0.40154021128E+02  0.54262854017E+02 -0.18844480610E+03  0.20017054650E+03  0.00000000000E+00 0. -1.
        -12    1    4    4    0    0 -0.21165264078E+02 -0.29015755319E+01 -0.18732087762E+02  0.28412649577E+02  0.00000000000E+00 0.  1.
<mgrwt>
<rscale>  2 0.17524724E+03</rscale>
<asrwt>0</asrwt>
<pdfrwt beam="1">  1       21 0.36334016E-01 0.17538056E+03</pdfrwt>
<pdfrwt beam="2">  1       21 0.82921280E-01 0.17538056E+03</pdfrwt>
<totfact> 0.93775153E+03</totfact>
</mgrwt>
</event>
<event>
12    1  0.1074575E-001  0.2156072E+03  0.7546771E-02  0.1137243E+00
         21   -1    0    0  501  502  0.00000000000E+00  0.00000000000E+00  0.13540514110E+03  0.13540514110E+03  0.00000000000E+00 0.  1.
         21   -1    0    0  502  503 -0.00000000000E+00 -0.00000000000E+00 -0.97798231531E+03  0.97798231531E+03  0.00000000000E+00 0.  1.
         -6    2    1    2    0  503  0.62595402736E+02 -0.11314314897E+03 -0.86979673389E+03  0.89606886289E+03  0.17225995516E+03 0.  0.
        -24    2    3    3    0    0  0.47846995360E+02 -0.33613243877E+02 -0.22772897583E+03  0.24890920928E+03  0.81707544948E+02 0.  0.
          6    2    1    2  501    0 -0.62595402736E+02  0.11314314897E+03  0.27219559682E+02  0.21731859351E+03  0.17253089594E+03 0.  0.
         24    2    5    5    0    0  0.21246171430E+02  0.10138486982E+03  0.23310046927E+02  0.13243608072E+03  0.79155957200E+02 0.  0.
          5    1    5    5  501    0 -0.83841574166E+02  0.11758279148E+02  0.39095127547E+01  0.84882512787E+02  0.47000000000E+01 0. -1.
        -13    1    6    6    0    0  0.18614813074E+02  0.59763191703E+02  0.52363216127E+02  0.81609170755E+02  0.00000000000E+00 0.  1.
         14    1    6    6    0    0  0.26313583563E+01  0.41621678122E+02 -0.29053169200E+02  0.50826909969E+02  0.00000000000E+00 0. -1.
         -5    1    3    3    0  503  0.14748407376E+02 -0.79529905095E+02 -0.64206775806E+03  0.64715965361E+03  0.47000000000E+01 0.  1.
         13    1    4    4    0    0 -0.39110614744E+01  0.22924126226E+02 -0.64901021794E+02  0.68941675313E+02  0.00000000000E+00 0. -1.
        -14    1    4    4    0    0  0.51758056835E+02 -0.56537370103E+02 -0.16282795404E+03  0.17996753396E+03  0.00000000000E+00 0.  1.
<mgrwt>
<rscale>  2 0.21555300E+03</rscale>
<asrwt>0</asrwt>
<pdfrwt beam="1">  1       21 0.20831560E-01 0.21560720E+03</pdfrwt>
<pdfrwt beam="2">  1       21 0.15045882E+00 0.21560720E+03</pdfrwt>
<totfact> 0.62275268E+03</totfact>
</mgrwt>
</event>
<event>
12    1  0.1074575E-001  0.2651402E+03  0.7546771E-02  0.1104261E+00
         21   -1    0    0  501  502  0.00000000000E+00  0.00000000000E+00  0.17781794145E+04  0.17781794145E+04  0.00000000000E+00 0. -1.
         21   -1    0    0  502  503 -0.00000000000E+00 -0.00000000000E+00 -0.13625103666E+03  0.13625103666E+03  0.00000000000E+00 0. -1.
         -6    2    1    2    0  503 -0.77219656865E+02  0.18280724345E+03  0.14293911944E+02  0.26552518090E+03  0.17583498545E+03 0.  0.
        -24    2    3    3    0    0 -0.11351909831E+03  0.14333077322E+03 -0.20886353548E+02  0.20121513323E+03  0.81369489639E+02 0.  0.
          6    2    1    2  501    0  0.77219656865E+02 -0.18280724345E+03  0.16276344659E+04  0.16489052702E+04  0.17410707074E+03 0.  0.
         24    2    5    5    0    0 -0.68517540220E+01 -0.13928076819E+03  0.12163235450E+04  0.12268136690E+04  0.78630359969E+02 0.  0.
          5    1    5    5  501    0  0.84071410887E+02 -0.43526475254E+02  0.41131092091E+03  0.42209160124E+03  0.47000000000E+01 0. -1.
        -11    1    6    6    0    0  0.79149686613E+01 -0.86310671765E+02  0.99473602414E+03  0.99850485052E+03  0.00000000000E+00 0.  1.
         12    1    6    6    0    0 -0.14766722683E+02 -0.52970096429E+02  0.22158752082E+03  0.22830881848E+03  0.00000000000E+00 0. -1.
         -5    1    3    3    0  503  0.36299441442E+02  0.39476470231E+02  0.35180265491E+02  0.64310047667E+02  0.47000000000E+01 0.  1.
         13    1    4    4    0    0 -0.28265405745E+02  0.42407485375E+02 -0.43715883819E+02  0.67144668260E+02  0.00000000000E+00 0. -1.
        -14    1    4    4    0    0 -0.85253692563E+02  0.10092328784E+03  0.22829530271E+02  0.13407046497E+03  0.00000000000E+00 0.  1.
<mgrwt>
<rscale>  2 0.26485401E+03</rscale>
<asrwt>0</asrwt>
<pdfrwt beam="1">  1       21 0.27356605E+00 0.26514016E+03</pdfrwt>
<pdfrwt beam="2">  1       21 0.20961699E-01 0.26514016E+03</pdfrwt>
<totfact> 0.94592227E+02</totfact>
</mgrwt>
</event>
<event>
12    1  0.1074575E-001  0.2285283E+03  0.7546771E-02  0.1128167E+00
         21   -1    0    0  503  502  0.00000000000E+00  0.00000000000E+00  0.46908736392E+03  0.46908736392E+03  0.00000000000E+00 0. -1.
         21   -1    0    0  501  503 -0.00000000000E+00 -0.00000000000E+00 -0.11557398126E+03  0.11557398126E+03  0.00000000000E+00 0.  1.
          6    2    1    2  501    0 -0.17702347232E+02 -0.14695285964E+03  0.11362366712E+03  0.25521664623E+03  0.17411686515E+03 0.  0.
         24    2    3    3    0    0 -0.11286918999E+02 -0.13342799691E+03  0.14914194949E+03  0.21638730148E+03  0.81545804562E+02 0.  0.
         -6    2    1    2    0  502  0.17702347232E+02  0.14695285964E+03  0.23988971553E+03  0.32944469895E+03  0.17052336496E+03 0.  0.
        -24    2    5    5    0    0 -0.32398210713E+02  0.15163141764E+03  0.17657332953E+03  0.24843229528E+03  0.80614724268E+02 0.  0.
          5    1    3    3  501    0 -0.64154282335E+01 -0.13524862725E+02 -0.35518282372E+02  0.38829344751E+02  0.47000000000E+01 0. -1.
        -11    1    4    4    0    0 -0.43010603171E+02 -0.10393351108E+03  0.11811603061E+03  0.16310574299E+03  0.00000000000E+00 0.  1.
         12    1    4    4    0    0  0.31723684172E+02 -0.29494485833E+02  0.31025918882E+02  0.53281558484E+02  0.00000000000E+00 0. -1.
         -5    1    5    5    0  502  0.50100557945E+02 -0.46785580000E+01  0.63316386007E+02  0.81012403669E+02  0.47000000000E+01 0.  1.
         11    1    6    6    0    0 -0.55664932134E+01  0.12048426785E+03  0.16737493882E+03  0.20630514969E+03  0.00000000000E+00 0. -1.
        -12    1    6    6    0    0 -0.26831717499E+02  0.31147149790E+02  0.91983907043E+01  0.42127145589E+02  0.00000000000E+00 0.  1.
<mgrwt>
<rscale>  2 0.22784379E+03</rscale>
<asrwt>0</asrwt>
<pdfrwt beam="1">  1       21 0.72167286E-01 0.22852833E+03</pdfrwt>
<pdfrwt beam="2">  1       21 0.17780613E-01 0.22852833E+03</pdfrwt>
<totfact> 0.48903274E+04</totfact>
</mgrwt>
</event>
<event>
12    1  0.1074575E-001  0.1743667E+03  0.7546771E-02  0.1174019E+00
         21   -1    0    0  503  502  0.00000000000E+00  0.00000000000E+00  0.95160389851E+03  0.95160389851E+03  0.00000000000E+00 0. -1.
         21   -1    0    0  501  503 -0.00000000000E+00 -0.00000000000E+00 -0.49303724439E+02  0.49303724439E+02  0.00000000000E+00 0. -1.
          6    2    1    2  501    0 -0.14947525579E+02 -0.11874852408E+02  0.15240989776E+03  0.23158699320E+03  0.17331854444E+03 0.  0.
         24    2    3    3    0    0  0.51044452444E+02  0.18695282379E+02  0.11851259874E+03  0.15120919039E+03  0.76576324605E+02 0.  0.
         -6    2    1    2    0  502  0.14947525579E+02  0.11874852408E+02  0.74989027632E+03  0.76932062975E+03  0.17074649104E+03 0.  0.
        -24    2    5    5    0    0  0.12033046235E+02  0.69788504907E+01  0.75553950877E+03  0.76002176681E+03  0.81238157025E+02 0.  0.
          5    1    3    3  501    0 -0.65991978023E+02 -0.30570134787E+02  0.33897299019E+02  0.80377802813E+02  0.47000000000E+01 0. -1.
        -13    1    4    4    0    0 -0.88802192000E+01 -0.63265911151E+01  0.68184931908E+02  0.69051205547E+02  0.00000000000E+00 0.  1.
         14    1    4    4    0    0  0.59924671644E+02  0.25021873495E+02  0.50327666832E+02  0.82157984843E+02  0.00000000000E+00 0. -1.
         -5    1    5    5    0  502  0.29144793434E+01  0.48960019171E+01 -0.56492324544E+01  0.92988629379E+01  0.47000000000E+01 0.  1.
         11    1    6    6    0    0  0.35851316631E+02 -0.24131516636E+02  0.40523017795E+03  0.40752808998E+03  0.00000000000E+00 0. -1.
        -12    1    6    6    0    0 -0.23818270396E+02  0.31110367127E+02  0.35030933082E+03  0.35249367683E+03  0.00000000000E+00 0.  1.
<mgrwt>
<rscale>  2 0.17372410E+03</rscale>
<asrwt>0</asrwt>
<pdfrwt beam="1">  1       21 0.14640059E+00 0.17436674E+03</pdfrwt>
<pdfrwt beam="2">  1       21 0.75851891E-02 0.17436674E+03</pdfrwt>
<totfact> 0.42385416E+04</totfact>
</mgrwt>
</event>
<event>
12    1  0.1074575E-001  0.2461364E+03  0.7546771E-02  0.1117251E+00
         21   -1    0    0  501  502  0.00000000000E+00  0.00000000000E+00  0.78011466836E+02  0.78011466836E+02  0.00000000000E+00 0. -1.
         21   -1    0    0  502  503 -0.00000000000E+00 -0.00000000000E+00 -0.17951647594E+04  0.17951647594E+04  0.00000000000E+00 0. -1.
         -6    2    1    2    0  503 -0.16182918769E+03 -0.13372070634E+02 -0.15803551336E+04  0.15994078478E+04  0.18497463928E+03 0.  0.
        -24    2    3    3    0    0 -0.32791090858E+01 -0.31807197353E+02 -0.44464474687E+03  0.45252592112E+03  0.77770868597E+02 0.  0.
          6    2    1    2  501    0  0.16182918769E+03  0.13372070634E+02 -0.13679815897E+03  0.27376837840E+03  0.17282329256E+03 0.  0.
         24    2    5    5    0    0  0.11014859197E+03  0.59342435631E+02 -0.38475017592E+02  0.15346173452E+03  0.80099563060E+02 0.  0.
          5    1    5    5  501    0  0.51680595722E+02 -0.45970364997E+02 -0.98323141379E+02  0.12030664388E+03  0.47000000000E+01 0. -1.
        -11    1    6    6    0    0  0.43978641791E+02  0.50849077436E+02  0.13893665655E+02  0.68649716352E+02  0.00000000000E+00 0.  1.
         12    1    6    6    0    0  0.66169950181E+02  0.84933581950E+01 -0.52368683247E+02  0.84812018166E+02  0.00000000000E+00 0. -1.
         -5    1    3    3    0  503 -0.15855007861E+03  0.18435126719E+02 -0.11357103867E+04  0.11468819267E+04  0.47000000000E+01 0.  1.
         13    1    4    4    0    0  0.74051559677E+01 -0.82947351675E+01 -0.40535891349E+03  0.40551139036E+03  0.00000000000E+00 0. -1.
        -14    1    4    4    0    0 -0.10684265054E+02 -0.23512462185E+02 -0.39285833381E+02  0.47014530756E+02  0.00000000000E+00 0.  1.
<mgrwt>
<rscale>  2 0.24385579E+03</rscale>
<asrwt>0</asrwt>
<pdfrwt beam="1">  1       21 0.12001765E-01 0.24613638E+03</pdfrwt>
<pdfrwt beam="2">  1       21 0.27617918E+00 0.24613638E+03</pdfrwt>
<totfact> 0.25965239E+03</totfact>
</mgrwt>
</event>
<event>
12    1  0.1074575E-001  0.1908739E+03  0.7546771E-02  0.1157779E+00
         21   -1    0    0  501  502  0.00000000000E+00  0.00000000000E+00  0.40824666447E+03  0.40824666447E+03  0.00000000000E+00 0. -1.
         21   -1    0    0  502  503 -0.00000000000E+00 -0.00000000000E+00 -0.12255891323E+03  0.12255891323E+03  0.00000000000E+00 0. -1.
         -6    2    1    2    0  503 -0.69060048108E+02 -0.40941100393E+02  0.28179388939E+03  0.34035368528E+03  0.17316862025E+03 0.  0.
        -24    2    3    3    0    0 -0.43069077545E+02  0.28840009174E+02  0.81572779326E+02  0.12668216935E+03  0.81899707784E+02 0.  0.
          6    2    1    2  501    0  0.69060048108E+02  0.40941100393E+02  0.38938618474E+01  0.19045189241E+03  0.17265948342E+03 0.  0.
         24    2    5    5    0    0  0.70429260284E+02  0.85198691767E+02 -0.85127587884E+01  0.14422826888E+03  0.92250900810E+02 0.  0.
          5    1    5    5  501    0 -0.13692121756E+01 -0.44257591374E+02  0.12406620636E+02  0.46223623526E+02  0.47000000000E+01 0. -1.
        -11    1    6    6    0    0 -0.14964641196E+02 -0.84732294892E+01 -0.12961213170E+00  0.17197467936E+02  0.00000000000E+00 0.  1.
         12    1    6    6    0    0  0.85393901480E+02  0.93671921256E+02 -0.83831466567E+01  0.12703080095E+03  0.00000000000E+00 0. -1.
         -5    1    3    3    0  503 -0.25990970563E+02 -0.69781109567E+02  0.20022111007E+03  0.21367151593E+03  0.47000000000E+01 0.  1.
         13    1    4    4    0    0 -0.12824667098E+02 -0.15975793366E+02 -0.80521594612E+01  0.22012163270E+02  0.00000000000E+00 0. -1.
        -14    1    4    4    0    0 -0.30244410446E+02  0.44815802540E+02  0.89624938787E+02  0.10467000608E+03  0.00000000000E+00 0.  1.
<mgrwt>
<rscale>  2 0.19075832E+03</rscale>
<asrwt>0</asrwt>
<pdfrwt beam="1">  1       21 0.62807179E-01 0.19087387E+03</pdfrwt>
<pdfrwt beam="2">  1       21 0.18855218E-01 0.19087387E+03</pdfrwt>
<totfact> 0.60539424E+04</totfact>
</mgrwt>
</event>
<event>
12    1  0.1074575E-001  0.2485051E+03  0.7546771E-02  0.1114315E+00
         21   -1    0    0  501  502  0.00000000000E+00  0.00000000000E+00  0.77068373566E+03  0.77068373566E+03  0.00000000000E+00 0.  1.
         21   -1    0    0  502  503 -0.00000000000E+00 -0.00000000000E+00 -0.94438226937E+02  0.94438226937E+02  0.00000000000E+00 0. -1.
         -6    2    1    2    0  503  0.13939623879E+03 -0.11113264763E+03  0.16923761703E+03  0.30065953381E+03  0.17312714256E+03 0.  0.
        -24    2    3    3    0    0  0.93136689195E+01 -0.47575607595E+02  0.32193180767E+02  0.10124980527E+03  0.82854929322E+02 0.  0.
          6    2    1    2  501    0 -0.13939623879E+03  0.11113264763E+03  0.50700789169E+03  0.56446242879E+03  0.17256608739E+03 0.  0.
         24    2    5    5    0    0 -0.15842747610E+03  0.11786511138E+03  0.49843734458E+03  0.54203346673E+03  0.79806283693E+02 0.  0.
          5    1    5    5  501    0  0.19031237304E+02 -0.67324637418E+01  0.85705471068E+01  0.22428962060E+02  0.47000000000E+01 0. -1.
        -13    1    6    6    0    0 -0.20265355093E+02  0.21417044515E+02  0.17369920525E+03  0.17618396158E+03  0.00000000000E+00 0.  1.
         14    1    6    6    0    0 -0.13816212100E+03  0.96448066860E+02  0.32473813933E+03  0.36584950515E+03  0.00000000000E+00 0. -1.
         -5    1    3    3    0  503  0.13008256987E+03 -0.63557040039E+02  0.13704443626E+03  0.19940972853E+03  0.47000000000E+01 0.  1.
         13    1    4    4    0    0  0.43687257143E+02 -0.23813993807E+02  0.21849468151E+01  0.49804183864E+02  0.00000000000E+00 0. -1.
        -14    1    4    4    0    0 -0.34373588224E+02 -0.23761613787E+02  0.30008233952E+02  0.51445621408E+02  0.00000000000E+00 0.  1.
<mgrwt>
<rscale>  2 0.24840740E+03</rscale>
<asrwt>0</asrwt>
<pdfrwt beam="1">  1       21 0.11856672E+00 0.24850510E+03</pdfrwt>
<pdfrwt beam="2">  1       21 0.14528958E-01 0.24850510E+03</pdfrwt>
<totfact> 0.21908485E+04</totfact>
</mgrwt>
</event>
<event>
12    1  0.1074575E-001  0.2452194E+03  0.7546771E-02  0.1116416E+00
         21   -1    0    0  501  502  0.00000000000E+00  0.00000000000E+00  0.39644431039E+02  0.39644431039E+02  0.00000000000E+00 0. -1.
         21   -1    0    0  502  503 -0.00000000000E+00 -0.00000000000E+00 -0.16409717493E+04  0.16409717493E+04  0.00000000000E+00 0. -1.
         -6    2    1    2    0  503  0.12464329954E+03 -0.12103344463E+03 -0.10331697405E+04  0.10617982866E+04  0.17260023687E+03 0.  0.
        -24    2    3    3    0    0  0.50073360313E+02  0.48526033223E+01 -0.33481543398E+03  0.34826566616E+03  0.81588664791E+02 0.  0.
          6    2    1    2  501    0 -0.12464329954E+03  0.12103344463E+03 -0.56815757773E+03  0.61881789377E+03  0.17305347636E+03 0.  0.
         24    2    5    5    0    0 -0.74618338057E+02  0.49218785208E+02 -0.48356508388E+03  0.49700729450E+03  0.72046340944E+02 0.  0.
          5    1    5    5  501    0 -0.50024961484E+02  0.71814659424E+02 -0.84592493842E+02  0.12181059927E+03  0.47000000000E+01 0. -1.
        -13    1    6    6    0    0 -0.48647748436E+02  0.11615096995E+02 -0.11222476742E+03  0.12286542365E+03  0.00000000000E+00 0.  1.
         14    1    6    6    0    0 -0.25970589620E+02  0.37603688213E+02 -0.37134031646E+03  0.37414187085E+03  0.00000000000E+00 0. -1.
         -5    1    3    3    0  503  0.74569939227E+02 -0.12588604795E+03 -0.69835430654E+03  0.71353262039E+03  0.47000000000E+01 0.  1.
         13    1    4    4    0    0  0.18569574729E+02 -0.35738056732E+02 -0.98245820908E+02  0.10618040841E+03  0.00000000000E+00 0. -1.
        -14    1    4    4    0    0  0.31503785584E+02  0.40590660054E+02 -0.23656961308E+03  0.24208525775E+03  0.00000000000E+00 0.  1.
<mgrwt>
<rscale>  2 0.24513945E+03</rscale>
<asrwt>0</asrwt>
<pdfrwt beam="1">  1       21 0.60991434E-02 0.24521940E+03</pdfrwt>
<pdfrwt beam="2">  1       21 0.25245719E+00 0.24521940E+03</pdfrwt>
<totfact> 0.11793198E+04</totfact>
</mgrwt>
</event>
<event>
12    1  0.1074575E-001  0.2087418E+03  0.7546771E-02  0.1143034E+00
         21   -1    0    0  501  502  0.00000000000E+00  0.00000000000E+00  0.20735159360E+03  0.20735159360E+03  0.00000000000E+00 0.  1.
         21   -1    0    0  502  503 -0.00000000000E+00 -0.00000000000E+00 -0.21329970293E+03  0.21329970293E+03  0.00000000000E+00 0. -1.
         -6    2    1    2    0  503 -0.35793657236E+02 -0.11073749302E+03 -0.36757148034E+02  0.21195331863E+03  0.17328918918E+03 0.  0.
        -24    2    3    3    0    0 -0.76269070152E+02 -0.87970437276E+02 -0.67311851264E+02  0.15616552635E+03  0.79378948114E+02 0.  0.
          6    2    1    2  501    0  0.35793657236E+02  0.11073749302E+03  0.30809038708E+02  0.20869797790E+03  0.17047483936E+03 0.  0.
         24    2    5    5    0    0 -0.11114923027E+02 -0.94111742028E-01  0.28310912568E+02  0.88230595798E+02  0.82822580819E+02 0.  0.
          5    1    5    5  501    0  0.46908580263E+02  0.11083160476E+03  0.24981261396E+01  0.12046738211E+03  0.47000000000E+01 0. -1.
        -11    1    6    6    0    0  0.34475442065E+02 -0.75531388761E+01  0.22041752251E+02  0.41610633914E+02  0.00000000000E+00 0.  1.
         12    1    6    6    0    0 -0.45590365092E+02  0.74590271341E+01  0.62691603170E+01  0.46619961884E+02  0.00000000000E+00 0. -1.
         -5    1    3    3    0  503  0.40475412915E+02 -0.22767055746E+02  0.30554703230E+02  0.55787792280E+02  0.47000000000E+01 0.  1.
         11    1    4    4    0    0 -0.18145647680E+02 -0.41540516419E+02 -0.68055365072E+02  0.81770482139E+02  0.00000000000E+00 0. -1.
        -12    1    4    4    0    0 -0.58123422472E+02 -0.46429920857E+02  0.74351380797E+00  0.74395044213E+02  0.00000000000E+00 0.  1.
<mgrwt>
<rscale>  2 0.20815670E+03</rscale>
<asrwt>0</asrwt>
<pdfrwt beam="1">  1       21 0.31900245E-01 0.20874176E+03</pdfrwt>
<pdfrwt beam="2">  1       21 0.32815339E-01 0.20874176E+03</pdfrwt>
<totfact> 0.83902331E+04</totfact>
</mgrwt>
</event>
<event>
12    1  0.1074575E-001  0.2062332E+03  0.7546771E-02  0.1145253E+00
         21   -1    0    0  501  502  0.00000000000E+00  0.00000000000E+00  0.11992396164E+04  0.11992396164E+04  0.00000000000E+00 0.  1.
         21   -1    0    0  502  503 -0.00000000000E+00 -0.00000000000E+00 -0.82507147676E+02  0.82507147676E+02  0.00000000000E+00 0. -1.
         -6    2    1    2    0  503  0.10949508056E+03  0.13534998203E+02  0.69696690424E+02  0.21459351900E+03  0.17035369352E+03 0.  0.
        -24    2    3    3    0    0  0.11604611198E+03  0.42464248780E+02 -0.39583909868E+01  0.13505121221E+03  0.54343799372E+02 0.  0.
          6    2    1    2  501    0 -0.10949508056E+03 -0.13534998203E+02  0.10470357783E+04  0.10671532451E+04  0.17424051938E+03 0.  0.
         24    2    5    5    0    0 -0.47333156866E+02  0.45209347560E+02  0.35989848738E+03  0.37469765120E+03  0.81160925030E+02 0.  0.
          5    1    5    5  501    0 -0.62161923697E+02 -0.58744345764E+02  0.68713729095E+03  0.69245559390E+03  0.47000000000E+01 0. -1.
        -11    1    6    6    0    0 -0.52776362640E+01  0.31029199842E+02  0.29129002287E+03  0.29298556639E+03  0.00000000000E+00 0.  1.
         12    1    6    6    0    0 -0.42055520602E+02  0.14180147718E+02  0.68608464514E+02  0.81712084819E+02  0.00000000000E+00 0. -1.
         -5    1    3    3    0  503 -0.65510314163E+01 -0.28929250576E+02  0.73655081411E+02  0.79542306788E+02  0.47000000000E+01 0.  1.
         11    1    4    4    0    0  0.17185507488E+02  0.63759054803E+01  0.19987281841E+02  0.27119831742E+02  0.00000000000E+00 0. -1.
        -12    1    4    4    0    0  0.98860604492E+02  0.36088343299E+02 -0.23945672828E+02  0.10793138047E+03  0.00000000000E+00 0.  1.
<mgrwt>
<rscale>  2 0.20540997E+03</rscale>
<asrwt>0</asrwt>
<pdfrwt beam="1">  1       21 0.18449839E+00 0.20623319E+03</pdfrwt>
<pdfrwt beam="2">  1       21 0.12693408E-01 0.20623319E+03</pdfrwt>
<totfact> 0.89031556E+03</totfact>
</mgrwt>
</event>
<event>
12    1  0.1074575E-001  0.1858838E+03  0.7546771E-02  0.1162704E+00
         21   -1    0    0  501  502  0.00000000000E+00  0.00000000000E+00  0.11987409462E+03  0.11987409462E+03  0.00000000000E+00 0.  1.
         21   -1    0    0  502  503 -0.00000000000E+00 -0.00000000000E+00 -0.33110985873E+03  0.33110985873E+03  0.00000000000E+00 0.  1.
         -6    2    1    2    0  503 -0.45994820064E+02  0.41645757714E+02 -0.19018858582E+03  0.26594075200E+03  0.17522240950E+03 0.  0.
        -24    2    3    3    0    0 -0.64097116657E+02  0.61563992866E+02 -0.60089296577E+02  0.13300338218E+03  0.78616859048E+02 0.  0.
          6    2    1    2  501    0  0.45994820064E+02 -0.41645757714E+02 -0.21047178291E+02  0.18504320135E+03  0.17305522253E+03 0.  0.
         24    2    5    5    0    0 -0.13977878741E+02 -0.78698179800E+02 -0.20688879707E+02  0.11439035313E+03  0.79172839708E+02 0.  0.
          5    1    5    5  501    0  0.59972698805E+02  0.37052422086E+02 -0.35829858344E+00  0.70652848225E+02  0.47000000000E+01 0. -1.
        -13    1    6    6    0    0  0.10133753763E+02 -0.48656450831E+02  0.24166410392E+02  0.55264442131E+02  0.00000000000E+00 0.  1.
         14    1    6    6    0    0 -0.24111632504E+02 -0.30041728969E+02 -0.44855290099E+02  0.59125910998E+02  0.00000000000E+00 0. -1.
         -5    1    3    3    0  503  0.18102296592E+02 -0.19918235153E+02 -0.13009928924E+03  0.13293736982E+03  0.47000000000E+01 0.  1.
         11    1    4    4    0    0 -0.71566259701E+01  0.15346570566E+01 -0.48977713535E+02  0.49521600244E+02  0.00000000000E+00 0. -1.
        -12    1    4    4    0    0 -0.56940490687E+02  0.60029335810E+02 -0.11111583041E+02  0.83481781935E+02  0.00000000000E+00 0.  1.
<mgrwt>
<rscale>  2 0.18537131E+03</rscale>
<asrwt>0</asrwt>
<pdfrwt beam="1">  1       21 0.18442168E-01 0.18588380E+03</pdfrwt>
<pdfrwt beam="2">  1       21 0.50939978E-01 0.18588380E+03</pdfrwt>
<totfact> 0.98633072E+04</totfact>
</mgrwt>
</event>
<event>
12    1  0.1074575E-001  0.1866555E+03  0.7546771E-02  0.1162762E+00
         21   -1    0    0  503  502  0.00000000000E+00  0.00000000000E+00  0.46727656590E+03  0.46727656590E+03  0.00000000000E+00 0. -1.
         21   -1    0    0  501  503 -0.00000000000E+00 -0.00000000000E+00 -0.22771152268E+03  0.22771152268E+03  0.00000000000E+00 0. -1.
          6    2    1    2  501    0  0.38495755640E+02  0.38338701106E+02 -0.16770066114E+03  0.24698625633E+03  0.17299398794E+03 0.  0.
         24    2    3    3    0    0  0.18896127355E+02 -0.41240932746E+02 -0.48703721176E+02  0.10241992113E+03  0.77845421345E+02 0.  0.
         -6    2    1    2    0  502 -0.38495755640E+02 -0.38338701106E+02  0.40726570437E+03  0.44800183225E+03  0.17857353819E+03 0.  0.
        -24    2    5    5    0    0  0.69095092833E+01  0.36258358937E+02  0.27550550707E+03  0.28985886200E+03  0.82173387054E+02 0.  0.
          5    1    3    3  501    0  0.19599628284E+02  0.79579633852E+02 -0.11899693996E+03  0.14456633520E+03  0.47000000000E+01 0. -1.
        -13    1    4    4    0    0  0.31996825778E+01 -0.19064356266E+02  0.20437857534E+02  0.28131719980E+02  0.00000000000E+00 0.  1.
         14    1    4    4    0    0  0.15696444778E+02 -0.22176576481E+02 -0.69141578710E+02  0.74288201147E+02  0.00000000000E+00 0. -1.
         -5    1    5    5    0  502 -0.45405264923E+02 -0.74597060043E+02  0.13176019729E+03  0.15814297025E+03  0.47000000000E+01 0.  1.
         13    1    6    6    0    0 -0.31358921863E+02 -0.34664935283E+01  0.65085002499E+02  0.72328805521E+02  0.00000000000E+00 0. -1.
        -14    1    6    6    0    0  0.38268431146E+02  0.39724852465E+02  0.21042050458E+03  0.21753005648E+03  0.00000000000E+00 0.  1.
<mgrwt>
<rscale>  2 0.18530835E+03</rscale>
<asrwt>0</asrwt>
<pdfrwt beam="1">  1       21 0.71888702E-01 0.18665553E+03</pdfrwt>
<pdfrwt beam="2">  1       21 0.35032542E-01 0.18665553E+03</pdfrwt>
<totfact> 0.13776019E+04</totfact>
</mgrwt>
</event>
<event>
12    1  0.1074575E-001  0.2003778E+03  0.7546771E-02  0.1149675E+00
         21   -1    0    0  501  502  0.00000000000E+00  0.00000000000E+00  0.60505053394E+02  0.60505053394E+02  0.00000000000E+00 0.  1.
         21   -1    0    0  502  503 -0.00000000000E+00 -0.00000000000E+00 -0.10950306941E+04  0.10950306941E+04  0.00000000000E+00 0.  1.
         -6    2    1    2    0  503 -0.63852839955E+02 -0.74865010861E+02 -0.88252476636E+03  0.90498687363E+03  0.17455464241E+03 0.  0.
        -24    2    3    3    0    0 -0.44722914184E+02  0.29574396731E+02 -0.40892378324E+03  0.41960709950E+03  0.77308948135E+02 0.  0.
          6    2    1    2  501    0  0.63852839955E+02  0.74865010861E+02 -0.15200087430E+03  0.25054887382E+03  0.17317193006E+03 0.  0.
         24    2    5    5    0    0  0.28184178021E+02  0.11172547377E+03 -0.79718647697E+02  0.16179214194E+03  0.80899351189E+02 0.  0.
          5    1    5    5  501    0  0.35668661934E+02 -0.36860462913E+02 -0.72282226603E+02  0.88756731874E+02  0.47000000000E+01 0. -1.
        -11    1    6    6    0    0 -0.60802832256E+01  0.89859280062E+01  0.14590683524E+02  0.18182540855E+02  0.00000000000E+00 0.  1.
         12    1    6    6    0    0  0.34264461246E+02  0.10273954577E+03 -0.94309331221E+02  0.14360960109E+03  0.00000000000E+00 0. -1.
         -5    1    3    3    0  503 -0.19129925771E+02 -0.10443940759E+03 -0.47360098313E+03  0.48537977413E+03  0.47000000000E+01 0.  1.
         13    1    4    4    0    0 -0.55381888393E+02 -0.56086630983E+01 -0.28319747381E+03  0.28861638872E+03  0.00000000000E+00 0. -1.
        -14    1    4    4    0    0  0.10658974209E+02  0.35183059829E+02 -0.12572630943E+03  0.13099071078E+03  0.00000000000E+00 0.  1.
<mgrwt>
<rscale>  2 0.20007632E+03</rscale>
<asrwt>0</asrwt>
<pdfrwt beam="1">  1       21 0.93084696E-02 0.20037784E+03</pdfrwt>
<pdfrwt beam="2">  1       21 0.16846626E+00 0.20037784E+03</pdfrwt>
<totfact> 0.20031771E+04</totfact>
</mgrwt>
</event>
<event>
12    1  0.1074575E-001  0.2137861E+03  0.7546771E-02  0.1138604E+00
         21   -1    0    0  503  502  0.00000000000E+00  0.00000000000E+00  0.38477501409E+03  0.38477501409E+03  0.00000000000E+00 0. -1.
         21   -1    0    0  501  503 -0.00000000000E+00 -0.00000000000E+00 -0.52990234305E+03  0.52990234305E+03  0.00000000000E+00 0.  1.
          6    2    1    2  501    0  0.22583609072E+02 -0.12369189772E+03 -0.47539812126E+03  0.52125604028E+03  0.17290107249E+03 0.  0.
         24    2    3    3    0    0 -0.46273596611E+02 -0.61881109381E+02 -0.33520050002E+03  0.35321035800E+03  0.80172715727E+02 0.  0.
         -6    2    1    2    0  502 -0.22583609072E+02  0.12369189772E+03  0.33027079230E+03  0.39342131686E+03  0.17289254279E+03 0.  0.
        -24    2    5    5    0    0 -0.43042176653E+02  0.69431085022E+01  0.16675996513E+03  0.19141460070E+03  0.83245586459E+02 0.  0.
          5    1    3    3  501    0  0.68857205682E+02 -0.61810788336E+02 -0.14019762125E+03  0.16804568228E+03  0.47000000000E+01 0. -1.
        -13    1    4    4    0    0 -0.39942492312E+02 -0.27005167855E+01 -0.63492526121E+02  0.75059951747E+02  0.00000000000E+00 0.  1.
         14    1    4    4    0    0 -0.63311042988E+01 -0.59180592595E+02 -0.27170797390E+03  0.27815040626E+03  0.00000000000E+00 0. -1.
         -5    1    5    5    0  502  0.20458567581E+02  0.11674878921E+03  0.16351082717E+03  0.20200671616E+03  0.47000000000E+01 0.  1.
         11    1    6    6    0    0  0.14686139524E+02  0.22684759253E+02  0.90694146140E+02  0.94634608577E+02  0.00000000000E+00 0. -1.
        -12    1    6    6    0    0 -0.57728316177E+02 -0.15741650750E+02  0.76065818989E+02  0.96779992123E+02  0.00000000000E+00 0.  1.
<mgrwt>
<rscale>  2 0.21378435E+03</rscale>
<asrwt>0</asrwt>
<pdfrwt beam="1">  1       21 0.59196156E-01 0.21378607E+03</pdfrwt>
<pdfrwt beam="2">  1       21 0.81523437E-01 0.21378607E+03</pdfrwt>
<totfact> 0.34553359E+03</totfact>
</mgrwt>
</event>
<event>
12    1  0.1074575E-001  0.2530131E+03  0.7546771E-02  0.1112090E+00
         21   -1    0    0  501  502  0.00000000000E+00  0.00000000000E+00  0.45902532558E+02  0.45902532558E+02  0.00000000000E+00 0. -1.
         21   -1    0    0  502  503 -0.00000000000E+00 -0.00000000000E+00 -0.15527109224E+04  0.15527109224E+04  0.00000000000E+00 0.  1.
         -6    2    1    2    0  503  0.16212873129E+03 -0.75910536651E+02 -0.47427326514E+03  0.53553096030E+03  0.17265614477E+03 0.  0.
        -24    2    3    3    0    0  0.37033340524E+02 -0.14397755368E+02 -0.91583956051E+02  0.12821550964E+03  0.80453913744E+02 0.  0.
          6    2    1    2  501    0 -0.16212873129E+03  0.75910536651E+02 -0.10325351247E+04  0.10630824947E+04  0.17879449551E+03 0.  0.
         24    2    5    5    0    0 -0.31621153374E+01  0.40974405951E+02 -0.39800935858E+03  0.40799780083E+03  0.79761237766E+02 0.  0.
          5    1    5    5  501    0 -0.15896661595E+03  0.34936130700E+02 -0.63452576612E+03  0.65508469383E+03  0.47000000000E+01 0. -1.
        -13    1    6    6    0    0  0.26698327999E+02  0.75924315161E+01 -0.50598961327E+02  0.57712222463E+02  0.00000000000E+00 0.  1.
         14    1    6    6    0    0 -0.29860443337E+02  0.33381974435E+02 -0.34741039726E+03  0.35028557837E+03  0.00000000000E+00 0. -1.
         -5    1    3    3    0  503  0.12509539077E+03 -0.61512781284E+02 -0.38268930909E+03  0.40731545066E+03  0.47000000000E+01 0.  1.
         13    1    4    4    0    0  0.29808037723E+02 -0.26252144881E+02 -0.44342104745E+01  0.39966941918E+02  0.00000000000E+00 0. -1.
        -14    1    4    4    0    0  0.72253028010E+01  0.11854389513E+02 -0.87149745576E+02  0.88248567724E+02  0.00000000000E+00 0.  1.
<mgrwt>
<rscale>  2 0.25193118E+03</rscale>
<asrwt>0</asrwt>
<pdfrwt beam="1">  1       21 0.70619289E-02 0.25301306E+03</pdfrwt>
<pdfrwt beam="2">  1       21 0.23887858E+00 0.25301306E+03</pdfrwt>
<totfact> 0.10973828E+04</totfact>
</mgrwt>
</event>
<event>
12    1  0.1074575E-001  0.1777196E+03  0.7546771E-02  0.1170153E+00
         21   -1    0    0  503  502  0.00000000000E+00  0.00000000000E+00  0.54232166490E+03  0.54232166490E+03  0.00000000000E+00 0. -1.
         21   -1    0    0  501  503 -0.00000000000E+00 -0.00000000000E+00 -0.58718968650E+02  0.58718968650E+02  0.00000000000E+00 0. -1.
          6    2    1    2  501    0 -0.34797110381E+02 -0.19027264689E+02  0.27366671683E+03  0.32630924687E+03  0.17323792021E+03 0.  0.
         24    2    3    3    0    0 -0.14961612845E+02  0.50670223035E+02  0.10664064022E+03  0.14418020738E+03  0.81390323086E+02 0.  0.
         -6    2    1    2    0  502  0.34797110381E+02  0.19027264689E+02  0.20993597941E+03  0.27473138668E+03  0.17271752569E+03 0.  0.
        -24    2    5    5    0    0  0.61033397973E+02  0.67877342842E+02  0.16698149123E+03  0.20443308672E+03  0.74683727754E+02 0.  0.
          5    1    3    3  501    0 -0.19835497536E+02 -0.69697487724E+02  0.16702607661E+03  0.18212903949E+03  0.47000000000E+01 0. -1.
        -11    1    4    4    0    0  0.21301440928E+02 -0.12130866337E+02  0.27368095937E+02  0.36741284393E+02  0.00000000000E+00 0.  1.
         12    1    4    4    0    0 -0.36263053773E+02  0.62801089371E+02  0.79272544279E+02  0.10743892298E+03  0.00000000000E+00 0. -1.
         -5    1    5    5    0  502 -0.26236287593E+02 -0.48850078153E+02  0.42954488185E+02  0.70298299961E+02  0.47000000000E+01 0.  1.
         13    1    6    6    0    0  0.71858755721E+02  0.66647807487E+02  0.11397890033E+03  0.15032232281E+03  0.00000000000E+00 0. -1.
        -14    1    6    6    0    0 -0.10825357748E+02  0.12295353548E+01  0.53002590903E+02  0.54110763901E+02  0.00000000000E+00 0.  1.
<mgrwt>
<rscale>  2 0.17759265E+03</rscale>
<asrwt>0</asrwt>
<pdfrwt beam="1">  1       21 0.83434099E-01 0.17771959E+03</pdfrwt>
<pdfrwt beam="2">  1       21 0.90336879E-02 0.17771959E+03</pdfrwt>
<totfact> 0.12200459E+05</totfact>
</mgrwt>
</event>
<event>
12    1  0.1074575E-001  0.1809778E+03  0.7546771E-02  0.1167712E+00
         21   -1    0    0  503  502  0.00000000000E+00  0.00000000000E+00  0.50171859138E+03  0.50171859138E+03  0.00000000000E+00 0.  1.
         21   -1    0    0  501  503 -0.00000000000E+00 -0.00000000000E+00 -0.84851999376E+02  0.84851999376E+02  0.00000000000E+00 0. -1.
          6    2    1    2  501    0  0.11235968354E+02  0.38430069029E+02  0.64664633880E+02  0.19218340879E+03  0.17649314590E+03 0.  0.
         24    2    3    3    0    0 -0.28194046753E+02 -0.38096049944E+02  0.25545378087E+02  0.97508284551E+02  0.81296284791E+02 0.  0.
         -6    2    1    2    0  502 -0.11235968354E+02 -0.38430069029E+02  0.35220195812E+03  0.39438718196E+03  0.17289277833E+03 0.  0.
        -24    2    5    5    0    0 -0.18820227815E+02 -0.58775418885E+02  0.10214522028E+03  0.14334551930E+03  0.79407436912E+02 0.  0.
          5    1    3    3  501    0  0.39430015107E+02  0.76526118973E+02  0.39119255793E+02  0.94675124242E+02  0.47000000000E+01 0. -1.
        -13    1    4    4    0    0 -0.57371343082E+01 -0.31435157335E+02 -0.25801616707E+02  0.41070759080E+02  0.00000000000E+00 0.  1.
         14    1    4    4    0    0 -0.22456912445E+02 -0.66608926089E+01  0.51346994794E+02  0.56437525470E+02  0.00000000000E+00 0. -1.
         -5    1    5    5    0  502  0.75842594611E+01  0.20345349857E+02  0.25005673784E+03  0.25104166266E+03  0.47000000000E+01 0.  1.
         13    1    6    6    0    0 -0.76241799307E+01  0.19254714275E+02  0.30215411059E+02  0.36631178071E+02  0.00000000000E+00 0. -1.
        -14    1    6    6    0    0 -0.11196047885E+02 -0.78030133160E+02  0.71929809225E+02  0.10671434123E+03  0.00000000000E+00 0.  1.
<mgrwt>
<rscale>  2 0.18009396E+03</rscale>
<asrwt>0</asrwt>
<pdfrwt beam="1">  1       21 0.77187474E-01 0.18097775E+03</pdfrwt>
<pdfrwt beam="2">  1       21 0.13054154E-01 0.18097775E+03</pdfrwt>
<totfact> 0.75591009E+04</totfact>
</mgrwt>
</event>
<event>
12    1  0.1074575E-001  0.2210399E+03  0.7546771E-02  0.1133864E+00
         21   -1    0    0  503  502  0.00000000000E+00  0.00000000000E+00  0.10293642622E+03  0.10293642622E+03  0.00000000000E+00 0.  1.
         21   -1    0    0  501  503 -0.00000000000E+00 -0.00000000000E+00 -0.60761543218E+03  0.60761543218E+03  0.00000000000E+00 0. -1.
          6    2    1    2  501    0  0.11062609916E+03 -0.80255039399E+02 -0.42561126826E+03  0.47958689622E+03  0.17372286606E+03 0.  0.
         24    2    3    3    0    0  0.87781569231E+02 -0.36080237356E+02 -0.40516742637E+03  0.42561165787E+03  0.89315466185E+02 0.  0.
         -6    2    1    2    0  502 -0.11062609916E+03  0.80255039399E+02 -0.79067737699E+02  0.23096496218E+03  0.16856482861E+03 0.  0.
        -24    2    5    5    0    0 -0.94382932510E+02  0.12013641266E+03 -0.72799662281E+02  0.18719575879E+03  0.80009784919E+02 0.  0.
          5    1    3    3  501    0  0.22844529932E+02 -0.44174802043E+02 -0.20443841885E+02  0.53975238344E+02  0.47000000000E+01 0. -1.
        -13    1    4    4    0    0  0.32657028432E+02 -0.60551019994E+02 -0.24460191095E+03  0.25409250750E+03  0.00000000000E+00 0.  1.
         14    1    4    4    0    0  0.55124540798E+02  0.24470782637E+02 -0.16056551542E+03  0.17151915037E+03  0.00000000000E+00 0. -1.
         -5    1    5    5    0  502 -0.16243166653E+02 -0.39881373263E+02 -0.62680754178E+01  0.43769203394E+02  0.47000000000E+01 0.  1.
         13    1    6    6    0    0 -0.94948078795E+02  0.96729515136E+02 -0.85798727876E+02  0.16041558051E+03  0.00000000000E+00 0. -1.
        -14    1    6    6    0    0  0.56514628573E+00  0.23406897526E+02  0.12999065595E+02  0.26780178276E+02  0.00000000000E+00 0.  1.
<mgrwt>
<rscale>  2 0.22002533E+03</rscale>
<asrwt>0</asrwt>
<pdfrwt beam="1">  1       21 0.15836373E-01 0.22103990E+03</pdfrwt>
<pdfrwt beam="2">  1       21 0.93479299E-01 0.22103990E+03</pdfrwt>
<totfact> 0.33660868E+04</totfact>
</mgrwt>
</event>
<event>
12    1  0.1074575E-001  0.1844958E+03  0.7546771E-02  0.1163746E+00
         21   -1    0    0  503  502  0.00000000000E+00  0.00000000000E+00  0.10745224234E+04  0.10745224234E+04  0.00000000000E+00 0. -1.
         21   -1    0    0  501  503 -0.00000000000E+00 -0.00000000000E+00 -0.45943379898E+02  0.45943379898E+02  0.00000000000E+00 0. -1.
          6    2    1    2  501    0  0.55147102151E+02 -0.28640378751E+02  0.20124265264E+03  0.27301519712E+03  0.17371591304E+03 0.  0.
         24    2    3    3    0    0  0.77493460066E+02 -0.36063522724E+02  0.63831747476E+02  0.13352215200E+03  0.80298562026E+02 0.  0.
         -6    2    1    2    0  502 -0.55147102151E+02  0.28640378751E+02  0.82733639088E+03  0.84745060621E+03  0.17270075885E+03 0.  0.
        -24    2    5    5    0    0  0.56966605135E+01  0.28292227901E+02  0.70989016271E+03  0.71509581341E+03  0.81148488228E+02 0.  0.
          5    1    3    3  501    0 -0.22346357915E+02  0.74231439732E+01  0.13741090517E+03  0.13949304512E+03  0.47000000000E+01 0. -1.
        -13    1    4    4    0    0 -0.16554767117E+02 -0.90501576992E+01  0.15332223389E+02  0.24311370647E+02  0.00000000000E+00 0.  1.
         14    1    4    4    0    0  0.94048227183E+02 -0.27013365025E+02  0.48499524087E+02  0.10921078135E+03  0.00000000000E+00 0. -1.
         -5    1    5    5    0  502 -0.60843762664E+02  0.34815084963E+00  0.11744622817E+03  0.13235479280E+03  0.47000000000E+01 0.  1.
         11    1    6    6    0    0 -0.36346825057E+02  0.18824462615E+02  0.26781220242E+03  0.27092218043E+03  0.00000000000E+00 0. -1.
        -12    1    6    6    0    0  0.42043485571E+02  0.94677652860E+01  0.44207796029E+03  0.44417363298E+03  0.00000000000E+00 0.  1.
<mgrwt>
<rscale>  2 0.18425643E+03</rscale>
<asrwt>0</asrwt>
<pdfrwt beam="1">  1       21 0.16531112E+00 0.18449578E+03</pdfrwt>
<pdfrwt beam="2">  1       21 0.70682131E-02 0.18449578E+03</pdfrwt>
<totfact> 0.34444297E+04</totfact>
</mgrwt>
</event>
<event>
12    1  0.1074575E-001  0.1863951E+03  0.7546771E-02  0.1163016E+00
         21   -1    0    0  503  502  0.00000000000E+00  0.00000000000E+00  0.40185133623E+03  0.40185133623E+03  0.00000000000E+00 0. -1.
         21   -1    0    0  501  503 -0.00000000000E+00 -0.00000000000E+00 -0.26773617507E+03  0.26773617507E+03  0.00000000000E+00 0. -1.
          6    2    1    2  501    0 -0.19444723324E+02 -0.63123002077E+02 -0.20998400240E+03  0.28077822990E+03  0.17430009313E+03 0.  0.
         24    2    3    3    0    0 -0.36619553784E+02  0.20364885577E+02 -0.14120528528E+03  0.17115248422E+03  0.87169489959E+02 0.  0.
         -6    2    1    2    0  502  0.19444723324E+02  0.63123002077E+02  0.34409916356E+03  0.38880928141E+03  0.16854023937E+03 0.  0.
        -24    2    5    5    0    0  0.76198210373E+02  0.50419802284E+02  0.24623080438E+03  0.27486791356E+03  0.81082902974E+02 0.  0.
          5    1    3    3  501    0  0.17174830460E+02 -0.83487887654E+02 -0.68778717113E+02  0.10962574567E+03  0.47000000000E+01 0. -1.
        -11    1    4    4    0    0 -0.60057807488E+01 -0.36722904741E+01 -0.13062866675E+03  0.13081820858E+03  0.00000000000E+00 0.  1.
         12    1    4    4    0    0 -0.30613773035E+02  0.24037176051E+02 -0.10576618536E+02  0.40334275643E+02  0.00000000000E+00 0. -1.
         -5    1    5    5    0  502 -0.56753487049E+02  0.12703199793E+02  0.97868359184E+02  0.11394136785E+03  0.47000000000E+01 0.  1.
         13    1    6    6    0    0  0.36012878572E+02  0.47499904530E+02  0.60935328022E+02  0.85242492658E+02  0.00000000000E+00 0. -1.
        -14    1    6    6    0    0  0.40185331801E+02  0.29198977539E+01  0.18529547636E+03  0.18962542090E+03  0.00000000000E+00 0.  1.
<mgrwt>
<rscale>  2 0.18503667E+03</rscale>
<asrwt>0</asrwt>
<pdfrwt beam="1">  1       21 0.61823282E-01 0.18639510E+03</pdfrwt>
<pdfrwt beam="2">  1       21 0.41190181E-01 0.18639510E+03</pdfrwt>
<totfact> 0.13846252E+04</totfact>
</mgrwt>
</event>
<event>
12    1  0.1074575E-001  0.2025450E+03  0.7546771E-02  0.1148117E+00
         21   -1    0    0  503  502  0.00000000000E+00  0.00000000000E+00  0.14721468990E+03  0.14721468990E+03  0.00000000000E+00 0. -1.
         21   -1    0    0  501  503 -0.00000000000E+00 -0.00000000000E+00 -0.51472460233E+03  0.51472460233E+03  0.00000000000E+00 0. -1.
          6    2    1    2  501    0 -0.10819420449E+03  0.46189068508E+01 -0.41005448259E+03  0.45735013819E+03  0.17116410262E+03 0.  0.
         24    2    3    3    0    0 -0.84988354438E+02  0.25359581185E+02 -0.40847565761E+03  0.42583395605E+03  0.81339206510E+02 0.  0.
         -6    2    1    2    0  502  0.10819420449E+03 -0.46189068508E+01  0.42544570162E+02  0.20458915403E+03  0.16828357410E+03 0.  0.
        -24    2    5    5    0    0  0.94050636510E+02  0.28880430052E+02  0.80020367340E+02  0.15216042658E+03  0.84082904084E+02 0.  0.
          5    1    3    3  501    0 -0.23205850055E+02 -0.20740674335E+02 -0.15788249793E+01  0.31516182144E+02  0.47000000000E+01 0. -1.
        -11    1    4    4    0    0  0.73222429107E+01  0.21391678309E+02 -0.39973078258E+02  0.45924569976E+02  0.00000000000E+00 0.  1.
         12    1    4    4    0    0 -0.92310597349E+02  0.39679028764E+01 -0.36850257935E+03  0.37990938607E+03  0.00000000000E+00 0. -1.
         -5    1    5    5    0  502  0.14143567983E+02 -0.33499336903E+02 -0.37475797179E+02  0.52428727454E+02  0.47000000000E+01 0.  1.
         11    1    6    6    0    0  0.35844164726E+02  0.21315863719E+02  0.83527697165E+02  0.93359768556E+02  0.00000000000E+00 0. -1.
        -12    1    6    6    0    0  0.58206471784E+02  0.75645663324E+01 -0.35073298250E+01  0.58800658022E+02  0.00000000000E+00 0.  1.
<mgrwt>
<rscale>  2 0.20193516E+03</rscale>
<asrwt>0</asrwt>
<pdfrwt beam="1">  1       21 0.22648414E-01 0.20254498E+03</pdfrwt>
<pdfrwt beam="2">  1       21 0.79188400E-01 0.20254498E+03</pdfrwt>
<totfact> 0.25570507E+04</totfact>
</mgrwt>
</event>
<event>
12    1  0.1074575E-001  0.1845101E+03  0.7546771E-02  0.1163604E+00
         21   -1    0    0  501  502  0.00000000000E+00  0.00000000000E+00  0.59643802248E+02  0.59643802248E+02  0.00000000000E+00 0.  1.
         21   -1    0    0  502  503 -0.00000000000E+00 -0.00000000000E+00 -0.70515729010E+03  0.70515729010E+03  0.00000000000E+00 0.  1.
         -6    2    1    2    0  503 -0.61725066384E+02 -0.24728765839E+01 -0.49017833653E+03  0.52361033283E+03  0.17342687250E+03 0.  0.
        -24    2    3    3    0    0 -0.84317123620E+02 -0.10463758429E+02 -0.19368614948E+03  0.22611417786E+03  0.79965175870E+02 0.  0.
          6    2    1    2  501    0  0.61725066384E+02  0.24728765839E+01 -0.15533515132E+03  0.24119075951E+03  0.17386165276E+03 0.  0.
         24    2    5    5    0    0 -0.28755057196E+02  0.31323558415E+02 -0.69499660645E+02  0.11309378037E+03  0.78434569569E+02 0.  0.
          5    1    5    5  501    0  0.90480123580E+02 -0.28850681831E+02 -0.85835490673E+02  0.12809697914E+03  0.47000000000E+01 0. -1.
        -11    1    6    6    0    0 -0.30689376659E+01  0.28615348293E+00  0.17208893505E+02  0.17482742287E+02  0.00000000000E+00 0.  1.
         12    1    6    6    0    0 -0.25686119530E+02  0.31037404932E+02 -0.86708554150E+02  0.95611038087E+02  0.00000000000E+00 0. -1.
         -5    1    3    3    0  503  0.22592057236E+02  0.79908818449E+01 -0.29649218705E+03  0.29749615498E+03  0.47000000000E+01 0.  1.
         13    1    4    4    0    0  0.10598249500E+02 -0.13887319767E+01 -0.52497952911E+00  0.10701732218E+02  0.00000000000E+00 0. -1.
        -14    1    4    4    0    0 -0.94915373119E+02 -0.90750264522E+01 -0.19316116995E+03  0.21541244564E+03  0.00000000000E+00 0.  1.
<mgrwt>
<rscale>  2 0.18440760E+03</rscale>
<asrwt>0</asrwt>
<pdfrwt beam="1">  1       21 0.91759696E-02 0.18451009E+03</pdfrwt>
<pdfrwt beam="2">  1       21 0.10848574E+00 0.18451009E+03</pdfrwt>
<totfact> 0.64012256E+04</totfact>
</mgrwt>
</event>
<event>
12    1  0.1074575E-001  0.1828509E+03  0.7546771E-02  0.1165406E+00
         21   -1    0    0  503  502  0.00000000000E+00  0.00000000000E+00  0.86869480927E+03  0.86869480927E+03  0.00000000000E+00 0. -1.
         21   -1    0    0  501  503 -0.00000000000E+00 -0.00000000000E+00 -0.38900564499E+02  0.38900564499E+02  0.00000000000E+00 0. -1.
          6    2    1    2  501    0  0.14472932810E+02 -0.51425891621E+02  0.35216524518E+03  0.39616217669E+03  0.17340709966E+03 0.  0.
         24    2    3    3    0    0 -0.39419224792E+01 -0.23890607511E+02  0.35253338267E+03  0.36270288364E+03  0.81775889027E+02 0.  0.
         -6    2    1    2    0  502 -0.14472932810E+02  0.51425891621E+02  0.47762899959E+03  0.51143319707E+03  0.17487242696E+03 0.  0.
        -24    2    5    5    0    0 -0.41151940924E+02  0.95094380504E+02  0.37027655438E+03  0.39241494685E+03  0.78411353398E+02 0.  0.
          5    1    3    3  501    0  0.18414855289E+02 -0.27535284110E+02 -0.36813748420E+00  0.33459293052E+02  0.47000000000E+01 0. -1.
        -13    1    4    4    0    0  0.20966835172E+02  0.18040545340E+02  0.59205203206E+02  0.65347727887E+02  0.00000000000E+00 0.  1.
         14    1    4    4    0    0 -0.24908757651E+02 -0.41931152851E+02  0.29332817946E+03  0.29735515576E+03  0.00000000000E+00 0. -1.
         -5    1    5    5    0  502  0.26679008114E+02 -0.43668488883E+02  0.10735244521E+03  0.11901825023E+03  0.47000000000E+01 0.  1.
         13    1    6    6    0    0  0.90939760077E+01  0.74621901741E+02  0.23197803225E+03  0.24385433370E+03  0.00000000000E+00 0. -1.
        -14    1    6    6    0    0 -0.50245916931E+02  0.20472478762E+02  0.13829852213E+03  0.14856061315E+03  0.00000000000E+00 0.  1.
<mgrwt>
<rscale>  2 0.18249967E+03</rscale>
<asrwt>0</asrwt>
<pdfrwt beam="1">  1       21 0.13364534E+00 0.18285091E+03</pdfrwt>
<pdfrwt beam="2">  1       21 0.59847029E-02 0.18285091E+03</pdfrwt>
<totfact> 0.80191513E+04</totfact>
</mgrwt>
</event>
<event>
12    1  0.1074575E-001  0.2240466E+03  0.7546771E-02  0.1130902E+00
         21   -1    0    0  501  502  0.00000000000E+00  0.00000000000E+00  0.43342418481E+02  0.43342418481E+02  0.00000000000E+00 0. -1.
         21   -1    0    0  502  503 -0.00000000000E+00 -0.00000000000E+00 -0.12148869774E+04  0.12148869774E+04  0.00000000000E+00 0. -1.
         -6    2    1    2    0  503 -0.28286636283E+02 -0.13867720909E+03 -0.72174903774E+03  0.75572278102E+03  0.17367713195E+03 0.  0.
        -24    2    3    3    0    0 -0.55034150630E+02 -0.14043148935E+03 -0.70093559703E+03  0.72146206974E+03  0.80293498877E+02 0.  0.
          6    2    1    2  501    0  0.28286636283E+02  0.13867720909E+03 -0.44979552118E+03  0.50250661486E+03  0.17368184993E+03 0.  0.
         24    2    5    5    0    0 -0.41138895859E+02  0.37168681310E+02 -0.12970659967E+03  0.15957383224E+03  0.74606208282E+02 0.  0.
          5    1    5    5  501    0  0.69425532142E+02  0.10150852778E+03 -0.32008892151E+03  0.34293278262E+03  0.47000000000E+01 0. -1.
        -11    1    6    6    0    0 -0.49062996881E+02 -0.56547942980E+01 -0.70277023574E+02  0.85895368932E+02  0.00000000000E+00 0.  1.
         12    1    6    6    0    0  0.79241010217E+01  0.42823475608E+02 -0.59429576094E+02  0.73678463305E+02  0.00000000000E+00 0. -1.
         -5    1    3    3    0  503  0.26747514347E+02  0.17542802622E+01 -0.20813440718E+02  0.34260711282E+02  0.47000000000E+01 0.  1.
         11    1    4    4    0    0 -0.71588081574E+02 -0.11243515410E+03 -0.62137295826E+03  0.63550835601E+03  0.00000000000E+00 0. -1.
        -12    1    4    4    0    0  0.16553930944E+02 -0.27996335248E+02 -0.79562638766E+02  0.85953713732E+02  0.00000000000E+00 0.  1.
<mgrwt>
<rscale>  2 0.22404570E+03</rscale>
<asrwt>0</asrwt>
<pdfrwt beam="1">  1       21 0.66680636E-02 0.22404662E+03</pdfrwt>
<pdfrwt beam="2">  1       21 0.18690571E+00 0.22404662E+03</pdfrwt>
<totfact> 0.26330257E+04</totfact>
</mgrwt>
</event>
<event>
12    1  0.1074575E-001  0.2573745E+03  0.7546771E-02  0.1108788E+00
         21   -1    0    0  503  502  0.00000000000E+00  0.00000000000E+00  0.18387316060E+03  0.18387316060E+03  0.00000000000E+00 0. -1.
         21   -1    0    0  501  503 -0.00000000000E+00 -0.00000000000E+00 -0.36227322612E+03  0.36227322612E+03  0.00000000000E+00 0. -1.
          6    2    1    2  501    0 -0.14857933716E+03  0.11957215953E+03 -0.66413811399E+02  0.26580528573E+03  0.17282457815E+03 0.  0.
         24    2    3    3    0    0 -0.13066187422E+03  0.10577235503E+03 -0.11017529963E+03  0.21632167294E+03  0.79975953088E+02 0.  0.
         -6    2    1    2    0  502  0.14857933716E+03 -0.11957215953E+03 -0.11198625412E+03  0.28034110099E+03  0.17226982042E+03 0.  0.
        -24    2    5    5    0    0  0.35459693549E+02 -0.97704449444E+01 -0.64743685450E+01  0.90585156961E+02  0.82528187625E+02 0.  0.
          5    1    3    3  501    0 -0.17917462944E+02  0.13799804500E+02  0.43761488234E+02  0.49483612793E+02  0.47000000000E+01 0. -1.
        -13    1    4    4    0    0  0.86682550471E+01  0.78745276572E+01  0.27069612546E+01  0.12019753351E+02  0.00000000000E+00 0.  1.
         14    1    4    4    0    0 -0.13933012926E+03  0.97897827375E+02 -0.11288226089E+03  0.20430191959E+03  0.00000000000E+00 0. -1.
         -5    1    5    5    0  502  0.11311964361E+03 -0.10980171459E+03 -0.10551188557E+03  0.18975594403E+03  0.47000000000E+01 0.  1.
         11    1    6    6    0    0  0.54313254331E+02  0.11549148156E+02 -0.20071285310E+02  0.59043788099E+02  0.00000000000E+00 0. -1.
        -12    1    6    6    0    0 -0.18853560782E+02 -0.21319593101E+02  0.13596916765E+02  0.31541368862E+02  0.00000000000E+00 0.  1.
<mgrwt>
<rscale>  2 0.25728145E+03</rscale>
<asrwt>0</asrwt>
<pdfrwt beam="1">  1       21 0.28288179E-01 0.25737454E+03</pdfrwt>
<pdfrwt beam="2">  1       21 0.55734342E-01 0.25737454E+03</pdfrwt>
<totfact> 0.35124495E+04</totfact>
</mgrwt>
</event>
<event>
12    1  0.1074575E-001  0.1934242E+03  0.7546771E-02  0.1155746E+00
         21   -1    0    0  501  502  0.00000000000E+00  0.00000000000E+00  0.66762205936E+02  0.66762205936E+02  0.00000000000E+00 0.  1.
         21   -1    0    0  502  503 -0.00000000000E+00 -0.00000000000E+00 -0.11760819042E+04  0.11760819042E+04  0.00000000000E+00 0.  1.
         -6    2    1    2    0  503 -0.58111549550E+02 -0.62968772912E+02 -0.10069271213E+04  0.10253366030E+04  0.17340963980E+03 0.  0.
        -24    2    3    3    0    0  0.24496501516E+02 -0.20811573096E+02 -0.67851095720E+03  0.68404407968E+03  0.80659678514E+02 0.  0.
          6    2    1    2  501    0  0.58111549550E+02  0.62968772912E+02 -0.10239257691E+03  0.21750750714E+03  0.17170689358E+03 0.  0.
         24    2    5    5    0    0 -0.35572471016E+02  0.29799956958E+02 -0.43966652248E+02  0.10212750569E+03  0.79646235194E+02 0.  0.
          5    1    5    5  501    0  0.93684020566E+02  0.33168815954E+02 -0.58425924667E+02  0.11538000145E+03  0.47000000000E+01 0. -1.
        -11    1    6    6    0    0 -0.20345753921E+02  0.55532081453E+02 -0.16193205693E+02  0.61318689514E+02  0.00000000000E+00 0.  1.
         12    1    6    6    0    0 -0.15226717096E+02 -0.25732124495E+02 -0.27773446555E+02  0.40808816181E+02  0.00000000000E+00 0. -1.
         -5    1    3    3    0  503 -0.82608051066E+02 -0.42157199815E+02 -0.32841616414E+03  0.34129252331E+03  0.47000000000E+01 0.  1.
         11    1    4    4    0    0  0.22383933912E+02  0.17307217047E+02 -0.52831217911E+03  0.52906931384E+03  0.00000000000E+00 0. -1.
        -12    1    4    4    0    0  0.21125676033E+01 -0.38118790143E+02 -0.15019877810E+03  0.15497476584E+03  0.00000000000E+00 0.  1.
<mgrwt>
<rscale>  2 0.19304180E+03</rscale>
<asrwt>0</asrwt>
<pdfrwt beam="1">  1       21 0.10271109E-01 0.19342420E+03</pdfrwt>
<pdfrwt beam="2">  1       21 0.18093567E+00 0.19342420E+03</pdfrwt>
<totfact> 0.13870685E+04</totfact>
</mgrwt>
</event>
<event>
12    1  0.1074575E-001  0.2224050E+03  0.7546771E-02  0.1132238E+00
         21   -1    0    0  503  502  0.00000000000E+00  0.00000000000E+00  0.11461448468E+04  0.11461448468E+04  0.00000000000E+00 0. -1.
         21   -1    0    0  501  503 -0.00000000000E+00 -0.00000000000E+00 -0.44545444820E+02  0.44545444820E+02  0.00000000000E+00 0. -1.
          6    2    1    2  501    0  0.69498544950E+02  0.12188997489E+03  0.66030875075E+03  0.69652287604E+03  0.17160785762E+03 0.  0.
         24    2    3    3    0    0  0.90957271842E+01 -0.43502183163E+01  0.20680982663E+03  0.22189833922E+03  0.79792931417E+02 0.  0.
         -6    2    1    2    0  502 -0.69498544950E+02 -0.12188997489E+03  0.44129065126E+03  0.49416741561E+03  0.17255950288E+03 0.  0.
        -24    2    5    5    0    0 -0.83864057195E+02 -0.13563740571E+03  0.43656987813E+03  0.47319754448E+03  0.88836769915E+02 0.  0.
          5    1    3    3  501    0  0.60402817766E+02  0.12624019320E+03  0.45349892413E+03  0.47462453683E+03  0.47000000000E+01 0. -1.
        -13    1    4    4    0    0  0.11669640215E+01 -0.31540232782E+02  0.18050864009E+03  0.18324714797E+03  0.00000000000E+00 0.  1.
         14    1    4    4    0    0  0.79287631627E+01  0.27190014465E+02  0.26301186534E+02  0.38651191250E+02  0.00000000000E+00 0. -1.
         -5    1    5    5    0  502  0.14365512244E+02  0.13747430826E+02  0.47207731242E+01  0.20969871131E+02  0.47000000000E+01 0.  1.
         11    1    6    6    0    0 -0.11943295472E+02 -0.10152341137E+02  0.27656561800E+01  0.15917323626E+02  0.00000000000E+00 0. -1.
        -12    1    6    6    0    0 -0.71920761723E+02 -0.12548506458E+03  0.43380422195E+03  0.45728022085E+03  0.00000000000E+00 0.  1.
<mgrwt>
<rscale>  2 0.22222041E+03</rscale>
<asrwt>0</asrwt>
<pdfrwt beam="1">  1       21 0.17632995E+00 0.22240503E+03</pdfrwt>
<pdfrwt beam="2">  1       21 0.68531462E-02 0.22240503E+03</pdfrwt>
<totfact> 0.29675658E+04</totfact>
</mgrwt>
</event>
<event>
12    1  0.1074575E-001  0.2091653E+03  0.7546771E-02  0.1143536E+00
         21   -1    0    0  503  502  0.00000000000E+00  0.00000000000E+00  0.19942888777E+03  0.19942888777E+03  0.00000000000E+00 0. -1.
         21   -1    0    0  501  503 -0.00000000000E+00 -0.00000000000E+00 -0.26541961647E+03  0.26541961647E+03  0.00000000000E+00 0.  1.
          6    2    1    2  501    0  0.75350583553E+02 -0.79784540790E+02 -0.13620293760E+03  0.24421329937E+03  0.17042773245E+03 0.  0.
         24    2    3    3    0    0 -0.71957108350E+01 -0.84356875813E+02 -0.88184392303E+02  0.14849147502E+03  0.84293358905E+02 0.  0.
         -6    2    1    2    0  502 -0.75350583553E+02  0.79784540790E+02  0.70212208905E+02  0.22063520487E+03  0.17806419055E+03 0.  0.
        -24    2    5    5    0    0 -0.21206123108E+01 -0.79128663493E+01  0.61944398032E+02  0.10598830956E+03  0.85611347760E+02 0.  0.
          5    1    3    3  501    0  0.82546294388E+02  0.45723350233E+01 -0.48018545301E+02  0.95721824354E+02  0.47000000000E+01 0. -1.
        -13    1    4    4    0    0  0.20256802395E+02  0.70761025539E+01 -0.29334591078E+02  0.36344566366E+02  0.00000000000E+00 0.  1.
         14    1    4    4    0    0 -0.27452513230E+02 -0.91432978367E+02 -0.58849801224E+02  0.11214690865E+03  0.00000000000E+00 0. -1.
         -5    1    5    5    0  502 -0.73229971242E+02  0.87697407139E+02  0.82678108729E+01  0.11464689531E+03  0.47000000000E+01 0.  1.
         13    1    6    6    0    0  0.24203575431E+02  0.22606013517E+02  0.56262444166E+02  0.65286350291E+02  0.00000000000E+00 0. -1.
        -14    1    6    6    0    0 -0.26324187742E+02 -0.30518879867E+02  0.56819538666E+01  0.40701959269E+02  0.00000000000E+00 0.  1.
<mgrwt>
<rscale>  2 0.20753094E+03</rscale>
<asrwt>0</asrwt>
<pdfrwt beam="1">  1       21 0.30681367E-01 0.20916534E+03</pdfrwt>
<pdfrwt beam="2">  1       21 0.40833787E-01 0.20916534E+03</pdfrwt>
<totfact> 0.58473430E+04</totfact>
</mgrwt>
</event>
<event>
12    1  0.1074575E-001  0.1956938E+03  0.7546771E-02  0.1154210E+00
         21   -1    0    0  501  502  0.00000000000E+00  0.00000000000E+00  0.19980887126E+02  0.19980887126E+02  0.00000000000E+00 0.  1.
         21   -1    0    0  502  503 -0.00000000000E+00 -0.00000000000E+00 -0.18884252852E+04  0.18884252852E+04  0.00000000000E+00 0. -1.
         -6    2    1    2    0  503 -0.88135492707E+02 -0.22308193233E+02 -0.98268912221E+03  0.10012906956E+04  0.16923246008E+03 0.  0.
        -24    2    3    3    0    0 -0.37100289627E+02  0.24118509531E+01 -0.87711362553E+03  0.88135759739E+03  0.77978547475E+02 0.  0.
          6    2    1    2  501    0  0.88135492707E+02  0.22308193233E+02 -0.88575527582E+03  0.90711547672E+03  0.17329327426E+03 0.  0.
         24    2    5    5    0    0  0.36555789996E+02  0.52611396040E+02 -0.27768401599E+03  0.29609052072E+03  0.80354831499E+02 0.  0.
          5    1    5    5  501    0  0.51579702711E+02 -0.30303202806E+02 -0.60807125983E+03  0.61102495600E+03  0.47000000000E+01 0. -1.
        -11    1    6    6    0    0 -0.24643604833E+02  0.26619516575E+02 -0.97133559629E+02  0.10368623018E+03  0.00000000000E+00 0.  1.
         12    1    6    6    0    0  0.61199394829E+02  0.25991879465E+02 -0.18055045636E+03  0.19240429054E+03  0.00000000000E+00 0. -1.
         -5    1    3    3    0  503 -0.51035203079E+02 -0.24720044186E+02 -0.10557549667E+03  0.11993309817E+03  0.47000000000E+01 0.  1.
         13    1    4    4    0    0 -0.21404080652E+01 -0.34808532681E+02 -0.31268780764E+03  0.31462657285E+03  0.00000000000E+00 0. -1.
        -14    1    4    4    0    0 -0.34959881562E+02  0.37220383634E+02 -0.56442581789E+03  0.56673102454E+03  0.00000000000E+00 0.  1.
<mgrwt>
<rscale>  2 0.19479093E+03</rscale>
<asrwt>0</asrwt>
<pdfrwt beam="1">  1       21 0.30739827E-02 0.19569384E+03</pdfrwt>
<pdfrwt beam="2">  1       21 0.29052696E+00 0.19569384E+03</pdfrwt>
<totfact> 0.23451270E+04</totfact>
</mgrwt>
</event>
<event>
12    1  0.1074575E-001  0.1957453E+03  0.7546771E-02  0.1153652E+00
         21   -1    0    0  503  502  0.00000000000E+00  0.00000000000E+00  0.69191745450E+03  0.69191745450E+03  0.00000000000E+00 0. -1.
         21   -1    0    0  501  503 -0.00000000000E+00 -0.00000000000E+00 -0.15226107985E+03  0.15226107985E+03  0.00000000000E+00 0.  1.
          6    2    1    2  501    0 -0.63646867371E+02 -0.65644982919E+02 -0.67793515406E+02  0.20596886096E+03  0.17165961506E+03 0.  0.
         24    2    3    3    0    0 -0.65564561624E+02 -0.27252078804E+02 -0.94927945309E+02  0.15868186566E+03  0.10548569642E+03 0.  0.
         -6    2    1    2    0  502  0.63646867371E+02  0.65644982919E+02  0.60744989006E+03  0.63820967340E+03  0.17307810603E+03 0.  0.
        -24    2    5    5    0    0 -0.14680196438E+02  0.39971733945E+02  0.46344225440E+03  0.47221408983E+03  0.79963590398E+02 0.  0.
          5    1    3    3  501    0  0.19176942525E+01 -0.38392904115E+02  0.27134429904E+02  0.47286995293E+02  0.47000000000E+01 0. -1.
        -11    1    4    4    0    0 -0.66524355199E+02 -0.62859074906E+02 -0.69282143789E+02  0.11479010663E+03  0.00000000000E+00 0.  1.
         12    1    4    4    0    0  0.95979357550E+00  0.35606996102E+02 -0.25645801521E+02  0.43891759030E+02  0.00000000000E+00 0. -1.
         -5    1    5    5    0  502  0.78327063809E+02  0.25673248974E+02  0.14400763565E+03  0.16599558357E+03  0.47000000000E+01 0.  1.
         11    1    6    6    0    0  0.22366234974E+02  0.35194627679E+02  0.12623491360E+03  0.13294421272E+03  0.00000000000E+00 0. -1.
        -12    1    6    6    0    0 -0.37046431412E+02  0.47771062654E+01  0.33720734081E+03  0.33926987712E+03  0.00000000000E+00 0.  1.
<mgrwt>
<rscale>  2 0.19543126E+03</rscale>
<asrwt>0</asrwt>
<pdfrwt beam="1">  1       21 0.10644884E+00 0.19574529E+03</pdfrwt>
<pdfrwt beam="2">  1       21 0.23424782E-01 0.19574529E+03</pdfrwt>
<totfact> 0.12093880E+04</totfact>
</mgrwt>
</event>
<event>
12    1  0.1074575E-001  0.2174454E+03  0.7546771E-02  0.1136171E+00
         21   -1    0    0  503  502  0.00000000000E+00  0.00000000000E+00  0.94293650757E+02  0.94293650757E+02  0.00000000000E+00 0.  1.
         21   -1    0    0  501  503 -0.00000000000E+00 -0.00000000000E+00 -0.49744607627E+03  0.49744607627E+03  0.00000000000E+00 0.  1.
          6    2    1    2  501    0  0.58597357631E+02  0.11221406100E+03 -0.19154645050E+03  0.28832651222E+03  0.17440323719E+03 0.  0.
         24    2    3    3    0    0  0.35981715919E+01  0.21967488153E+01 -0.12545564339E+03  0.14861679806E+03  0.79561684646E+02 0.  0.
         -6    2    1    2    0  502 -0.58597357631E+02 -0.11221406100E+03 -0.21160597502E+03  0.30341321481E+03  0.17679605326E+03 0.  0.
        -24    2    5    5    0    0  0.28331305052E+02 -0.76962559544E+02 -0.72452469549E+02  0.13552918092E+03  0.79955613433E+02 0.  0.
          5    1    3    3  501    0  0.54999186039E+02  0.11001731219E+03 -0.66090807105E+02  0.13970971415E+03  0.47000000000E+01 0. -1.
        -13    1    4    4    0    0  0.35192937209E+02  0.22029351255E+02 -0.55197443449E+02  0.69069478855E+02  0.00000000000E+00 0.  1.
         14    1    4    4    0    0 -0.31594765617E+02 -0.19832602440E+02 -0.70258199943E+02  0.79547319207E+02  0.00000000000E+00 0. -1.
         -5    1    5    5    0  502 -0.86928662683E+02 -0.35251501457E+02 -0.13915350547E+03  0.16788403389E+03  0.47000000000E+01 0.  1.
         11    1    6    6    0    0  0.53935501980E+02 -0.33671943770E+02 -0.47610972373E+02  0.79433260423E+02  0.00000000000E+00 0. -1.
        -12    1    6    6    0    0 -0.25604196928E+02 -0.43290615774E+02 -0.24841497177E+02  0.56095920497E+02  0.00000000000E+00 0.  1.
<mgrwt>
<rscale>  2 0.21695849E+03</rscale>
<asrwt>0</asrwt>
<pdfrwt beam="1">  1       21 0.14506716E-01 0.21744537E+03</pdfrwt>
<pdfrwt beam="2">  1       21 0.76530164E-01 0.21744537E+03</pdfrwt>
<totfact> 0.62633371E+04</totfact>
</mgrwt>
</event>
<event>
12    1  0.1074575E-001  0.1797245E+03  0.7546771E-02  0.1170208E+00
         21   -1    0    0  501  502  0.00000000000E+00  0.00000000000E+00  0.43863450425E+03  0.43863450425E+03  0.00000000000E+00 0.  1.
         21   -1    0    0  502  503 -0.00000000000E+00 -0.00000000000E+00 -0.11188299750E+03  0.11188299750E+03  0.00000000000E+00 0.  1.
         -6    2    1    2    0  503 -0.38217050699E+01 -0.42574978959E+02 -0.71896866385E+01  0.17128455646E+03  0.16570900224E+03 0.  0.
        -24    2    3    3    0    0  0.11483794581E+02 -0.86696581372E+02  0.20549816504E+02  0.11676351324E+03  0.74587185941E+02 0.  0.
          6    2    1    2  501    0  0.38217050699E+01  0.42574978959E+02  0.33394119339E+03  0.37923294528E+03  0.17456709851E+03 0.  0.
         24    2    5    5    0    0  0.38593736847E+02  0.73128755576E+02  0.29258603091E+03  0.31698371297E+03  0.89637031352E+02 0.  0.
          5    1    5    5  501    0 -0.34772031777E+02 -0.30553776617E+02  0.41355162481E+02  0.62249232311E+02  0.47000000000E+01 0. -1.
        -11    1    6    6    0    0 -0.10987944929E+02  0.70609977349E+02  0.19061292404E+03  0.20356765619E+03  0.00000000000E+00 0.  1.
         12    1    6    6    0    0  0.49581681776E+02  0.25187782266E+01  0.10197310687E+03  0.11341605679E+03  0.00000000000E+00 0. -1.
         -5    1    3    3    0  503 -0.15305499651E+02  0.44121602413E+02 -0.27739503143E+02  0.54521043219E+02  0.47000000000E+01 0.  1.
         11    1    4    4    0    0 -0.21511168997E+02 -0.36886213734E+02  0.35094222078E+02  0.55271399282E+02  0.00000000000E+00 0. -1.
        -12    1    4    4    0    0  0.32994963578E+02 -0.49810367638E+02 -0.14544405574E+02  0.61492113960E+02  0.00000000000E+00 0.  1.
<mgrwt>
<rscale>  2 0.17753719E+03</rscale>
<asrwt>0</asrwt>
<pdfrwt beam="1">  1       21 0.67482230E-01 0.17972453E+03</pdfrwt>
<pdfrwt beam="2">  1       21 0.17212769E-01 0.17972453E+03</pdfrwt>
<totfact> 0.61590466E+04</totfact>
</mgrwt>
</event>
<event>
12    1  0.1074575E-001  0.3048341E+03  0.7546771E-02  0.1082863E+00
         21   -1    0    0  501  502  0.00000000000E+00  0.00000000000E+00  0.71425722289E+03  0.71425722289E+03  0.00000000000E+00 0.  1.
         21   -1    0    0  502  503 -0.00000000000E+00 -0.00000000000E+00 -0.16445192694E+03  0.16445192694E+03  0.00000000000E+00 0.  1.
         -6    2    1    2    0  503  0.28489015429E+02  0.25172604804E+03  0.73906176502E+02  0.31355095617E+03  0.16933532391E+03 0.  0.
        -24    2    3    3    0    0 -0.18170863422E+02  0.88469432429E+02 -0.17238364406E+02  0.12078352071E+03  0.78322901602E+02 0.  0.
          6    2    1    2  501    0 -0.28489015429E+02 -0.25172604804E+03  0.47589911945E+03  0.56515819366E+03  0.16954699852E+03 0.  0.
         24    2    5    5    0    0  0.18001410147E+01 -0.25685954220E+03  0.45154980514E+03  0.52567699728E+03  0.80367991272E+02 0.  0.
          5    1    5    5  501    0 -0.30289156444E+02  0.51334941580E+01  0.24349314309E+02  0.39481196381E+02  0.47000000000E+01 0. -1.
        -13    1    6    6    0    0 -0.17644564792E+02 -0.21703374631E+03  0.32164815711E+03  0.38842311295E+03  0.00000000000E+00 0.  1.
         14    1    6    6    0    0  0.19444705806E+02 -0.39825795890E+02  0.12990164803E+03  0.13725388432E+03  0.00000000000E+00 0. -1.
         -5    1    3    3    0  503  0.46659878851E+02  0.16325661561E+03  0.91144540908E+02  0.19276743546E+03  0.47000000000E+01 0.  1.
         11    1    4    4    0    0  0.19948346088E+02  0.66309715220E+02 -0.29118863164E+02  0.75118726269E+02  0.00000000000E+00 0. -1.
        -12    1    4    4    0    0 -0.38119209510E+02  0.22159717208E+02  0.11880498758E+02  0.45664794439E+02  0.00000000000E+00 0.  1.
<mgrwt>
<rscale>  2 0.30480465E+03</rscale>
<asrwt>0</asrwt>
<pdfrwt beam="1">  1       21 0.10988573E+00 0.30483407E+03</pdfrwt>
<pdfrwt beam="2">  1       21 0.25300297E-01 0.30483407E+03</pdfrwt>
<totfact> 0.90768947E+03</totfact>
</mgrwt>
</event>
<event>
12    1  0.1074575E-001  0.2128386E+03  0.7546771E-02  0.1139494E+00
         21   -1    0    0  501  502  0.00000000000E+00  0.00000000000E+00  0.43388783489E+03  0.43388783489E+03  0.00000000000E+00 0. -1.
         21   -1    0    0  502  503 -0.00000000000E+00 -0.00000000000E+00 -0.10625248311E+03  0.10625248311E+03  0.00000000000E+00 0. -1.
         -6    2    1    2    0  503 -0.97788443516E+02 -0.71034740369E+02  0.20333463121E+03  0.29435564389E+03  0.17519063564E+03 0.  0.
        -24    2    3    3    0    0 -0.46998869339E+02  0.33696092466E+01  0.26570032752E+02  0.95903127267E+02  0.79190878222E+02 0.  0.
          6    2    1    2  501    0  0.97788443516E+02  0.71034740369E+02  0.12430072057E+03  0.24578467411E+03  0.17421516257E+03 0.  0.
         24    2    5    5    0    0  0.81709543921E+02  0.10227045815E+03  0.48246604445E+02  0.16187686960E+03  0.82101704574E+02 0.  0.
          5    1    5    5  501    0  0.16078899595E+02 -0.31235717780E+02  0.76054116126E+02  0.83907804507E+02  0.47000000000E+01 0. -1.
        -11    1    6    6    0    0  0.11849333026E+02  0.54295653554E+02  0.53269965180E+02  0.76981256669E+02  0.00000000000E+00 0.  1.
         12    1    6    6    0    0  0.69860210895E+02  0.47974804595E+02 -0.50233607352E+01  0.84895612933E+02  0.00000000000E+00 0. -1.
         -5    1    3    3    0  503 -0.50789574177E+02 -0.74404349615E+02  0.17676459845E+03  0.19845251662E+03  0.47000000000E+01 0.  1.
         13    1    4    4    0    0 -0.62243029315E+02 -0.14155527027E+02  0.47085648603E+01  0.64005814008E+02  0.00000000000E+00 0. -1.
        -14    1    4    4    0    0  0.15244159976E+02  0.17525136274E+02  0.21861467892E+02  0.31897313259E+02  0.00000000000E+00 0.  1.
<mgrwt>
<rscale>  2 0.21263777E+03</rscale>
<asrwt>0</asrwt>
<pdfrwt beam="1">  1       21 0.66751974E-01 0.21283861E+03</pdfrwt>
<pdfrwt beam="2">  1       21 0.16346536E-01 0.21283861E+03</pdfrwt>
<totfact> 0.68327165E+04</totfact>
</mgrwt>
</event>
<event>
12    1  0.1074575E-001  0.2451997E+03  0.7546771E-02  0.1116428E+00
         21   -1    0    0  501  502  0.00000000000E+00  0.00000000000E+00  0.91081233864E+03  0.91081233864E+03  0.00000000000E+00 0. -1.
         21   -1    0    0  502  503 -0.00000000000E+00 -0.00000000000E+00 -0.35611132263E+03  0.35611132263E+03  0.00000000000E+00 0. -1.
         -6    2    1    2    0  503 -0.69502577802E+02  0.15854483560E+03 -0.29444502449E+03  0.38317199342E+03  0.17365434311E+03 0.  0.
        -24    2    3    3    0    0  0.17290217339E+02  0.82022176124E+02 -0.21026017306E+03  0.24000116570E+03  0.79778632281E+02 0.  0.
          6    2    1    2  501    0  0.69502577802E+02 -0.15854483560E+03  0.84914604049E+03  0.88375166785E+03  0.17320779176E+03 0.  0.
         24    2    5    5    0    0  0.10241968632E+03 -0.12103549557E+03  0.76827575140E+03  0.78860661921E+03  0.80705553317E+02 0.  0.
          5    1    5    5  501    0 -0.32917108522E+02 -0.37509340032E+02  0.80870289093E+02  0.95145048642E+02  0.47000000000E+01 0. -1.
        -11    1    6    6    0    0  0.33465904761E+01  0.40766911300E+01  0.14915782218E+03  0.14925104689E+03  0.00000000000E+00 0.  1.
         12    1    6    6    0    0  0.99073095848E+02 -0.12511218670E+03  0.61911792922E+03  0.63935557232E+03  0.00000000000E+00 0. -1.
         -5    1    3    3    0  503 -0.86792795141E+02  0.76522659474E+02 -0.84184851432E+02  0.14317082773E+03  0.47000000000E+01 0.  1.
         13    1    4    4    0    0  0.32553827107E+02  0.31334542632E+02 -0.35683819591E+02  0.57575517383E+02  0.00000000000E+00 0. -1.
        -14    1    4    4    0    0 -0.15263609768E+02  0.50687633492E+02 -0.17457635347E+03  0.18242564831E+03  0.00000000000E+00 0.  1.
<mgrwt>
<rscale>  2 0.24512067E+03</rscale>
<asrwt>0</asrwt>
<pdfrwt beam="1">  1       21 0.14012497E+00 0.24519972E+03</pdfrwt>
<pdfrwt beam="2">  1       21 0.54786358E-01 0.24519972E+03</pdfrwt>
<totfact> 0.10694538E+03</totfact>
</mgrwt>
</event>
<event>
12    1  0.1074575E-001  0.1750332E+03  0.7546771E-02  0.1172812E+00
         21   -1    0    0  501  502  0.00000000000E+00  0.00000000000E+00  0.95163419036E+03  0.95163419036E+03  0.00000000000E+00 0. -1.
         21   -1    0    0  502  503 -0.00000000000E+00 -0.00000000000E+00 -0.51315613286E+02  0.51315613286E+02  0.00000000000E+00 0. -1.
         -6    2    1    2    0  503 -0.17166774820E+02  0.60645578789E+00  0.14374132429E+03  0.22649107046E+03  0.17418831977E+03 0.  0.
        -24    2    3    3    0    0 -0.18549270705E+02 -0.46495368516E+02  0.15024468571E+03  0.17869068492E+03  0.82770771145E+02 0.  0.
          6    2    1    2  501    0  0.17166774820E+02 -0.60645578789E+00  0.75657725279E+03  0.77645873319E+03  0.17373531294E+03 0.  0.
         24    2    5    5    0    0 -0.16006803643E+02  0.13201836960E+02  0.17941586254E+03  0.19816078606E+03  0.81529989207E+02 0.  0.
          5    1    5    5  501    0  0.33173578463E+02 -0.13808292748E+02  0.57716139025E+03  0.57829794713E+03  0.47000000000E+01 0. -1.
        -11    1    6    6    0    0 -0.26933929466E+02 -0.12939520749E+01  0.17791396974E+03  0.17994580156E+03  0.00000000000E+00 0.  1.
         12    1    6    6    0    0  0.10927125823E+02  0.14495789035E+02  0.15018927951E+01  0.18214984504E+02  0.00000000000E+00 0. -1.
         -5    1    3    3    0  503  0.13824958850E+01  0.47101824304E+02 -0.65033614249E+01  0.47800385537E+02  0.47000000000E+01 0.  1.
         11    1    4    4    0    0 -0.44924053202E+02 -0.41112370854E+02  0.63998975672E+02  0.88341759550E+02  0.00000000000E+00 0. -1.
        -12    1    4    4    0    0  0.26374782497E+02 -0.53829976626E+01  0.86245710039E+02  0.90348925372E+02  0.00000000000E+00 0.  1.
<mgrwt>
<rscale>  2 0.17492043E+03</rscale>
<asrwt>0</asrwt>
<pdfrwt beam="1">  1       21 0.14640525E+00 0.17503324E+03</pdfrwt>
<pdfrwt beam="2">  1       21 0.78947105E-02 0.17503324E+03</pdfrwt>
<totfact> 0.39527212E+04</totfact>
</mgrwt>
</event>
<event>
12    1  0.1074575E-001  0.2168184E+03  0.7546771E-02  0.1136453E+00
         21   -1    0    0  503  502  0.00000000000E+00  0.00000000000E+00  0.31669222895E+04  0.31669222895E+04  0.00000000000E+00 0. -1.
         21   -1    0    0  501  503 -0.00000000000E+00 -0.00000000000E+00 -0.20019574600E+02  0.20019574600E+02  0.00000000000E+00 0.  1.
          6    2    1    2  501    0 -0.95600135589E+02  0.88324529282E+02  0.76081125950E+03  0.79110301425E+03  0.17340587698E+03 0.  0.
         24    2    3    3    0    0  0.76851277308E+01  0.78444997611E+02  0.43012200862E+03  0.44448662483E+03  0.79691520976E+02 0.  0.
         -6    2    1    2    0  502  0.95600135589E+02 -0.88324529282E+02  0.23860914554E+04  0.23958388499E+04  0.17225200298E+03 0.  0.
        -24    2    5    5    0    0  0.13286625586E+03 -0.63644487746E+02  0.20063198715E+04  0.20134170747E+04  0.82612512136E+02 0.  0.
          5    1    3    3  501    0 -0.10328526332E+03  0.98795316702E+01  0.33068925088E+03  0.34661638942E+03  0.47000000000E+01 0. -1.
        -11    1    4    4    0    0 -0.25610920216E+02  0.65156606698E+02  0.20738850760E+03  0.21888649048E+03  0.00000000000E+00 0.  1.
         12    1    4    4    0    0  0.33296047946E+02  0.13288390914E+02  0.22273350101E+03  0.22560013434E+03  0.00000000000E+00 0. -1.
         -5    1    5    5    0  502 -0.37266120274E+02 -0.24680041536E+02  0.37977158394E+03  0.38242177519E+03  0.47000000000E+01 0.  1.
         11    1    6    6    0    0  0.41452314574E+02 -0.42301117498E+02  0.12328202909E+04  0.12342420948E+04  0.00000000000E+00 0. -1.
        -12    1    6    6    0    0  0.91413941289E+02 -0.21343370248E+02  0.77349958056E+03  0.77917497986E+03  0.00000000000E+00 0.  1.
<mgrwt>
<rscale>  2 0.21658757E+03</rscale>
<asrwt>0</asrwt>
<pdfrwt beam="1">  1       21 0.48721842E+00 0.21681837E+03</pdfrwt>
<pdfrwt beam="2">  1       21 0.30799371E-02 0.21681837E+03</pdfrwt>
<totfact> 0.13597966E+03</totfact>
</mgrwt>
</event>
<event>
12    1  0.1074575E-001  0.1830807E+03  0.7546771E-02  0.1166095E+00
         21   -1    0    0  501  502  0.00000000000E+00  0.00000000000E+00  0.27258946469E+03  0.27258946469E+03  0.00000000000E+00 0. -1.
         21   -1    0    0  502  503 -0.00000000000E+00 -0.00000000000E+00 -0.15356719117E+03  0.15356719117E+03  0.00000000000E+00 0. -1.
         -6    2    1    2    0  503  0.40251291911E+02  0.38163821980E+02 -0.41474092622E+02  0.18268666480E+03  0.16904932218E+03 0.  0.
        -24    2    3    3    0    0  0.63702133407E+02 -0.29244733884E+02 -0.21963508798E+02  0.10854755062E+03  0.79918450724E+02 0.  0.
          6    2    1    2  501    0 -0.40251291911E+02 -0.38163821980E+02  0.16049636614E+03  0.24346999106E+03  0.17447609920E+03 0.  0.
         24    2    5    5    0    0 -0.64672858062E+02 -0.20531284736E+01  0.31501953335E+02  0.10722740002E+03  0.79489297040E+02 0.  0.
          5    1    5    5  501    0  0.24421566151E+02 -0.36110693506E+02  0.12899441280E+03  0.13624259104E+03  0.47000000000E+01 0. -1.
        -11    1    6    6    0    0  0.15937598177E+02 -0.10169817357E+02  0.15938813515E+02  0.24728081143E+02  0.00000000000E+00 0.  1.
         12    1    6    6    0    0 -0.80610456239E+02  0.81166888838E+01  0.15563139820E+02  0.82499318873E+02  0.00000000000E+00 0. -1.
         -5    1    3    3    0  503 -0.23450841495E+02  0.67408555864E+02 -0.19510583824E+02  0.74139114182E+02  0.47000000000E+01 0.  1.
         13    1    4    4    0    0  0.27828564918E+02 -0.22257280530E+02  0.28923895226E+02  0.45895612829E+02  0.00000000000E+00 0. -1.
        -14    1    4    4    0    0  0.35873568489E+02 -0.69874533544E+01 -0.50887404023E+02  0.62651937789E+02  0.00000000000E+00 0.  1.
<mgrwt>
<rscale>  2 0.18177581E+03</rscale>
<asrwt>0</asrwt>
<pdfrwt beam="1">  1       21 0.41936840E-01 0.18308073E+03</pdfrwt>
<pdfrwt beam="2">  1       21 0.23625722E-01 0.18308073E+03</pdfrwt>
<totfact> 0.92658696E+04</totfact>
</mgrwt>
</event>
<event>
12    1  0.1074575E-001  0.2692864E+03  0.7546771E-02  0.1101876E+00
         21   -1    0    0  501  502  0.00000000000E+00  0.00000000000E+00  0.35101665571E+03  0.35101665571E+03  0.00000000000E+00 0.  1.
         21   -1    0    0  502  503 -0.00000000000E+00 -0.00000000000E+00 -0.21596686339E+03  0.21596686339E+03  0.00000000000E+00 0. -1.
         -6    2    1    2    0  503 -0.97158513227E+02  0.18145052457E+03  0.52232011958E+01  0.26803518812E+03  0.17161442445E+03 0.  0.
        -24    2    3    3    0    0 -0.32453972507E+02  0.46864784028E+02 -0.43977792808E+02  0.11073665997E+03  0.84136753488E+02 0.  0.
          6    2    1    2  501    0  0.97158513227E+02 -0.18145052457E+03  0.12982659112E+03  0.29894833098E+03  0.17364069591E+03 0.  0.
         24    2    5    5    0    0  0.10213172819E+03 -0.75805129893E+02  0.29002954324E+02  0.15275264698E+03  0.79466295871E+02 0.  0.
          5    1    5    5  501    0 -0.49732149609E+01 -0.10564539468E+03  0.10082363679E+03  0.14619568400E+03  0.47000000000E+01 0. -1.
        -13    1    6    6    0    0  0.50375249538E+02 -0.67515482677E+02  0.48055635105E+02  0.96981184941E+02  0.00000000000E+00 0.  1.
         14    1    6    6    0    0  0.51756478649E+02 -0.82896472158E+01 -0.19052680781E+02  0.55771462040E+02  0.00000000000E+00 0. -1.
         -5    1    3    3    0  503 -0.64704540720E+02  0.13458574054E+03  0.49200994004E+02  0.15729852815E+03  0.47000000000E+01 0.  1.
         13    1    4    4    0    0 -0.32258547773E+02  0.63558254058E+02 -0.55598221124E+02  0.90395949885E+02  0.00000000000E+00 0. -1.
        -14    1    4    4    0    0 -0.19542473332E+00 -0.16693470031E+02  0.11620428317E+02  0.20340710085E+02  0.00000000000E+00 0.  1.
<mgrwt>
<rscale>  2 0.26896027E+03</rscale>
<asrwt>0</asrwt>
<pdfrwt beam="1">  1       21 0.54002562E-01 0.26928639E+03</pdfrwt>
<pdfrwt beam="2">  1       21 0.33225671E-01 0.26928639E+03</pdfrwt>
<totfact> 0.27234626E+04</totfact>
</mgrwt>
</event>
<event>
12    1  0.1074575E-001  0.2053278E+03  0.7546771E-02  0.1145714E+00
         21   -1    0    0  503  502  0.00000000000E+00  0.00000000000E+00  0.14920296806E+03  0.14920296806E+03  0.00000000000E+00 0. -1.
         21   -1    0    0  501  503 -0.00000000000E+00 -0.00000000000E+00 -0.30356509821E+03  0.30356509821E+03  0.00000000000E+00 0. -1.
          6    2    1    2  501    0  0.75153905541E+02 -0.73414849380E+02 -0.14001579428E+03  0.24693969106E+03  0.17417502331E+03 0.  0.
         24    2    3    3    0    0  0.11928052114E+03 -0.47722778875E+02 -0.10852233809E+03  0.18676354567E+03  0.81229414497E+02 0.  0.
         -6    2    1    2    0  502 -0.75153905541E+02  0.73414849380E+02 -0.14346335873E+02  0.20582837522E+03  0.17641330183E+03 0.  0.
        -24    2    5    5    0    0 -0.68614145460E+02 -0.13400106598E+02 -0.40542633822E+02  0.11479024546E+03  0.81520742645E+02 0.  0.
          5    1    3    3  501    0 -0.44126615601E+02 -0.25692070505E+02 -0.31493456185E+02  0.60176145387E+02  0.47000000000E+01 0. -1.
        -13    1    4    4    0    0  0.17764584423E+02  0.20796227034E+02 -0.85198438435E+01  0.28647011322E+02  0.00000000000E+00 0.  1.
         14    1    4    4    0    0  0.10151593672E+03 -0.68519005909E+02 -0.10000249425E+03  0.15811653435E+03  0.00000000000E+00 0. -1.
         -5    1    5    5    0  502 -0.65397600816E+01  0.86814955978E+02  0.26196297949E+02  0.91038129757E+02  0.47000000000E+01 0.  1.
         13    1    6    6    0    0 -0.62345052674E+02  0.24867917311E+02 -0.34744392256E+02  0.75581027365E+02  0.00000000000E+00 0. -1.
        -14    1    6    6    0    0 -0.62690927859E+01 -0.38268023910E+02 -0.57982415664E+01  0.39209218095E+02  0.00000000000E+00 0.  1.
<mgrwt>
<rscale>  2 0.20484614E+03</rscale>
<asrwt>0</asrwt>
<pdfrwt beam="1">  1       21 0.22954303E-01 0.20532779E+03</pdfrwt>
<pdfrwt beam="2">  1       21 0.46702323E-01 0.20532779E+03</pdfrwt>
<totfact> 0.77778160E+04</totfact>
</mgrwt>
</event>
<event>
12    1  0.1074575E-001  0.2085049E+03  0.7546771E-02  0.1143181E+00
         21   -1    0    0  501  502  0.00000000000E+00  0.00000000000E+00  0.29576130909E+03  0.29576130909E+03  0.00000000000E+00 0. -1.
         21   -1    0    0  502  503 -0.00000000000E+00 -0.00000000000E+00 -0.14563693179E+03  0.14563693179E+03  0.00000000000E+00 0.  1.
         -6    2    1    2    0  503 -0.91945592850E+02 -0.71332883341E+02  0.81425490134E+02  0.22186729507E+03  0.17044827335E+03 0.  0.
        -24    2    3    3    0    0 -0.56616872140E+02 -0.41841234236E+02  0.12063499797E+03  0.16122612607E+03  0.80528888600E+02 0.  0.
          6    2    1    2  501    0  0.91945592850E+02  0.71332883341E+02  0.68698887162E+02  0.21953094580E+03  0.17300845869E+03 0.  0.
         24    2    5    5    0    0  0.50143181309E+01  0.39289607061E+01 -0.14172281918E+02  0.81726533770E+02  0.80235856253E+02 0.  0.
          5    1    5    5  501    0  0.86931274719E+02  0.67403922635E+02  0.82871169080E+02  0.13780441203E+03  0.47000000000E+01 0. -1.
        -13    1    6    6    0    0 -0.30046772405E+02  0.22922029468E+02 -0.17630054359E+02  0.41701879857E+02  0.00000000000E+00 0.  1.
         14    1    6    6    0    0  0.35061090536E+02 -0.18993068762E+02  0.34577724413E+01  0.40024653913E+02  0.00000000000E+00 0. -1.
         -5    1    3    3    0  503 -0.35328720710E+02 -0.29491649105E+02 -0.39209507832E+02  0.60641169006E+02  0.47000000000E+01 0.  1.
         11    1    4    4    0    0 -0.18784387588E+02  0.12681933081E+02  0.80591240700E+02  0.83717577135E+02  0.00000000000E+00 0. -1.
        -12    1    4    4    0    0 -0.37832484552E+02 -0.54523167317E+02  0.40043757266E+02  0.77508548933E+02  0.00000000000E+00 0.  1.
<mgrwt>
<rscale>  2 0.20797304E+03</rscale>
<asrwt>0</asrwt>
<pdfrwt beam="1">  1       21 0.45501740E-01 0.20850491E+03</pdfrwt>
<pdfrwt beam="2">  1       21 0.22405682E-01 0.20850491E+03</pdfrwt>
<totfact> 0.85807028E+04</totfact>
</mgrwt>
</event>
<event>
12    1  0.1074575E-001  0.1823002E+03  0.7546771E-02  0.1167013E+00
         21   -1    0    0  501  502  0.00000000000E+00  0.00000000000E+00  0.65572893504E+03  0.65572893504E+03  0.00000000000E+00 0.  1.
         21   -1    0    0  502  503 -0.00000000000E+00 -0.00000000000E+00 -0.11564862633E+03  0.11564862633E+03  0.00000000000E+00 0.  1.
         -6    2    1    2    0  503  0.26082744202E+02  0.27669336552E+02 -0.24459630284E+02  0.17813333594E+03  0.17230005842E+03 0.  0.
        -24    2    3    3    0    0  0.16268160163E+02  0.75102272355E+02  0.24313225479E+02  0.10923420011E+03  0.73729052575E+02 0.  0.
          6    2    1    2  501    0 -0.26082744202E+02 -0.27669336552E+02  0.56453993899E+03  0.59324422543E+03  0.17829039953E+03 0.  0.
         24    2    5    5    0    0 -0.41915871693E+02  0.17086850936E+02  0.51934647372E+03  0.52753012080E+03  0.80736409451E+02 0.  0.
          5    1    5    5  501    0  0.15833127491E+02 -0.44756187488E+02  0.45193465272E+02  0.65714104634E+02  0.47000000000E+01 0. -1.
        -13    1    6    6    0    0 -0.29522626766E+02 -0.14949333222E+01  0.53297505617E+02  0.60946242064E+02  0.00000000000E+00 0.  1.
         14    1    6    6    0    0 -0.12393244927E+02  0.18581784258E+02  0.46604896810E+03  0.46658387873E+03  0.00000000000E+00 0. -1.
         -5    1    3    3    0  503  0.98145840394E+01 -0.47432935802E+02 -0.48772855763E+02  0.68899135829E+02  0.47000000000E+01 0.  1.
         11    1    4    4    0    0 -0.79901576130E+01  0.50888791139E+02  0.45676604749E+02  0.68846669518E+02  0.00000000000E+00 0. -1.
        -12    1    4    4    0    0  0.24258317776E+02  0.24213481215E+02 -0.21363379270E+02  0.40387530597E+02  0.00000000000E+00 0.  1.
<mgrwt>
<rscale>  2 0.18081871E+03</rscale>
<asrwt>0</asrwt>
<pdfrwt beam="1">  1       21 0.10088137E+00 0.18230021E+03</pdfrwt>
<pdfrwt beam="2">  1       21 0.17792097E-01 0.18230021E+03</pdfrwt>
<totfact> 0.23205919E+04</totfact>
</mgrwt>
</event>
<event>
12    1  0.1074575E-001  0.2607434E+03  0.7546771E-02  0.1106835E+00
         21   -1    0    0  501  502  0.00000000000E+00  0.00000000000E+00  0.22059337155E+03  0.22059337155E+03  0.00000000000E+00 0. -1.
         21   -1    0    0  502  503 -0.00000000000E+00 -0.00000000000E+00 -0.31678213541E+03  0.31678213541E+03  0.00000000000E+00 0.  1.
         -6    2    1    2    0  503  0.19390393372E+03  0.21636999567E+02 -0.94940023948E+02  0.27662914686E+03  0.17159015555E+03 0.  0.
        -24    2    3    3    0    0  0.10444222137E+03 -0.39848552539E+02 -0.94237637250E+02  0.16797163704E+03  0.82690107206E+02 0.  0.
          6    2    1    2  501    0 -0.19390393372E+03 -0.21636999567E+02 -0.12487399209E+01  0.26074636010E+03  0.17297459263E+03 0.  0.
         24    2    5    5    0    0 -0.43781714979E+02  0.38289776096E+02  0.10505989467E+02  0.98610112883E+02  0.78934358984E+02 0.  0.
          5    1    5    5  501    0 -0.15012221874E+03 -0.59926775663E+02 -0.11754729387E+02  0.16213624722E+03  0.47000000000E+01 0. -1.
        -13    1    6    6    0    0 -0.44578079663E+02 -0.12979172595E+02  0.86925725611E+00  0.46437266456E+02  0.00000000000E+00 0.  1.
         14    1    6    6    0    0  0.79636468419E+00  0.51268948691E+02  0.96367322104E+01  0.52172846427E+02  0.00000000000E+00 0. -1.
         -5    1    3    3    0  503  0.89461712345E+02  0.61485552106E+02 -0.70238669774E+00  0.10865750982E+03  0.47000000000E+01 0.  1.
         11    1    4    4    0    0 -0.10818058137E+02  0.36778409602E+01  0.20444048906E+01  0.11607604720E+02  0.00000000000E+00 0. -1.
        -12    1    4    4    0    0  0.11526027951E+03 -0.43526393499E+02 -0.96282042140E+02  0.15636403232E+03  0.00000000000E+00 0.  1.
<mgrwt>
<rscale>  2 0.26051398E+03</rscale>
<asrwt>0</asrwt>
<pdfrwt beam="1">  1       21 0.33937442E-01 0.26074337E+03</pdfrwt>
<pdfrwt beam="2">  1       21 0.48735713E-01 0.26074337E+03</pdfrwt>
<totfact> 0.32537266E+04</totfact>
</mgrwt>
</event>
<event>
12    1  0.1074575E-001  0.1967728E+03  0.7546771E-02  0.1152661E+00
         21   -1    0    0  501  502  0.00000000000E+00  0.00000000000E+00  0.41537226871E+03  0.41537226871E+03  0.00000000000E+00 0. -1.
         21   -1    0    0  502  503 -0.00000000000E+00 -0.00000000000E+00 -0.17375344813E+03  0.17375344813E+03  0.00000000000E+00 0. -1.
         -6    2    1    2    0  503 -0.10322163633E+02  0.91023315952E+02  0.32194505304E+03  0.37731702687E+03  0.17414858736E+03 0.  0.
        -24    2    3    3    0    0 -0.47706900896E+02  0.56979577630E+00  0.19546919070E+03  0.21732424063E+03  0.82130067540E+02 0.  0.
          6    2    1    2  501    0  0.10322163633E+02 -0.91023315952E+02 -0.80326232451E+02  0.21180868998E+03  0.17325941943E+03 0.  0.
         24    2    5    5    0    0  0.43836132259E+02 -0.29998272292E+02  0.15007565310E+02  0.93665281181E+02  0.75673344384E+02 0.  0.
          5    1    5    5  501    0 -0.33513968627E+02 -0.61025043660E+02 -0.95333797761E+02  0.11814340880E+03  0.47000000000E+01 0. -1.
        -11    1    6    6    0    0 -0.16097586850E+02  0.11273282135E+02  0.21661393485E+01  0.19771478249E+02  0.00000000000E+00 0.  1.
         12    1    6    6    0    0  0.59933719109E+02 -0.41271554427E+02  0.12841425962E+02  0.73893802932E+02  0.00000000000E+00 0. -1.
         -5    1    3    3    0  503  0.37384737264E+02  0.90453520175E+02  0.12647586234E+03  0.15999278623E+03  0.47000000000E+01 0.  1.
         13    1    4    4    0    0 -0.77692805420E+01  0.31783224280E+02  0.13254458205E+03  0.13652326284E+03  0.00000000000E+00 0. -1.
        -14    1    4    4    0    0 -0.39937620354E+02 -0.31213428504E+02  0.62924608643E+02  0.80800977788E+02  0.00000000000E+00 0.  1.
<mgrwt>
<rscale>  2 0.19657585E+03</rscale>
<asrwt>0</asrwt>
<pdfrwt beam="1">  1       21 0.63903426E-01 0.19677277E+03</pdfrwt>
<pdfrwt beam="2">  1       21 0.26731300E-01 0.19677277E+03</pdfrwt>
<totfact> 0.30063362E+04</totfact>
</mgrwt>
</event>
<event>
12    1  0.1074575E-001  0.2233139E+03  0.7546771E-02  0.1131747E+00
         21   -1    0    0  501  502  0.00000000000E+00  0.00000000000E+00  0.42802159991E+02  0.42802159991E+02  0.00000000000E+00 0. -1.
         21   -1    0    0  502  503 -0.00000000000E+00 -0.00000000000E+00 -0.11568958936E+04  0.11568958936E+04  0.00000000000E+00 0.  1.
         -6    2    1    2    0  503  0.90974301767E+02 -0.10781109319E+03 -0.57291121605E+03  0.61489540288E+03  0.17311712686E+03 0.  0.
        -24    2    3    3    0    0  0.76545678819E+02 -0.14206178890E+03 -0.41390221420E+03  0.45153308168E+03  0.80785445013E+02 0.  0.
          6    2    1    2  501    0 -0.90974301767E+02  0.10781109319E+03 -0.54118251753E+03  0.58480265068E+03  0.17092708260E+03 0.  0.
         24    2    5    5    0    0 -0.35661094390E+02  0.24829787686E+02 -0.40878330738E+03  0.41898018893E+03  0.80946737507E+02 0.  0.
          5    1    5    5  501    0 -0.55313207376E+02  0.82981305499E+02 -0.13239921015E+03  0.16582246175E+03  0.47000000000E+01 0. -1.
        -13    1    6    6    0    0 -0.69389616566E+01  0.47554393421E+02 -0.14722574787E+03  0.15487088286E+03  0.00000000000E+00 0.  1.
         14    1    6    6    0    0 -0.28722132734E+02 -0.22724605735E+02 -0.26155755951E+03  0.26410930607E+03  0.00000000000E+00 0. -1.
         -5    1    3    3    0  503  0.14428622948E+02  0.34250695714E+02 -0.15900900185E+03  0.16336232120E+03  0.47000000000E+01 0.  1.
         11    1    4    4    0    0 -0.53130202261E+01 -0.72822184772E+02 -0.17904866409E+03  0.19336422340E+03  0.00000000000E+00 0. -1.
        -12    1    4    4    0    0  0.81858699045E+02 -0.69239604128E+02 -0.23485355010E+03  0.25816885828E+03  0.00000000000E+00 0.  1.
<mgrwt>
<rscale>  2 0.22288932E+03</rscale>
<asrwt>0</asrwt>
<pdfrwt beam="1">  1       21 0.65849476E-02 0.22331389E+03</pdfrwt>
<pdfrwt beam="2">  1       21 0.17798398E+00 0.22331389E+03</pdfrwt>
<totfact> 0.30952224E+04</totfact>
</mgrwt>
</event>
<event>
12    1  0.1074575E-001  0.2078051E+03  0.7546771E-02  0.1143506E+00
         21   -1    0    0  501  502  0.00000000000E+00  0.00000000000E+00  0.37390639247E+02  0.37390639247E+02  0.00000000000E+00 0.  1.
         21   -1    0    0  502  503 -0.00000000000E+00 -0.00000000000E+00 -0.18398899343E+04  0.18398899343E+04  0.00000000000E+00 0. -1.
         -6    2    1    2    0  503  0.19763786222E+02  0.11346251535E+03 -0.14774419287E+04  0.14919844552E+04  0.17296997443E+03 0.  0.
        -24    2    3    3    0    0  0.49573339504E+02  0.11172141774E+03 -0.14153901507E+04  0.14229616035E+04  0.80939825436E+02 0.  0.
          6    2    1    2  501    0 -0.19763786222E+02 -0.11346251535E+03 -0.32505736633E+03  0.38529611839E+03  0.17183264475E+03 0.  0.
         24    2    5    5    0    0 -0.39581229480E+02 -0.14339332156E+03 -0.24988681335E+03  0.30186179540E+03  0.80924691164E+02 0.  0.
          5    1    5    5  501    0  0.19817443258E+02  0.29930806205E+02 -0.75170552978E+02  0.83434322987E+02  0.47000000000E+01 0. -1.
        -13    1    6    6    0    0 -0.29929427918E+02 -0.28677019457E+02 -0.22912481033E+02  0.47361628852E+02  0.00000000000E+00 0.  1.
         14    1    6    6    0    0 -0.96518015620E+01 -0.11471630210E+03 -0.22697433232E+03  0.25450016655E+03  0.00000000000E+00 0. -1.
         -5    1    3    3    0  503 -0.29809553282E+02  0.17410976119E+01 -0.62051778085E+02  0.69022851660E+02  0.47000000000E+01 0.  1.
         11    1    4    4    0    0  0.47243377240E+02  0.87653383572E+02 -0.68786830251E+03  0.69503802338E+03  0.00000000000E+00 0. -1.
        -12    1    4    4    0    0  0.23299622638E+01  0.24068034169E+02 -0.72752184815E+03  0.72792358014E+03  0.00000000000E+00 0.  1.
<mgrwt>
<rscale>  2 0.20756827E+03</rscale>
<asrwt>0</asrwt>
<pdfrwt beam="1">  1       21 0.57524052E-02 0.20780511E+03</pdfrwt>
<pdfrwt beam="2">  1       21 0.28306003E+00 0.20780511E+03</pdfrwt>
<totfact> 0.89162200E+03</totfact>
</mgrwt>
</event>
<event>
12    1  0.1074575E-001  0.2151743E+03  0.7546771E-02  0.1137689E+00
         21   -1    0    0  503  502  0.00000000000E+00  0.00000000000E+00  0.28310704898E+02  0.28310704898E+02  0.00000000000E+00 0. -1.
         21   -1    0    0  501  503 -0.00000000000E+00 -0.00000000000E+00 -0.18487524682E+04  0.18487524682E+04  0.00000000000E+00 0. -1.
          6    2    1    2  501    0  0.27146195971E+02  0.12350517702E+03 -0.12351194803E+04  0.12537225000E+04  0.17409632883E+03 0.  0.
         24    2    3    3    0    0 -0.21596306826E+02  0.47435389085E+02 -0.94379899522E+03  0.94867797991E+03  0.80727006528E+02 0.  0.
         -6    2    1    2    0  502 -0.27146195971E+02 -0.12350517702E+03 -0.58532228305E+03  0.62334067313E+03  0.17309238875E+03 0.  0.
        -24    2    5    5    0    0 -0.24991702173E+02 -0.47764531142E+01 -0.15008226195E+03  0.17216762686E+03  0.80433865394E+02 0.  0.
          5    1    3    3  501    0  0.48742502797E+02  0.76069787936E+02 -0.29132048505E+03  0.30504452007E+03  0.47000000000E+01 0. -1.
        -11    1    4    4    0    0  0.11629371957E+02 -0.17425092674E+02 -0.30906074957E+03  0.30976995185E+03  0.00000000000E+00 0.  1.
         12    1    4    4    0    0 -0.33225678783E+02  0.64860481759E+02 -0.63473824566E+03  0.63890802806E+03  0.00000000000E+00 0. -1.
         -5    1    5    5    0  502 -0.21544937985E+01 -0.11872872391E+03 -0.43524002109E+03  0.45117304628E+03  0.47000000000E+01 0.  1.
         11    1    6    6    0    0 -0.23944447275E+02 -0.21542606126E+02 -0.15189398518E+03  0.15527138554E+03  0.00000000000E+00 0. -1.
        -12    1    6    6    0    0 -0.10472548980E+01  0.16766153012E+02  0.18117232233E+01  0.16896241318E+02  0.00000000000E+00 0.  1.
<mgrwt>
<rscale>  2 0.21497114E+03</rscale>
<asrwt>0</asrwt>
<pdfrwt beam="1">  1       21 0.43554932E-02 0.21517429E+03</pdfrwt>
<pdfrwt beam="2">  1       21 0.28442345E+00 0.21517429E+03</pdfrwt>
<totfact> 0.13947447E+04</totfact>
</mgrwt>
</event>
<event>
12    1  0.1074575E-001  0.2126772E+03  0.7546771E-02  0.1139515E+00
         21   -1    0    0  503  502  0.00000000000E+00  0.00000000000E+00  0.22769360612E+03  0.22769360612E+03  0.00000000000E+00 0.  1.
         21   -1    0    0  501  503 -0.00000000000E+00 -0.00000000000E+00 -0.57668620094E+03  0.57668620094E+03  0.00000000000E+00 0.  1.
          6    2    1    2  501    0 -0.10408939214E+03  0.67164354414E+02 -0.50019840954E+03  0.54343000849E+03  0.17254585815E+03 0.  0.
         24    2    3    3    0    0 -0.11034870614E+03  0.10728552146E+03 -0.41541259659E+03  0.44930450114E+03  0.74965920772E+02 0.  0.
         -6    2    1    2    0  502  0.10408939214E+03 -0.67164354414E+02  0.15120581473E+03  0.26094979857E+03  0.17287552430E+03 0.  0.
        -24    2    5    5    0    0  0.34777698250E+02 -0.95574595266E+02  0.63281684660E+02  0.14534705057E+03  0.82323762914E+02 0.  0.
          5    1    3    3  501    0  0.62593140035E+01 -0.40121167043E+02 -0.84785812952E+02  0.94125507353E+02  0.47000000000E+01 0. -1.
        -13    1    4    4    0    0 -0.87197326189E+02  0.44894840498E+02 -0.30507180792E+03  0.32044926024E+03  0.00000000000E+00 0.  1.
         14    1    4    4    0    0 -0.23151379954E+02  0.62390680958E+02 -0.11034078867E+03  0.12885524091E+03  0.00000000000E+00 0. -1.
         -5    1    5    5    0  502  0.69311693890E+02  0.28410240852E+02  0.87924130071E+02  0.11560274799E+03  0.47000000000E+01 0.  1.
         13    1    6    6    0    0  0.59852837689E+02 -0.53469508787E+02  0.28159681215E+02  0.85054795252E+02  0.00000000000E+00 0. -1.
        -14    1    6    6    0    0 -0.25075139439E+02 -0.42105086480E+02  0.35122003445E+02  0.60292255318E+02  0.00000000000E+00 0.  1.
<mgrwt>
<rscale>  2 0.21261022E+03</rscale>
<asrwt>0</asrwt>
<pdfrwt beam="1">  1       21 0.35029786E-01 0.21267722E+03</pdfrwt>
<pdfrwt beam="2">  1       21 0.88720952E-01 0.21267722E+03</pdfrwt>
<totfact> 0.84112208E+03</totfact>
</mgrwt>
</event>
<event>
12    1  0.1074575E-001  0.1948944E+03  0.7546771E-02  0.1154350E+00
         21   -1    0    0  501  502  0.00000000000E+00  0.00000000000E+00  0.15093239353E+03  0.15093239353E+03  0.00000000000E+00 0.  1.
         21   -1    0    0  502  503 -0.00000000000E+00 -0.00000000000E+00 -0.27977731902E+03  0.27977731902E+03  0.00000000000E+00 0.  1.
         -6    2    1    2    0  503 -0.33105356507E+02  0.85850546074E+02 -0.13447604596E+03  0.23678607769E+03  0.17180674829E+03 0.  0.
        -24    2    3    3    0    0 -0.47666358276E+02  0.92923372886E+02 -0.35691803521E+02  0.13657398158E+03  0.80446955611E+02 0.  0.
          6    2    1    2  501    0  0.33105356507E+02 -0.85850546074E+02  0.56311204638E+01  0.19392363486E+03  0.17061179839E+03 0.  0.
         24    2    5    5    0    0  0.62873766248E+02 -0.68844963510E+02  0.59370642150E+02  0.13000670246E+03  0.68440704648E+02 0.  0.
          5    1    5    5  501    0 -0.29768409740E+02 -0.17005582564E+02 -0.53739521687E+02  0.63916932404E+02  0.47000000000E+01 0. -1.
        -13    1    6    6    0    0  0.65175683418E+02 -0.42383655456E+02  0.16347343895E+02  0.79444821173E+02  0.00000000000E+00 0.  1.
         14    1    6    6    0    0 -0.23019171705E+01 -0.26461308054E+02  0.43023298256E+02  0.50561881288E+02  0.00000000000E+00 0. -1.
         -5    1    3    3    0  503  0.14561001769E+02 -0.70728268122E+01 -0.98784242435E+02  0.10021209610E+03  0.47000000000E+01 0.  1.
         11    1    4    4    0    0 -0.31827801794E+02 -0.53579233552E+01 -0.91176303157E+01  0.33538746135E+02  0.00000000000E+00 0. -1.
        -12    1    4    4    0    0 -0.15838556482E+02  0.98281296242E+02 -0.26574173205E+02  0.10303523545E+03  0.00000000000E+00 0.  1.
<mgrwt>
<rscale>  2 0.19463075E+03</rscale>
<asrwt>0</asrwt>
<pdfrwt beam="1">  1       21 0.23220368E-01 0.19489443E+03</pdfrwt>
<pdfrwt beam="2">  1       21 0.43042664E-01 0.19489443E+03</pdfrwt>
<totfact> 0.90391686E+04</totfact>
</mgrwt>
</event>
<event>
12    1  0.1074575E-001  0.2384244E+03  0.7546771E-02  0.1120991E+00
         21   -1    0    0  501  502  0.00000000000E+00  0.00000000000E+00  0.61006372345E+03  0.61006372345E+03  0.00000000000E+00 0.  1.
         21   -1    0    0  502  503 -0.00000000000E+00 -0.00000000000E+00 -0.10369681224E+03  0.10369681224E+03  0.00000000000E+00 0. -1.
         -6    2    1    2    0  503 -0.13429055644E+03  0.94195373544E+02  0.36902605730E+03  0.43934771603E+03  0.17303023629E+03 0.  0.
        -24    2    3    3    0    0 -0.12313902319E+03  0.14890123210E+02  0.17406839345E+03  0.22852964252E+03  0.80876802060E+02 0.  0.
          6    2    1    2  501    0  0.13429055644E+03 -0.94195373544E+02  0.13734085391E+03  0.27441281967E+03  0.17185215594E+03 0.  0.
         24    2    5    5    0    0  0.12020741920E+03 -0.14868148133E+02  0.44884353385E+02  0.15168776951E+03  0.79521624622E+02 0.  0.
          5    1    5    5  501    0  0.14083137239E+02 -0.79327225412E+02  0.92456500524E+02  0.12272505015E+03  0.47000000000E+01 0. -1.
        -11    1    6    6    0    0  0.44608520442E+01  0.21432623821E+02 -0.11966948503E+01  0.21924612730E+02  0.00000000000E+00 0.  1.
         12    1    6    6    0    0  0.11574656715E+03 -0.36300771954E+02  0.46081048235E+02  0.12976315678E+03  0.00000000000E+00 0. -1.
         -5    1    3    3    0  503 -0.11151533246E+02  0.79305250334E+02  0.19495766385E+03  0.21081807351E+03  0.47000000000E+01 0.  1.
         11    1    4    4    0    0  0.60517005931E+01  0.97562804526E+01 -0.26542913950E+00  0.11483838251E+02  0.00000000000E+00 0. -1.
        -12    1    4    4    0    0 -0.12919072378E+03  0.51338427575E+01  0.17433382259E+03  0.21704580427E+03  0.00000000000E+00 0.  1.
<mgrwt>
<rscale>  2 0.23821070E+03</rscale>
<asrwt>0</asrwt>
<pdfrwt beam="1">  1       21 0.93855956E-01 0.23842438E+03</pdfrwt>
<pdfrwt beam="2">  1       21 0.15953356E-01 0.23842438E+03</pdfrwt>
<totfact> 0.32618315E+04</totfact>
</mgrwt>
</event>
<event>
12    1  0.1074575E-001  0.2010101E+03  0.7546771E-02  0.1148971E+00
         21   -1    0    0  501  502  0.00000000000E+00  0.00000000000E+00  0.11899453070E+04  0.11899453070E+04  0.00000000000E+00 0. -1.
         21   -1    0    0  502  503 -0.00000000000E+00 -0.00000000000E+00 -0.57519866693E+02  0.57519866693E+02  0.00000000000E+00 0. -1.
         -6    2    1    2    0  503 -0.23535149243E+02  0.10011116180E+03  0.16675603140E+03  0.26117544760E+03  0.17271042949E+03 0.  0.
        -24    2    3    3    0    0 -0.16236244456E+02  0.12267022614E+03  0.18158702428E+03  0.23281643237E+03  0.76928822794E+02 0.  0.
          6    2    1    2  501    0  0.23535149243E+02 -0.10011116180E+03  0.96566940889E+03  0.98628972607E+03  0.17226104762E+03 0.  0.
         24    2    5    5    0    0  0.36084854579E+02 -0.22129273651E+01  0.63265649180E+03  0.63892644023E+03  0.81644017673E+02 0.  0.
          5    1    5    5  501    0 -0.12549705335E+02 -0.97898234431E+02  0.33301291708E+03  0.34736328584E+03  0.47000000000E+01 0. -1.
        -13    1    6    6    0    0  0.34066109353E+02 -0.31776401620E+02  0.53098711542E+03  0.53302678755E+03  0.00000000000E+00 0.  1.
         14    1    6    6    0    0  0.20187452254E+01  0.29563474255E+02  0.10166937639E+03  0.10589965268E+03  0.00000000000E+00 0. -1.
         -5    1    3    3    0  503 -0.72989047878E+01 -0.22559064344E+02 -0.14830992883E+02  0.28359015235E+02  0.47000000000E+01 0.  1.
         11    1    4    4    0    0  0.89682615075E+01  0.24843396074E+02  0.16541528252E+01  0.26464320595E+02  0.00000000000E+00 0. -1.
        -12    1    4    4    0    0 -0.25204505963E+02  0.97826830066E+02  0.17993287146E+03  0.20635211177E+03  0.00000000000E+00 0.  1.
<mgrwt>
<rscale>  2 0.20091349E+03</rscale>
<asrwt>0</asrwt>
<pdfrwt beam="1">  1       21 0.18306849E+00 0.20101005E+03</pdfrwt>
<pdfrwt beam="2">  1       21 0.88492112E-02 0.20101005E+03</pdfrwt>
<totfact> 0.17345390E+04</totfact>
</mgrwt>
</event>
<event>
12    1  0.1074575E-001  0.2348348E+03  0.7546771E-02  0.1125824E+00
         21   -1    0    0  503  502  0.00000000000E+00  0.00000000000E+00  0.10178516337E+04  0.10178516337E+04  0.00000000000E+00 0. -1.
         21   -1    0    0  501  503 -0.00000000000E+00 -0.00000000000E+00 -0.52284184965E+02  0.52284184965E+02  0.00000000000E+00 0. -1.
          6    2    1    2  501    0 -0.30127812064E+02 -0.13513112869E+03  0.58398772067E+03  0.62943548367E+03  0.18968200548E+03 0.  0.
         24    2    3    3    0    0  0.16814752836E+01 -0.16012654450E+03  0.38940552038E+03  0.43063678085E+03  0.90377210089E+02 0.  0.
         -6    2    1    2    0  502  0.30127812064E+02  0.13513112869E+03  0.38157972807E+03  0.44070033500E+03  0.17159717187E+03 0.  0.
        -24    2    5    5    0    0  0.11648894458E+02  0.15696694094E+03  0.36855343683E+03  0.40891909280E+03  0.81294965213E+02 0.  0.
          5    1    3    3  501    0 -0.31809287347E+02  0.24995415808E+02  0.19458220029E+03  0.19879870282E+03  0.47000000000E+01 0. -1.
        -13    1    4    4    0    0 -0.10066305026E+02  0.32887032307E+01  0.78436074781E+02  0.79147734603E+02  0.00000000000E+00 0.  1.
         14    1    4    4    0    0  0.11747780310E+02 -0.16341524773E+03  0.31096944560E+03  0.35148904625E+03  0.00000000000E+00 0. -1.
         -5    1    5    5    0  502  0.18478917605E+02 -0.21835812245E+02  0.13026291240E+02  0.31781242200E+02  0.47000000000E+01 0.  1.
         13    1    6    6    0    0  0.38904993726E+02  0.40932481207E+02  0.94845960633E+02  0.11038488485E+03  0.00000000000E+00 0. -1.
        -14    1    6    6    0    0 -0.27256099267E+02  0.11603445973E+03  0.27370747619E+03  0.29853420795E+03  0.00000000000E+00 0.  1.
<mgrwt>
<rscale>  2 0.23116210E+03</rscale>
<asrwt>0</asrwt>
<pdfrwt beam="1">  1       21 0.15659254E+00 0.23483477E+03</pdfrwt>
<pdfrwt beam="2">  1       21 0.80437215E-02 0.23483477E+03</pdfrwt>
<totfact> 0.30913883E+04</totfact>
</mgrwt>
</event>
<event>
12    1  0.1074575E-001  0.1768771E+03  0.7546771E-02  0.1170983E+00
         21   -1    0    0  503  502  0.00000000000E+00  0.00000000000E+00  0.16428230501E+04  0.16428230501E+04  0.00000000000E+00 0. -1.
         21   -1    0    0  501  503 -0.00000000000E+00 -0.00000000000E+00 -0.31209666274E+02  0.31209666274E+02  0.00000000000E+00 0. -1.
          6    2    1    2  501    0 -0.32910677224E+02 -0.14835326246E+02  0.28138839702E+03  0.33209977285E+03  0.17264886204E+03 0.  0.
         24    2    3    3    0    0 -0.96920020262E+01 -0.51887506161E+02  0.26881304303E+03  0.28635919521E+03  0.83395973396E+02 0.  0.
         -6    2    1    2    0  502  0.32910677224E+02  0.14835326246E+02  0.13302249868E+04  0.13419329436E+04  0.17315400611E+03 0.  0.
        -24    2    5    5    0    0  0.38746949947E+02 -0.54863149469E+02  0.62554727226E+03  0.63377709135E+03  0.76503074402E+02 0.  0.
          5    1    3    3  501    0 -0.23218675198E+02  0.37052179916E+02  0.12575353993E+02  0.45740577636E+02  0.47000000000E+01 0. -1.
        -13    1    4    4    0    0 -0.24462333925E+02 -0.12854412734E+02  0.22171667639E+03  0.22343215144E+03  0.00000000000E+00 0.  1.
         14    1    4    4    0    0  0.14770331898E+02 -0.39033093427E+02  0.47096366643E+02  0.62927043772E+02  0.00000000000E+00 0. -1.
         -5    1    5    5    0  502 -0.58362727226E+01  0.69698475715E+02  0.70467771459E+03  0.70815585223E+03  0.47000000000E+01 0.  1.
         11    1    6    6    0    0  0.16931441075E+02 -0.11050142974E+02  0.47590059630E+03  0.47632988245E+03  0.00000000000E+00 0. -1.
        -12    1    6    6    0    0  0.21815508872E+02 -0.43813006495E+02  0.14964667596E+03  0.15744720890E+03  0.00000000000E+00 0.  1.
<mgrwt>
<rscale>  2 0.17675335E+03</rscale>
<asrwt>0</asrwt>
<pdfrwt beam="1">  1       21 0.25274194E+00 0.17687710E+03</pdfrwt>
<pdfrwt beam="2">  1       21 0.48014884E-02 0.17687710E+03</pdfrwt>
<totfact> 0.18727703E+04</totfact>
</mgrwt>
</event>
<event>
12    1  0.1074575E-001  0.3150609E+03  0.7546771E-02  0.1078047E+00
         21   -1    0    0  501  502  0.00000000000E+00  0.00000000000E+00  0.28092362318E+03  0.28092362318E+03  0.00000000000E+00 0.  1.
         21   -1    0    0  502  503 -0.00000000000E+00 -0.00000000000E+00 -0.55622003657E+03  0.55622003657E+03  0.00000000000E+00 0. -1.
         -6    2    1    2    0  503 -0.47183491349E+02 -0.25843504903E+03 -0.39092404444E+03  0.50153504182E+03  0.17233929682E+03 0.  0.
        -24    2    3    3    0    0 -0.48011368732E+02 -0.24481415740E+03 -0.25748673572E+03  0.36731947108E+03  0.79906893149E+02 0.  0.
          6    2    1    2  501    0  0.47183491349E+02  0.25843504903E+03  0.11562763106E+03  0.33560861794E+03  0.17392078354E+03 0.  0.
         24    2    5    5    0    0 -0.15686310134E+02  0.21809188600E+03  0.11868345526E+03  0.26069793243E+03  0.77894276786E+02 0.  0.
          5    1    5    5  501    0  0.62869801483E+02  0.40343163026E+02 -0.30558242015E+01  0.74910685507E+02  0.47000000000E+01 0. -1.
        -13    1    6    6    0    0  0.30878115389E+02  0.10668244223E+03  0.63546726881E+02  0.12795619558E+03  0.00000000000E+00 0.  1.
         14    1    6    6    0    0 -0.46564425523E+02  0.11140944377E+03  0.55136728376E+02  0.13274173685E+03  0.00000000000E+00 0. -1.
         -5    1    3    3    0  503  0.82787738315E+00 -0.13620891629E+02 -0.13343730872E+03  0.13421557074E+03  0.47000000000E+01 0.  1.
         11    1    4    4    0    0 -0.57041010026E+02 -0.23480233292E+03 -0.25843985075E+03  0.35380357379E+03  0.00000000000E+00 0. -1.
        -12    1    4    4    0    0  0.90296412944E+01 -0.10011824476E+02  0.95311503304E+00  0.13515897288E+02  0.00000000000E+00 0.  1.
<mgrwt>
<rscale>  2 0.31484315E+03</rscale>
<asrwt>0</asrwt>
<pdfrwt beam="1">  1       21 0.43219019E-01 0.31506094E+03</pdfrwt>
<pdfrwt beam="2">  1       21 0.85572313E-01 0.31506094E+03</pdfrwt>
<totfact> 0.56384689E+03</totfact>
</mgrwt>
</event>
<event>
12    1  0.1074575E-001  0.1851081E+03  0.7546771E-02  0.1164561E+00
         21   -1    0    0  501  502  0.00000000000E+00  0.00000000000E+00  0.44329485833E+02  0.44329485833E+02  0.00000000000E+00 0. -1.
         21   -1    0    0  502  503 -0.00000000000E+00 -0.00000000000E+00 -0.86651954179E+03  0.86651954179E+03  0.00000000000E+00 0. -1.
         -6    2    1    2    0  503 -0.57239750582E+02  0.38562871861E+02 -0.57507871019E+03  0.60209506736E+03  0.16443680579E+03 0.  0.
        -24    2    3    3    0    0 -0.51981254174E+02  0.78846944900E+02 -0.30998992099E+03  0.33387013474E+03  0.80353122201E+02 0.  0.
          6    2    1    2  501    0  0.57239750582E+02 -0.38562871861E+02 -0.24711134577E+03  0.30875396025E+03  0.17176002630E+03 0.  0.
         24    2    5    5    0    0 -0.11128166294E+01 -0.73646677209E+02 -0.11165671803E+03  0.15707686352E+03  0.82345898188E+02 0.  0.
          5    1    5    5  501    0  0.58352567211E+02  0.35083805349E+02 -0.13545462774E+03  0.15167709673E+03  0.47000000000E+01 0. -1.
        -11    1    6    6    0    0  0.67579923477E+01 -0.66785332493E+02 -0.12394282130E+03  0.14095309166E+03  0.00000000000E+00 0.  1.
         12    1    6    6    0    0 -0.78708089771E+01 -0.68613447163E+01  0.12286103275E+02  0.16123771859E+02  0.00000000000E+00 0. -1.
         -5    1    3    3    0  503 -0.52584964076E+01 -0.40284073039E+02 -0.26508878920E+03  0.26822493263E+03  0.47000000000E+01 0.  1.
         11    1    4    4    0    0 -0.10224396491E+02  0.26318355874E+02 -0.21899900239E+03  0.22081158753E+03  0.00000000000E+00 0. -1.
        -12    1    4    4    0    0 -0.41756857683E+02  0.52528589026E+02 -0.90990918599E+02  0.11305854720E+03  0.00000000000E+00 0.  1.
<mgrwt>
<rscale>  2 0.18339074E+03</rscale>
<asrwt>0</asrwt>
<pdfrwt beam="1">  1       21 0.68199210E-02 0.18510805E+03</pdfrwt>
<pdfrwt beam="2">  1       21 0.13331070E+00 0.18510805E+03</pdfrwt>
<totfact> 0.64420792E+04</totfact>
</mgrwt>
</event>
<event>
11    1  0.1074575E-001  0.2167162E+03  0.7546771E-02  0.1136397E+00
         21   -1    0    0  501  502  0.00000000000E+00  0.00000000000E+00  0.66255645461E+02  0.66255645461E+02  0.00000000000E+00 0. -1.
         21   -1    0    0  502  503 -0.00000000000E+00 -0.00000000000E+00 -0.72024996824E+03  0.72024996824E+03  0.00000000000E+00 0. -1.
         -6    2    1    2    0  503  0.12846652562E+03  0.21148614572E+02 -0.37813326613E+03  0.43583333901E+03  0.17324843532E+03 0.  0.
          6    2    1    2  501    0 -0.12846652562E+03 -0.21148614572E+02 -0.27586105665E+03  0.35067227469E+03  0.17297632658E+03 0.  0.
         24    2    4    4    0    0  0.41258485250E+01 -0.87609127726E+01 -0.75415022910E+02  0.10997558738E+03  0.79457082261E+02 0.  0.
          5    1    4    4  501    0 -0.13259237414E+03 -0.12387701799E+02 -0.20044603374E+03  0.24069668731E+03  0.47000000000E+01 0. -1.
        -11    1    5    5    0    0  0.79995961612E+01 -0.39700455137E+02 -0.65945685611E+02  0.77388326817E+02  0.00000000000E+00 0.  1.
         12    1    5    5    0    0 -0.38737476362E+01  0.30939542364E+02 -0.94693372987E+01  0.32587260568E+02  0.00000000000E+00 0. -1.
         -5    1    3    3    0  503  0.72056756008E+01 -0.60448585280E+02 -0.17378729975E+03  0.18420116389E+03  0.47000000000E+01 0.  1.
         11    1    3    3    0    0  0.18726359675E+02  0.78413377650E+01 -0.33402911856E+02  0.39088587146E+02  0.00000000000E+00 0. -1.
        -12    1    3    3    0    0  0.10253449034E+03  0.73755862087E+02 -0.17094305452E+03  0.21254358798E+03  0.00000000000E+00 0.  1.
<mgrwt>
<rscale>  2 0.21666186E+03</rscale>
<asrwt>0</asrwt>
<pdfrwt beam="1">  1       21 0.10193176E-01 0.21671625E+03</pdfrwt>
<pdfrwt beam="2">  1       21 0.11080769E+00 0.21671625E+03</pdfrwt>
<totfact> 0.49718162E+04</totfact>
</mgrwt>
</event>
<event>
12    1  0.1074575E-001  0.1895945E+03  0.7546771E-02  0.1158927E+00
         21   -1    0    0  503  502  0.00000000000E+00  0.00000000000E+00  0.12483383292E+03  0.12483383292E+03  0.00000000000E+00 0.  1.
         21   -1    0    0  501  503 -0.00000000000E+00 -0.00000000000E+00 -0.76622682899E+03  0.76622682899E+03  0.00000000000E+00 0.  1.
          6    2    1    2  501    0  0.78081839653E+02  0.24356021126E+00 -0.67307631687E+03  0.69926947529E+03  0.17276931942E+03 0.  0.
         24    2    3    3    0    0  0.88880272095E+02  0.55852111962E+02 -0.44011699041E+03  0.45947569940E+03  0.79973695120E+02 0.  0.
         -6    2    1    2    0  502 -0.78081839653E+02 -0.24356021126E+00  0.31683320802E+02  0.19179118662E+03  0.17228811173E+03 0.  0.
        -24    2    5    5    0    0  0.25287377136E+01  0.28351830418E+02  0.56890345390E+02  0.10249815421E+03  0.80368771389E+02 0.  0.
          5    1    3    3  501    0 -0.10798432441E+02 -0.55608551751E+02 -0.23295932646E+03  0.23979377589E+03  0.47000000000E+01 0. -1.
        -13    1    4    4    0    0  0.10269295514E+03  0.57776516326E+02 -0.40062858815E+03  0.41759697618E+03  0.00000000000E+00 0.  1.
         14    1    4    4    0    0 -0.13812683045E+02 -0.19244043642E+01 -0.39488402262E+02  0.41878723217E+02  0.00000000000E+00 0. -1.
         -5    1    5    5    0  502 -0.80610577367E+02 -0.28595390629E+02 -0.25207024588E+02  0.89293032411E+02  0.47000000000E+01 0.  1.
         13    1    6    6    0    0  0.25247330317E+02  0.23564333331E+02 -0.63643229215E+01  0.35117091277E+02  0.00000000000E+00 0. -1.
        -14    1    6    6    0    0 -0.22718592604E+02  0.47874970863E+01  0.63254668312E+02  0.67381062929E+02  0.00000000000E+00 0.  1.
<mgrwt>
<rscale>  2 0.18948480E+03</rscale>
<asrwt>0</asrwt>
<pdfrwt beam="1">  1       21 0.19205205E-01 0.18959449E+03</pdfrwt>
<pdfrwt beam="2">  1       21 0.11788105E+00 0.18959449E+03</pdfrwt>
<totfact> 0.13767810E+04</totfact>
</mgrwt>
</event>
<event>
12    1  0.1074575E-001  0.2022016E+03  0.7546771E-02  0.1148063E+00
         21   -1    0    0  503  502  0.00000000000E+00  0.00000000000E+00  0.10839875066E+03  0.10839875066E+03  0.00000000000E+00 0.  1.
         21   -1    0    0  501  503 -0.00000000000E+00 -0.00000000000E+00 -0.53346748683E+03  0.53346748683E+03  0.00000000000E+00 0.  1.
          6    2    1    2  501    0 -0.30792970636E+02 -0.96735981789E+02 -0.38738184492E+03  0.43697847426E+03  0.17486976862E+03 0.  0.
         24    2    3    3    0    0  0.45734887454E+02 -0.54967116719E+02 -0.27023391266E+03  0.29087276189E+03  0.80420968711E+02 0.  0.
         -6    2    1    2    0  502  0.30792970636E+02  0.96735981789E+02 -0.37686891248E+02  0.20488776323E+03  0.17393285065E+03 0.  0.
        -24    2    5    5    0    0  0.90223544032E+01  0.82293579422E+02 -0.90213755617E+02  0.14603452035E+03  0.79585949374E+02 0.  0.
          5    1    3    3  501    0 -0.76527858090E+02 -0.41768865071E+02 -0.11714793226E+03  0.14610571237E+03  0.47000000000E+01 0. -1.
        -13    1    4    4    0    0  0.37390877588E+02 -0.20018930418E+02 -0.24056789000E+03  0.24427800761E+03  0.00000000000E+00 0.  1.
         14    1    4    4    0    0  0.83440098659E+01 -0.34948186301E+02 -0.29666022660E+02  0.46594754284E+02  0.00000000000E+00 0. -1.
         -5    1    5    5    0  502  0.21770616232E+02  0.14442402367E+02  0.52526864369E+02  0.58853242882E+02  0.47000000000E+01 0.  1.
         13    1    6    6    0    0 -0.28702691726E+02  0.84897830853E+01 -0.36767187025E+02  0.47410409942E+02  0.00000000000E+00 0. -1.
        -14    1    6    6    0    0  0.37725046129E+02  0.73803796337E+02 -0.53446568592E+02  0.98624110406E+02  0.00000000000E+00 0.  1.
<mgrwt>
<rscale>  2 0.20199888E+03</rscale>
<asrwt>0</asrwt>
<pdfrwt beam="1">  1       21 0.16676731E-01 0.20220162E+03</pdfrwt>
<pdfrwt beam="2">  1       21 0.82071922E-01 0.20220162E+03</pdfrwt>
<totfact> 0.41737558E+04</totfact>
</mgrwt>
</event>
<event>
12    1  0.1074575E-001  0.2924863E+03  0.7546771E-02  0.1090715E+00
         21   -1    0    0  501  502  0.00000000000E+00  0.00000000000E+00  0.18475684630E+03  0.18475684630E+03  0.00000000000E+00 0. -1.
         21   -1    0    0  502  503 -0.00000000000E+00 -0.00000000000E+00 -0.66696111978E+03  0.66696111978E+03  0.00000000000E+00 0. -1.
         -6    2    1    2    0  503  0.19690612626E+03 -0.12985474992E+03 -0.48411102700E+03  0.55922543507E+03  0.15078236677E+03 0.  0.
        -24    2    3    3    0    0  0.10246368784E+03 -0.11846079710E+03 -0.33995935650E+03  0.38645104332E+03  0.96126359737E+02 0.  0.
          6    2    1    2  501    0 -0.19690612626E+03  0.12985474992E+03  0.19067535201E+01  0.29249253102E+03  0.17295654471E+03 0.  0.
         24    2    5    5    0    0 -0.94340063792E+02  0.65915688411E+02  0.64552064384E+02  0.15627753284E+03  0.83730356730E+02 0.  0.
          5    1    5    5  501    0 -0.10256606247E+03  0.63939061506E+02 -0.62645310864E+02  0.13621499818E+03  0.47000000000E+01 0. -1.
        -11    1    6    6    0    0  0.11620788707E+02 -0.66788611447E+01  0.25153323580E+01  0.13637331603E+02  0.00000000000E+00 0.  1.
         12    1    6    6    0    0 -0.10596085250E+03  0.72594549555E+02  0.62036732026E+02  0.14264020123E+03  0.00000000000E+00 0. -1.
         -5    1    3    3    0  503  0.94442438422E+02 -0.11393952820E+02 -0.14415167050E+03  0.17277439175E+03  0.47000000000E+01 0.  1.
         11    1    4    4    0    0  0.96513862213E+02 -0.10082855526E+03 -0.34032883787E+03  0.36783833547E+03  0.00000000000E+00 0. -1.
        -12    1    4    4    0    0  0.59498256246E+01 -0.17632241832E+02  0.36948136892E+00  0.18612707849E+02  0.00000000000E+00 0.  1.
<mgrwt>
<rscale>  2 0.28929946E+03</rscale>
<asrwt>0</asrwt>
<pdfrwt beam="1">  1       21 0.28424131E-01 0.29248632E+03</pdfrwt>
<pdfrwt beam="2">  1       21 0.10260940E+00 0.29248632E+03</pdfrwt>
<totfact> 0.86046963E+03</totfact>
</mgrwt>
</event>
<event>
12    1  0.1074575E-001  0.2113196E+03  0.7546771E-02  0.1140734E+00
         21   -1    0    0  501  502  0.00000000000E+00  0.00000000000E+00  0.17051710337E+03  0.17051710337E+03  0.00000000000E+00 0. -1.
         21   -1    0    0  502  503 -0.00000000000E+00 -0.00000000000E+00 -0.26166267385E+03  0.26166267385E+03  0.00000000000E+00 0. -1.
         -6    2    1    2    0  503 -0.83182127691E+02 -0.90533305597E+02 -0.31500129108E+02  0.21260393810E+03  0.17056561955E+03 0.  0.
        -24    2    3    3    0    0 -0.11381867471E+03 -0.31099230085E+02 -0.20524783272E+02  0.14468077886E+03  0.81175169966E+02 0.  0.
          6    2    1    2  501    0  0.83182127691E+02  0.90533305597E+02 -0.59645441377E+02  0.21957583912E+03  0.17187328081E+03 0.  0.
         24    2    5    5    0    0 -0.20677238249E+02  0.36029373361E+02 -0.41549387242E+02  0.10080293102E+03  0.81909800365E+02 0.  0.
          5    1    5    5  501    0  0.10385936594E+03  0.54503932236E+02 -0.18096054135E+02  0.11877290810E+03  0.47000000000E+01 0. -1.
        -13    1    6    6    0    0 -0.42462865742E+02 -0.61289323010E+01 -0.28774928416E+02  0.51659029061E+02  0.00000000000E+00 0.  1.
         14    1    6    6    0    0  0.21785627493E+02  0.42158305662E+02 -0.12774458826E+02  0.49143901960E+02  0.00000000000E+00 0. -1.
         -5    1    3    3    0  503  0.30636547018E+02 -0.59434075512E+02 -0.10975345836E+02  0.67923159241E+02  0.47000000000E+01 0.  1.
         11    1    4    4    0    0 -0.88819012360E+02 -0.39740323274E+02  0.16992252781E+02  0.98776752858E+02  0.00000000000E+00 0. -1.
        -12    1    4    4    0    0 -0.24999662348E+02  0.86410931895E+01 -0.37517036053E+02  0.45904026002E+02  0.00000000000E+00 0.  1.
<mgrwt>
<rscale>  2 0.21105354E+03</rscale>
<asrwt>0</asrwt>
<pdfrwt beam="1">  1       21 0.26233401E-01 0.21131959E+03</pdfrwt>
<pdfrwt beam="2">  1       21 0.40255796E-01 0.21131959E+03</pdfrwt>
<totfact> 0.81492035E+04</totfact>
</mgrwt>
</event>
<event>
12    1  0.1074575E-001  0.2254291E+03  0.7546771E-02  0.1129994E+00
         21   -1    0    0  503  502  0.00000000000E+00  0.00000000000E+00  0.10236459200E+04  0.10236459200E+04  0.00000000000E+00 0. -1.
         21   -1    0    0  501  503 -0.00000000000E+00 -0.00000000000E+00 -0.49973978960E+02  0.49973978960E+02  0.00000000000E+00 0.  1.
          6    2    1    2  501    0  0.22638672159E+02 -0.14141220011E+03  0.43563803541E+03  0.49026856948E+03  0.17341526031E+03 0.  0.
         24    2    3    3    0    0  0.31418658100E+02 -0.14679189581E+03  0.23957552989E+03  0.29387960505E+03  0.80210940593E+02 0.  0.
         -6    2    1    2    0  502 -0.22638672159E+02  0.14141220011E+03  0.53803390563E+03  0.58335132948E+03  0.17409299291E+03 0.  0.
        -24    2    5    5    0    0 -0.19953333243E+02  0.12613231391E+03  0.54513094165E+03  0.56565545743E+03  0.80565854112E+02 0.  0.
          5    1    3    3  501    0 -0.87799859410E+01  0.53796957019E+01  0.19606250552E+03  0.19638896443E+03  0.47000000000E+01 0. -1.
        -11    1    4    4    0    0 -0.19134070723E+02 -0.94857943891E+02  0.15219846782E+03  0.18035663500E+03  0.00000000000E+00 0.  1.
         12    1    4    4    0    0  0.50552728824E+02 -0.51933951919E+02  0.87377062074E+02  0.11352297005E+03  0.00000000000E+00 0. -1.
         -5    1    5    5    0  502 -0.26853389169E+01  0.15279886201E+02 -0.70970360238E+01  0.17695872053E+02  0.47000000000E+01 0.  1.
         11    1    6    6    0    0 -0.13955928616E+02 -0.77630089261E+01  0.40669884474E+02  0.43692925677E+02  0.00000000000E+00 0. -1.
        -12    1    6    6    0    0 -0.59974046268E+01  0.13389532283E+03  0.50446105718E+03  0.52196253175E+03  0.00000000000E+00 0.  1.
<mgrwt>
<rscale>  2 0.22529826E+03</rscale>
<asrwt>0</asrwt>
<pdfrwt beam="1">  1       21 0.15748397E+00 0.22542912E+03</pdfrwt>
<pdfrwt beam="2">  1       21 0.76883052E-02 0.22542912E+03</pdfrwt>
<totfact> 0.33115509E+04</totfact>
</mgrwt>
</event>
<event>
12    1  0.1074575E-001  0.2197691E+03  0.7546771E-02  0.1134103E+00
         21   -1    0    0  501  502  0.00000000000E+00  0.00000000000E+00  0.71764724279E+03  0.71764724279E+03  0.00000000000E+00 0.  1.
         21   -1    0    0  502  503 -0.00000000000E+00 -0.00000000000E+00 -0.12456813127E+03  0.12456813127E+03  0.00000000000E+00 0.  1.
         -6    2    1    2    0  503 -0.13208277123E+03  0.27999627414E+02  0.10914594204E+02  0.22003996457E+03  0.17340305663E+03 0.  0.
        -24    2    3    3    0    0 -0.79795627139E+02  0.91219077670E+01  0.71614840423E+02  0.13759650742E+03  0.85752913494E+02 0.  0.
          6    2    1    2  501    0  0.13208277123E+03 -0.27999627414E+02  0.58216451731E+03  0.62217540950E+03  0.17308055169E+03 0.  0.
         24    2    5    5    0    0  0.10476589860E+03 -0.34294267003E+02  0.57717137269E+03  0.59331617335E+03  0.82129762224E+02 0.  0.
          5    1    5    5  501    0  0.27316872630E+02  0.62946395886E+01  0.49931446198E+01  0.28859236148E+02  0.47000000000E+01 0. -1.
        -13    1    6    6    0    0  0.52645680937E+02 -0.41324260621E+02  0.16898814791E+03  0.18175878623E+03  0.00000000000E+00 0.  1.
         14    1    6    6    0    0  0.52120217659E+02  0.70299936186E+01  0.40818322478E+03  0.41155738712E+03  0.00000000000E+00 0. -1.
         -5    1    3    3    0  503 -0.52287144087E+02  0.18877719647E+02 -0.60700246219E+02  0.82443457151E+02  0.47000000000E+01 0.  1.
         13    1    4    4    0    0 -0.95219686522E+02  0.80960001533E+01  0.75346884825E+02  0.12169423558E+03  0.00000000000E+00 0. -1.
        -14    1    4    4    0    0  0.15424059383E+02  0.10259076137E+01 -0.37320444019E+01  0.15902271840E+02  0.00000000000E+00 0.  1.
<mgrwt>
<rscale>  2 0.21970548E+03</rscale>
<asrwt>0</asrwt>
<pdfrwt beam="1">  1       21 0.11040727E+00 0.21976910E+03</pdfrwt>
<pdfrwt beam="2">  1       21 0.19164328E-01 0.21976910E+03</pdfrwt>
<totfact> 0.15901789E+04</totfact>
</mgrwt>
</event>
<event>
12    1  0.1074575E-001  0.2175418E+03  0.7546771E-02  0.1135959E+00
         21   -1    0    0  501  502  0.00000000000E+00  0.00000000000E+00  0.15911428839E+03  0.15911428839E+03  0.00000000000E+00 0. -1.
         21   -1    0    0  502  503 -0.00000000000E+00 -0.00000000000E+00 -0.31952070200E+03  0.31952070200E+03  0.00000000000E+00 0.  1.
         -6    2    1    2    0  503 -0.97194872508E+01 -0.13174975617E+03 -0.14524467922E+03  0.26056542969E+03  0.17130633270E+03 0.  0.
        -24    2    3    3    0    0 -0.60207362355E+02 -0.41059322568E+02 -0.47409243135E+02  0.11785017881E+03  0.79562766787E+02 0.  0.
          6    2    1    2  501    0  0.97194872508E+01  0.13174975617E+03 -0.15161734391E+02  0.21806956070E+03  0.17283514813E+03 0.  0.
         24    2    5    5    0    0  0.55314648544E+02  0.10473686778E+03 -0.53014795609E+02  0.15277362578E+03  0.80620657189E+02 0.  0.
          5    1    5    5  501    0 -0.45595161293E+02  0.27012888396E+02  0.37853061218E+02  0.65295934915E+02  0.47000000000E+01 0. -1.
        -13    1    6    6    0    0  0.23048591330E+02  0.10774249387E+03 -0.47133869655E+02  0.11983857566E+03  0.00000000000E+00 0.  1.
         14    1    6    6    0    0  0.32266057214E+02 -0.30056260932E+01 -0.58809259543E+01  0.32935050120E+02  0.00000000000E+00 0. -1.
         -5    1    3    3    0  503  0.50487875104E+02 -0.90690433607E+02 -0.97835436081E+02  0.14271525088E+03  0.47000000000E+01 0.  1.
         11    1    4    4    0    0  0.81817062696E+01 -0.20713786411E+02 -0.40430125205E+02  0.46158382652E+02  0.00000000000E+00 0. -1.
        -12    1    4    4    0    0 -0.68389068625E+02 -0.20345536157E+02 -0.69791179305E+01  0.71691796155E+02  0.00000000000E+00 0.  1.
<mgrwt>
<rscale>  2 0.21723805E+03</rscale>
<asrwt>0</asrwt>
<pdfrwt beam="1">  1       21 0.24479121E-01 0.21754185E+03</pdfrwt>
<pdfrwt beam="2">  1       21 0.49157031E-01 0.21754185E+03</pdfrwt>
<totfact> 0.61548644E+04</totfact>
</mgrwt>
</event>
<event>
12    1  0.1074575E-001  0.2966955E+03  0.7546771E-02  0.1086960E+00
         21   -1    0    0  503  502  0.00000000000E+00  0.00000000000E+00  0.14061686255E+03  0.14061686255E+03  0.00000000000E+00 0. -1.
         21   -1    0    0  501  503 -0.00000000000E+00 -0.00000000000E+00 -0.88201543112E+03  0.88201543112E+03  0.00000000000E+00 0.  1.
          6    2    1    2  501    0 -0.23734877521E+03  0.38679306718E+02 -0.64647193600E+03  0.71112096615E+03  0.17302177494E+03 0.  0.
         24    2    3    3    0    0 -0.18213879924E+03 -0.56008987367E+01 -0.58244649779E+03  0.61556875644E+03  0.80467750509E+02 0.  0.
         -6    2    1    2    0  502  0.23734877521E+03 -0.38679306718E+02 -0.94926632563E+02  0.31151132752E+03  0.17377488812E+03 0.  0.
        -24    2    5    5    0    0  0.66768276867E+02  0.20704897816E+02 -0.74313923997E+02  0.12965653952E+03  0.80009770354E+02 0.  0.
          5    1    3    3  501    0 -0.55209975965E+02  0.44280205455E+02 -0.64025438218E+02  0.95552209709E+02  0.47000000000E+01 0. -1.
        -11    1    4    4    0    0 -0.82182848298E+02  0.37427659489E+02 -0.27243590607E+03  0.28701249653E+03  0.00000000000E+00 0.  1.
         12    1    4    4    0    0 -0.99955950942E+02 -0.43028558225E+02 -0.31001059172E+03  0.32855625991E+03  0.00000000000E+00 0. -1.
         -5    1    5    5    0  502  0.17058049834E+03 -0.59384204534E+02 -0.20612708566E+02  0.18185478799E+03  0.47000000000E+01 0.  1.
         13    1    6    6    0    0  0.41222356306E+02 -0.22602773206E+02 -0.10075364140E+02  0.48079943621E+02  0.00000000000E+00 0. -1.
        -14    1    6    6    0    0  0.25545920561E+02  0.43307671022E+02 -0.64238559857E+02  0.81576595903E+02  0.00000000000E+00 0.  1.
<mgrwt>
<rscale>  2 0.29658536E+03</rscale>
<asrwt>0</asrwt>
<pdfrwt beam="1">  1       21 0.21633363E-01 0.29669554E+03</pdfrwt>
<pdfrwt beam="2">  1       21 0.13569468E+00 0.29669554E+03</pdfrwt>
<totfact> 0.72295147E+03</totfact>
</mgrwt>
</event>
<event>
12    1  0.1074575E-001  0.2055759E+03  0.7546771E-02  0.1149275E+00
         21   -1    0    0  501  502  0.00000000000E+00  0.00000000000E+00  0.36020685032E+03  0.36020685032E+03  0.00000000000E+00 0. -1.
         21   -1    0    0  502  503 -0.00000000000E+00 -0.00000000000E+00 -0.22852026034E+03  0.22852026034E+03  0.00000000000E+00 0. -1.
         -6    2    1    2    0  503 -0.43688571535E+02 -0.68812522803E+02 -0.15062490751E+03  0.23949762158E+03  0.16741383874E+03 0.  0.
        -24    2    3    3    0    0 -0.68634287176E+02 -0.42489332300E+02 -0.35060574410E+02  0.11828539376E+03  0.79032789165E+02 0.  0.
          6    2    1    2  501    0  0.43688571535E+02  0.68812522803E+02  0.28231149749E+03  0.34922948908E+03  0.18872625639E+03 0.  0.
         24    2    5    5    0    0  0.10750462007E+01 -0.27948140658E+02  0.19257636881E+03  0.21047423025E+03  0.80196567777E+02 0.  0.
          5    1    5    5  501    0  0.42613525334E+02  0.96760663461E+02  0.89735128677E+02  0.13875525883E+03  0.47000000000E+01 0. -1.
        -11    1    6    6    0    0 -0.22538795314E+02 -0.36749986749E+02  0.51490248018E+02  0.67155077702E+02  0.00000000000E+00 0.  1.
         12    1    6    6    0    0  0.23613841515E+02  0.88018460913E+01  0.14108612080E+03  0.14331915255E+03  0.00000000000E+00 0. -1.
         -5    1    3    3    0  503  0.24945715642E+02 -0.26323190502E+02 -0.11556433310E+03  0.12121222782E+03  0.47000000000E+01 0.  1.
         13    1    4    4    0    0 -0.54259580246E+02 -0.18357944793E+02 -0.58372704605E+02  0.81783181818E+02  0.00000000000E+00 0. -1.
        -14    1    4    4    0    0 -0.14374706930E+02 -0.24131387508E+02  0.23312130194E+02  0.36502211941E+02  0.00000000000E+00 0.  1.
<mgrwt>
<rscale>  2 0.20055124E+03</rscale>
<asrwt>0</asrwt>
<pdfrwt beam="1">  1       21 0.55416439E-01 0.20557591E+03</pdfrwt>
<pdfrwt beam="2">  1       21 0.35156963E-01 0.20557591E+03</pdfrwt>
<totfact> 0.23765206E+04</totfact>
</mgrwt>
</event>
<event>
12    1  0.1074575E-001  0.2080620E+03  0.7546771E-02  0.1143484E+00
         21   -1    0    0  503  502  0.00000000000E+00  0.00000000000E+00  0.23303922219E+04  0.23303922219E+04  0.00000000000E+00 0. -1.
         21   -1    0    0  501  503 -0.00000000000E+00 -0.00000000000E+00 -0.31082670355E+02  0.31082670355E+02  0.00000000000E+00 0. -1.
          6    2    1    2  501    0  0.70418669343E+02  0.87016906803E+02  0.39881002199E+03  0.44982133122E+03  0.17538262546E+03 0.  0.
         24    2    3    3    0    0  0.80532686592E+00  0.10948584105E+03  0.26867913537E+03  0.30046602295E+03  0.78125253389E+02 0.  0.
         -6    2    1    2    0  502 -0.70418669343E+02 -0.87016906803E+02  0.19004995295E+04  0.19116535610E+04  0.17317662816E+03 0.  0.
        -24    2    5    5    0    0  0.23729239915E+02 -0.72224670642E+02  0.96623581036E+03  0.97252980664E+03  0.80144268122E+02 0.  0.
          5    1    3    3  501    0  0.69613342477E+02 -0.22468934247E+02  0.13013088662E+03  0.14935530827E+03  0.47000000000E+01 0. -1.
        -11    1    4    4    0    0  0.15559361722E+02  0.10275694392E+02  0.64850374330E+01  0.19741817113E+02  0.00000000000E+00 0.  1.
         12    1    4    4    0    0 -0.14754034856E+02  0.99210146658E+02  0.26219409794E+03  0.28072420583E+03  0.00000000000E+00 0. -1.
         -5    1    5    5    0  502 -0.94147909257E+02 -0.14792236161E+02  0.93426371915E+03  0.93912375435E+03  0.47000000000E+01 0.  1.
         11    1    6    6    0    0 -0.40666552312E+01 -0.66004130909E+02  0.38816848368E+03  0.39376116454E+03  0.00000000000E+00 0. -1.
        -12    1    6    6    0    0  0.27795895146E+02 -0.62205397325E+01  0.57806732668E+03  0.57876864210E+03  0.00000000000E+00 0.  1.
<mgrwt>
<rscale>  2 0.20759642E+03</rscale>
<asrwt>0</asrwt>
<pdfrwt beam="1">  1       21 0.35852174E+00 0.20806200E+03</pdfrwt>
<pdfrwt beam="2">  1       21 0.47819511E-02 0.20806200E+03</pdfrwt>
<totfact> 0.44296442E+03</totfact>
</mgrwt>
</event>
<event>
12    1  0.1074575E-001  0.1877786E+03  0.7546771E-02  0.1160680E+00
         21   -1    0    0  503  502  0.00000000000E+00  0.00000000000E+00  0.63788891861E+02  0.63788891861E+02  0.00000000000E+00 0.  1.
         21   -1    0    0  501  503 -0.00000000000E+00 -0.00000000000E+00 -0.55421433784E+03  0.55421433784E+03  0.00000000000E+00 0.  1.
          6    2    1    2  501    0  0.63345563792E+02 -0.32613383496E+02 -0.27088779108E+03  0.32911293733E+03  0.17279709757E+03 0.  0.
         24    2    3    3    0    0  0.48045721322E+02 -0.62418695397E+02 -0.27291042242E+03  0.29522159869E+03  0.80443823835E+02 0.  0.
         -6    2    1    2    0  502 -0.63345563792E+02  0.32613383496E+02 -0.21953765490E+03  0.28889029237E+03  0.17373694446E+03 0.  0.
        -24    2    5    5    0    0 -0.83419655080E+02 -0.26057283226E+02 -0.10198418497E+03  0.15590110270E+03  0.79161600401E+02 0.  0.
          5    1    3    3  501    0  0.15299842469E+02  0.29805311901E+02  0.20226313494E+01  0.33891338638E+02  0.47000000000E+01 0. -1.
        -13    1    4    4    0    0 -0.20546170979E+02 -0.84628077013E+01 -0.31725907132E+02  0.38733673198E+02  0.00000000000E+00 0.  1.
         14    1    4    4    0    0  0.68591892301E+02 -0.53955887696E+02 -0.24118451529E+03  0.25648792549E+03  0.00000000000E+00 0. -1.
         -5    1    5    5    0  502  0.20074091289E+02  0.58670666722E+02 -0.11755346993E+03  0.13298918967E+03  0.47000000000E+01 0.  1.
         13    1    6    6    0    0 -0.55508275998E+02 -0.25527591999E+02 -0.11088255375E+03  0.12660081905E+03  0.00000000000E+00 0. -1.
        -14    1    6    6    0    0 -0.27911379082E+02 -0.52969122689E+00  0.88983687861E+01  0.29300283652E+02  0.00000000000E+00 0.  1.
<mgrwt>
<rscale>  2 0.18756096E+03</rscale>
<asrwt>0</asrwt>
<pdfrwt beam="1">  1       21 0.98136762E-02 0.18777864E+03</pdfrwt>
<pdfrwt beam="2">  1       21 0.85263740E-01 0.18777864E+03</pdfrwt>
<totfact> 0.99998859E+04</totfact>
</mgrwt>
</event>
<event>
12    1  0.1074575E-001  0.1851546E+03  0.7546771E-02  0.1163837E+00
         21   -1    0    0  501  502  0.00000000000E+00  0.00000000000E+00  0.16464495811E+04  0.16464495811E+04  0.00000000000E+00 0. -1.
         21   -1    0    0  502  503 -0.00000000000E+00 -0.00000000000E+00 -0.24083528779E+02  0.24083528779E+02  0.00000000000E+00 0. -1.
         -6    2    1    2    0  503 -0.14524581800E+02 -0.58933590060E+02  0.47625673343E+03  0.50956420652E+03  0.17073685282E+03 0.  0.
        -24    2    3    3    0    0  0.46091072866E+02  0.33089388560E+01  0.18691307313E+03  0.20742146914E+03  0.77148122966E+02 0.  0.
          6    2    1    2  501    0  0.14524581800E+02  0.58933590060E+02  0.11461093188E+04  0.11609689033E+04  0.17492310370E+03 0.  0.
         24    2    5    5    0    0  0.67624219727E+02  0.50351073489E+02  0.53144915836E+03  0.54394180988E+03  0.79537531551E+02 0.  0.
          5    1    5    5  501    0 -0.53099637927E+02  0.85825165713E+01  0.61466016049E+03  0.61702709344E+03  0.47000000000E+01 0. -1.
        -13    1    6    6    0    0  0.48143748496E+02 -0.12802294140E+02  0.22939151157E+03  0.23473854569E+03  0.00000000000E+00 0.  1.
         14    1    6    6    0    0  0.19480471231E+02  0.63153367628E+02  0.30205764679E+03  0.30920326419E+03  0.00000000000E+00 0. -1.
         -5    1    3    3    0  503 -0.60615654666E+02 -0.62242528916E+02  0.28934366030E+03  0.30214273738E+03  0.47000000000E+01 0.  1.
         11    1    4    4    0    0  0.61195761682E+02 -0.16495837907E+02  0.11488168356E+03  0.13120531671E+03  0.00000000000E+00 0. -1.
        -12    1    4    4    0    0 -0.15104688816E+02  0.19804776763E+02  0.72031389567E+02  0.76216152421E+02  0.00000000000E+00 0.  1.
<mgrwt>
<rscale>  2 0.18415916E+03</rscale>
<asrwt>0</asrwt>
<pdfrwt beam="1">  1       21 0.25329985E+00 0.18515459E+03</pdfrwt>
<pdfrwt beam="2">  1       21 0.37051596E-02 0.18515459E+03</pdfrwt>
<totfact> 0.28506688E+04</totfact>
</mgrwt>
</event>
<event>
12    1  0.1074575E-001  0.2048474E+03  0.7546771E-02  0.1146095E+00
         21   -1    0    0  503  502  0.00000000000E+00  0.00000000000E+00  0.60440506314E+03  0.60440506314E+03  0.00000000000E+00 0.  1.
         21   -1    0    0  501  503 -0.00000000000E+00 -0.00000000000E+00 -0.70497063791E+02  0.70497063791E+02  0.00000000000E+00 0. -1.
          6    2    1    2  501    0 -0.70099316907E+02 -0.86045895653E+02  0.21575954382E+03  0.29751411069E+03  0.17217623216E+03 0.  0.
         24    2    3    3    0    0 -0.61335246648E+02 -0.99738303513E+02  0.23417796224E+03  0.27250173180E+03  0.75552194966E+02 0.  0.
         -6    2    1    2    0  502  0.70099316907E+02  0.86045895653E+02  0.31814845553E+03  0.37738801624E+03  0.16995724362E+03 0.  0.
        -24    2    5    5    0    0 -0.13722033963E+02  0.79288019379E+02  0.22323885744E+03  0.25049589843E+03  0.80235425007E+02 0.  0.
          5    1    3    3  501    0 -0.87640702594E+01  0.13692407861E+02 -0.18418418423E+02  0.25012378890E+02  0.47000000000E+01 0. -1.
        -13    1    4    4    0    0 -0.41891735694E+02 -0.24500900736E+02  0.15129071857E+03  0.15888389843E+03  0.00000000000E+00 0.  1.
         14    1    4    4    0    0 -0.19443510954E+02 -0.75237402777E+02  0.82887243675E+02  0.11361783337E+03  0.00000000000E+00 0. -1.
         -5    1    5    5    0  502  0.83821350870E+02  0.67578762739E+01  0.94909598090E+02  0.12689211781E+03  0.47000000000E+01 0.  1.
         13    1    6    6    0    0 -0.97287975245E+01  0.15673415135E+02  0.11650263180E+00  0.18447737425E+02  0.00000000000E+00 0. -1.
        -14    1    6    6    0    0 -0.39932364387E+01  0.63614604244E+02  0.22312235481E+03  0.23204816101E+03  0.00000000000E+00 0.  1.
<mgrwt>
<rscale>  2 0.20438044E+03</rscale>
<asrwt>0</asrwt>
<pdfrwt beam="1">  1       21 0.92985391E-01 0.20484742E+03</pdfrwt>
<pdfrwt beam="2">  1       21 0.10845703E-01 0.20484742E+03</pdfrwt>
<totfact> 0.68049637E+04</totfact>
</mgrwt>
</event>
<event>
12    1  0.1074575E-001  0.1794411E+03  0.7546771E-02  0.1169078E+00
         21   -1    0    0  501  502  0.00000000000E+00  0.00000000000E+00  0.30926405911E+03  0.30926405911E+03  0.00000000000E+00 0. -1.
         21   -1    0    0  502  503 -0.00000000000E+00 -0.00000000000E+00 -0.26850963587E+03  0.26850963587E+03  0.00000000000E+00 0. -1.
         -6    2    1    2    0  503 -0.23333274373E+02  0.38933722076E+02 -0.20678255237E+03  0.27378483384E+03  0.17360539989E+03 0.  0.
        -24    2    3    3    0    0  0.34231289430E+02  0.67023945759E+02 -0.16148686030E+03  0.19519393493E+03  0.79741304864E+02 0.  0.
          6    2    1    2  501    0  0.23333274373E+02 -0.38933722076E+02  0.24753697561E+03  0.30398886114E+03  0.17051216084E+03 0.  0.
         24    2    5    5    0    0  0.41664761777E+02  0.42929667316E+02  0.15315597279E+03  0.17762620191E+03  0.67196777417E+02 0.  0.
          5    1    5    5  501    0 -0.18331487404E+02 -0.81863389392E+02  0.94381002826E+02  0.12636265923E+03  0.47000000000E+01 0. -1.
        -11    1    6    6    0    0 -0.16049300656E+02  0.15879540048E+01  0.48924427398E+02  0.51514087837E+02  0.00000000000E+00 0.  1.
         12    1    6    6    0    0  0.57714062433E+02  0.41341713311E+02  0.10423154539E+03  0.12611211407E+03  0.00000000000E+00 0. -1.
         -5    1    3    3    0  503 -0.57564563803E+02 -0.28090223683E+02 -0.45295692071E+02  0.78590898917E+02  0.47000000000E+01 0.  1.
         13    1    4    4    0    0 -0.32786345199E+01  0.37783467971E+02 -0.13609327511E+03  0.14127887112E+03  0.00000000000E+00 0. -1.
        -14    1    4    4    0    0  0.37509923950E+02  0.29240477788E+02 -0.25393585192E+02  0.53915063803E+02  0.00000000000E+00 0.  1.
<mgrwt>
<rscale>  2 0.17868866E+03</rscale>
<asrwt>0</asrwt>
<pdfrwt beam="1">  1       21 0.47579086E-01 0.17944111E+03</pdfrwt>
<pdfrwt beam="2">  1       21 0.41309175E-01 0.17944111E+03</pdfrwt>
<totfact> 0.24019156E+04</totfact>
</mgrwt>
</event>
<event>
12    1  0.1074575E-001  0.2068570E+03  0.7546771E-02  0.1144846E+00
         21   -1    0    0  501  502  0.00000000000E+00  0.00000000000E+00  0.11772278946E+03  0.11772278946E+03  0.00000000000E+00 0. -1.
         21   -1    0    0  502  503 -0.00000000000E+00 -0.00000000000E+00 -0.38283532407E+03  0.38283532407E+03  0.00000000000E+00 0. -1.
         -6    2    1    2    0  503 -0.83047261416E+02 -0.66354499119E+02 -0.66284509820E+02  0.21363931179E+03  0.17305592194E+03 0.  0.
        -24    2    3    3    0    0 -0.21514218871E+02  0.35843123643E+02 -0.37349459501E+02  0.90797964682E+02  0.71426165648E+02 0.  0.
          6    2    1    2  501    0  0.83047261416E+02  0.66354499119E+02 -0.19882802480E+03  0.28691880174E+03  0.17745435516E+03 0.  0.
         24    2    5    5    0    0  0.49660371429E+02 -0.31863225807E+02 -0.12573053189E+03  0.15992770212E+03  0.79292405740E+02 0.  0.
          5    1    5    5  501    0  0.33386889987E+02  0.98217724926E+02 -0.73097492907E+02  0.12699109962E+03  0.47000000000E+01 0. -1.
        -13    1    6    6    0    0 -0.98016873324E+01 -0.26907634472E+02 -0.11130053863E+02  0.30724126780E+02  0.00000000000E+00 0.  1.
         14    1    6    6    0    0  0.59462058761E+02 -0.49555913353E+01 -0.11460047803E+03  0.12920357534E+03  0.00000000000E+00 0. -1.
         -5    1    3    3    0  503 -0.61533042545E+02 -0.10219762276E+03 -0.28935050319E+02  0.12284134711E+03  0.47000000000E+01 0.  1.
         11    1    4    4    0    0 -0.11286718419E+02 -0.16680749650E+02  0.69749990887E+01  0.21314033730E+02  0.00000000000E+00 0. -1.
        -12    1    4    4    0    0 -0.10227500452E+02  0.52523873293E+02 -0.44324458590E+02  0.69483930952E+02  0.00000000000E+00 0.  1.
<mgrwt>
<rscale>  2 0.20591035E+03</rscale>
<asrwt>0</asrwt>
<pdfrwt beam="1">  1       21 0.18111199E-01 0.20685699E+03</pdfrwt>
<pdfrwt beam="2">  1       21 0.58897742E-01 0.20685699E+03</pdfrwt>
<totfact> 0.74374745E+04</totfact>
</mgrwt>
</event>
<event>
12    1  0.1074575E-001  0.1775067E+03  0.7546771E-02  0.1170289E+00
         21   -1    0    0  503  502  0.00000000000E+00  0.00000000000E+00  0.80504477832E+02  0.80504477832E+02  0.00000000000E+00 0. -1.
         21   -1    0    0  501  503 -0.00000000000E+00 -0.00000000000E+00 -0.39273251701E+03  0.39273251701E+03  0.00000000000E+00 0. -1.
          6    2    1    2  501    0 -0.27199589651E+02 -0.33735811920E+02 -0.17203800410E+03  0.24704711435E+03  0.17192230562E+03 0.  0.
         24    2    3    3    0    0 -0.44802088488E+02  0.26724869804E+02 -0.15445621944E+03  0.18149903160E+03  0.79772983838E+02 0.  0.
         -6    2    1    2    0  502  0.27199589651E+02  0.33735811920E+02 -0.14019003509E+03  0.22618988050E+03  0.17213568317E+03 0.  0.
        -24    2    5    5    0    0 -0.21683463552E+02  0.15105132480E+02 -0.88032900258E+01  0.84693513464E+02  0.79982221079E+02 0.  0.
          5    1    3    3  501    0  0.17602498837E+02 -0.60460681724E+02 -0.17581784660E+02  0.65548082746E+02  0.47000000000E+01 0. -1.
        -11    1    4    4    0    0 -0.67217224353E+02  0.11737978731E+02 -0.10655648098E+03  0.12653149423E+03  0.00000000000E+00 0.  1.
         12    1    4    4    0    0  0.22415135865E+02  0.14986891074E+02 -0.47899738456E+02  0.54967537366E+02  0.00000000000E+00 0. -1.
         -5    1    5    5    0  502  0.48883053203E+02  0.18630679439E+02 -0.13138674506E+03  0.14149636704E+03  0.47000000000E+01 0.  1.
         11    1    6    6    0    0 -0.41571878063E+02 -0.42394699913E+01 -0.28576179777E+02  0.50624027914E+02  0.00000000000E+00 0. -1.
        -12    1    6    6    0    0  0.19888414511E+02  0.19344602471E+02  0.19772889752E+02  0.34069485551E+02  0.00000000000E+00 0.  1.
<mgrwt>
<rscale>  2 0.17745491E+03</rscale>
<asrwt>0</asrwt>
<pdfrwt beam="1">  1       21 0.12385304E-01 0.17750666E+03</pdfrwt>
<pdfrwt beam="2">  1       21 0.60420388E-01 0.17750666E+03</pdfrwt>
<totfact> 0.14227697E+05</totfact>
</mgrwt>
</event>
<event>
12    1  0.1074575E-001  0.1974864E+03  0.7546771E-02  0.1151900E+00
         21   -1    0    0  503  502  0.00000000000E+00  0.00000000000E+00  0.12067292424E+04  0.12067292424E+04  0.00000000000E+00 0. -1.
         21   -1    0    0  501  503 -0.00000000000E+00 -0.00000000000E+00 -0.37990840788E+02  0.37990840788E+02  0.00000000000E+00 0. -1.
          6    2    1    2  501    0  0.90891995052E+02  0.21174857527E+02  0.34340669183E+03  0.39608981903E+03  0.17392314219E+03 0.  0.
         24    2    3    3    0    0 -0.62485838430E+01 -0.29933584135E+02  0.13675496069E+03  0.16204838497E+03  0.81379945543E+02 0.  0.
         -6    2    1    2    0  502 -0.90891995052E+02 -0.21174857527E+02  0.82533170975E+03  0.84863026412E+03  0.17404357131E+03 0.  0.
        -24    2    5    5    0    0  0.72940886469E+01 -0.39183079057E+02  0.51010272086E+03  0.51793976152E+03  0.80425700644E+02 0.  0.
          5    1    3    3  501    0  0.97140578895E+02  0.51108441662E+02  0.20665173113E+03  0.23404143406E+03  0.47000000000E+01 0. -1.
        -13    1    4    4    0    0 -0.19355592904E+02  0.18061321814E+02  0.89859810060E+02  0.93678363491E+02  0.00000000000E+00 0.  1.
         14    1    4    4    0    0  0.13107009061E+02 -0.47994905949E+02  0.46895150633E+02  0.68370021475E+02  0.00000000000E+00 0. -1.
         -5    1    5    5    0  502 -0.98186083699E+02  0.18008221530E+02  0.31522898889E+03  0.33069050260E+03  0.47000000000E+01 0.  1.
         13    1    6    6    0    0 -0.31873213799E+02 -0.25430134596E+02  0.14968293026E+03  0.15513727184E+03  0.00000000000E+00 0. -1.
        -14    1    6    6    0    0  0.39167302446E+02 -0.13752944460E+02  0.36041979060E+03  0.36280248968E+03  0.00000000000E+00 0.  1.
<mgrwt>
<rscale>  2 0.19745990E+03</rscale>
<asrwt>0</asrwt>
<pdfrwt beam="1">  1       21 0.18565062E+00 0.19748644E+03</pdfrwt>
<pdfrwt beam="2">  1       21 0.58447457E-02 0.19748644E+03</pdfrwt>
<totfact> 0.34261747E+04</totfact>
</mgrwt>
</event>
<event>
12    1  0.1074575E-001  0.1803831E+03  0.7546771E-02  0.1169490E+00
         21   -1    0    0  503  502  0.00000000000E+00  0.00000000000E+00  0.20598574342E+03  0.20598574342E+03  0.00000000000E+00 0. -1.
         21   -1    0    0  501  503 -0.00000000000E+00 -0.00000000000E+00 -0.42245337668E+03  0.42245337668E+03  0.00000000000E+00 0. -1.
          6    2    1    2  501    0 -0.16500678488E+02 -0.59431980076E+02 -0.36110732049E+03  0.40365399963E+03  0.16950994620E+03 0.  0.
         24    2    3    3    0    0 -0.24108281494E+02  0.23903688187E+02 -0.25093458090E+03  0.26522411927E+03  0.78886462754E+02 0.  0.
         -6    2    1    2    0  502  0.16500678488E+02  0.59431980076E+02  0.14463968723E+03  0.22478512046E+03  0.16063398959E+03 0.  0.
        -24    2    5    5    0    0 -0.28977763415E+02  0.49783840389E+02  0.14788930040E+03  0.17794469707E+03  0.80466940468E+02 0.  0.
          5    1    3    3  501    0  0.76076030063E+01 -0.83335668263E+02 -0.11017273959E+03  0.13842988036E+03  0.47000000000E+01 0. -1.
        -13    1    4    4    0    0  0.14889481768E+02  0.37069791167E+02 -0.80205171800E+02  0.89603212375E+02  0.00000000000E+00 0.  1.
         14    1    4    4    0    0 -0.38997763262E+02 -0.13166102980E+02 -0.17072940910E+03  0.17562090690E+03  0.00000000000E+00 0. -1.
         -5    1    5    5    0  502  0.45478441903E+02  0.96481396866E+01 -0.32496131655E+01  0.46840423386E+02  0.47000000000E+01 0.  1.
         13    1    6    6    0    0 -0.18765783471E+02  0.52296030626E+02  0.15539192409E+03  0.16502629948E+03  0.00000000000E+00 0. -1.
        -14    1    6    6    0    0 -0.10211979944E+02 -0.25121902367E+01 -0.75026236897E+01  0.12918397594E+02  0.00000000000E+00 0.  1.
<mgrwt>
<rscale>  2 0.17826761E+03</rscale>
<asrwt>0</asrwt>
<pdfrwt beam="1">  1       21 0.31690115E-01 0.18038308E+03</pdfrwt>
<pdfrwt beam="2">  1       21 0.64992826E-01 0.18038308E+03</pdfrwt>
<totfact> 0.21022270E+04</totfact>
</mgrwt>
</event>
<event>
12    1  0.1074575E-001  0.2340151E+03  0.7546771E-02  0.1123935E+00
         21   -1    0    0  501  502  0.00000000000E+00  0.00000000000E+00  0.47740559995E+03  0.47740559995E+03  0.00000000000E+00 0. -1.
         21   -1    0    0  502  503 -0.00000000000E+00 -0.00000000000E+00 -0.11666675657E+03  0.11666675657E+03  0.00000000000E+00 0.  1.
         -6    2    1    2    0  503  0.10231041269E+03 -0.11858588431E+03  0.13967307541E+03  0.27252822830E+03  0.17387649273E+03 0.  0.
        -24    2    3    3    0    0  0.11368764897E+03 -0.13354053481E+03  0.15490967881E+03  0.24788421969E+03  0.81802333822E+02 0.  0.
          6    2    1    2  501    0 -0.10231041269E+03  0.11858588431E+03  0.22106576797E+03  0.32154412822E+03  0.17317771253E+03 0.  0.
         24    2    5    5    0    0  0.92676888280E+01  0.58841611680E+02  0.61139480406E+02  0.11754030888E+03  0.80805091579E+02 0.  0.
          5    1    5    5  501    0 -0.11157810152E+03  0.59744272632E+02  0.15992628757E+03  0.20400381934E+03  0.47000000000E+01 0. -1.
        -11    1    6    6    0    0 -0.23738507858E+02 -0.66886055478E+01  0.50262076385E+01  0.25169762866E+02  0.00000000000E+00 0.  1.
         12    1    6    6    0    0  0.33006196686E+02  0.65530217228E+02  0.56113272767E+02  0.92370546011E+02  0.00000000000E+00 0. -1.
         -5    1    3    3    0  503 -0.11377236279E+02  0.14954650498E+02 -0.15236603403E+02  0.24644008605E+02  0.47000000000E+01 0.  1.
         11    1    4    4    0    0  0.34592373762E+02 -0.36617956046E+02  0.98543139988E+02  0.11067184586E+03  0.00000000000E+00 0. -1.
        -12    1    4    4    0    0  0.79095275204E+02 -0.96922578764E+02  0.56366538823E+02  0.13721237383E+03  0.00000000000E+00 0.  1.
<mgrwt>
<rscale>  2 0.23388531E+03</rscale>
<asrwt>0</asrwt>
<pdfrwt beam="1">  1       21 0.73447015E-01 0.23401510E+03</pdfrwt>
<pdfrwt beam="2">  1       21 0.17948732E-01 0.23401510E+03</pdfrwt>
<totfact> 0.46096993E+04</totfact>
</mgrwt>
</event>
<event>
12    1  0.1074575E-001  0.1893789E+03  0.7546771E-02  0.1159376E+00
         21   -1    0    0  501  502  0.00000000000E+00  0.00000000000E+00  0.14522733404E+03  0.14522733404E+03  0.00000000000E+00 0.  1.
         21   -1    0    0  502  503 -0.00000000000E+00 -0.00000000000E+00 -0.24505984435E+03  0.24505984435E+03  0.00000000000E+00 0.  1.
         -6    2    1    2    0  503  0.72561347761E+02 -0.20131613872E+02 -0.54145506247E+02  0.19547527242E+03  0.17207095983E+03 0.  0.
        -24    2    3    3    0    0  0.44564497832E+02 -0.11144813492E+02 -0.10415587122E+03  0.13727121078E+03  0.76712049027E+02 0.  0.
          6    2    1    2  501    0 -0.72561347761E+02  0.20131613872E+02 -0.45687004063E+02  0.19481190597E+03  0.17376405066E+03 0.  0.
         24    2    5    5    0    0 -0.79331632039E+02  0.67543015423E+02 -0.82255706189E+01  0.13382726248E+03  0.83585341996E+02 0.  0.
          5    1    5    5  501    0  0.67702842781E+01 -0.47411401551E+02 -0.37461433444E+02  0.60984643493E+02  0.47000000000E+01 0. -1.
        -13    1    6    6    0    0 -0.30985528493E+01  0.41591702899E+02 -0.28832952997E+02  0.50703155310E+02  0.00000000000E+00 0.  1.
         14    1    6    6    0    0 -0.76233079190E+02  0.25951312524E+02  0.20607382378E+02  0.83124107171E+02  0.00000000000E+00 0. -1.
         -5    1    3    3    0  503  0.27996849929E+02 -0.89868003801E+01  0.50010364970E+02  0.58204061640E+02  0.47000000000E+01 0.  1.
         13    1    4    4    0    0 -0.16867161559E+02  0.13556262675E+02 -0.15494740793E+02  0.26615040654E+02  0.00000000000E+00 0. -1.
        -14    1    4    4    0    0  0.61431659392E+02 -0.24701076167E+02 -0.88661130423E+02  0.11065617013E+03  0.00000000000E+00 0.  1.
<mgrwt>
<rscale>  2 0.18898965E+03</rscale>
<asrwt>0</asrwt>
<pdfrwt beam="1">  1       21 0.22342667E-01 0.18937892E+03</pdfrwt>
<pdfrwt beam="2">  1       21 0.37701514E-01 0.18937892E+03</pdfrwt>
<totfact> 0.12735423E+05</totfact>
</mgrwt>
</event>
<event>
12    1  0.1074575E-001  0.1758347E+03  0.7546771E-02  0.1172128E+00
         21   -1    0    0  501  502  0.00000000000E+00  0.00000000000E+00  0.25308282468E+03  0.25308282468E+03  0.00000000000E+00 0. -1.
         21   -1    0    0  502  503 -0.00000000000E+00 -0.00000000000E+00 -0.12790233557E+03  0.12790233557E+03  0.00000000000E+00 0. -1.
         -6    2    1    2    0  503 -0.49145312451E+01 -0.25964351438E+02  0.20203269672E+02  0.17699151497E+03  0.17383763719E+03 0.  0.
        -24    2    3    3    0    0 -0.46422446101E+02 -0.69266171931E+02  0.12962202723E+02  0.11639054382E+03  0.80161673605E+02 0.  0.
          6    2    1    2  501    0  0.49145312451E+01  0.25964351438E+02  0.10497721943E+03  0.20399364528E+03  0.17290138968E+03 0.  0.
         24    2    5    5    0    0  0.66457776894E+02  0.67366902178E+00  0.42660549449E+02  0.11271031131E+03  0.80415184249E+02 0.  0.
          5    1    5    5  501    0 -0.61543245649E+02  0.25290682416E+02  0.62316669986E+02  0.91283333967E+02  0.47000000000E+01 0. -1.
        -13    1    6    6    0    0  0.29946014859E+02  0.39417357419E+02  0.10797004886E+02  0.50666233196E+02  0.00000000000E+00 0.  1.
         14    1    6    6    0    0  0.36511762035E+02 -0.38743688397E+02  0.31863544562E+02  0.62044078118E+02  0.00000000000E+00 0. -1.
         -5    1    3    3    0  503  0.41507914856E+02  0.43301820493E+02  0.72410669491E+01  0.60600971149E+02  0.47000000000E+01 0.  1.
         11    1    4    4    0    0  0.17743995455E+02 -0.37196978637E+02 -0.72906612210E+01  0.41852339666E+02  0.00000000000E+00 0. -1.
        -12    1    4    4    0    0 -0.64166441556E+02 -0.32069193294E+02  0.20252863944E+02  0.74538204154E+02  0.00000000000E+00 0.  1.
<mgrwt>
<rscale>  2 0.17560280E+03</rscale>
<asrwt>0</asrwt>
<pdfrwt beam="1">  1       21 0.38935819E-01 0.17583465E+03</pdfrwt>
<pdfrwt beam="2">  1       21 0.19677282E-01 0.17583465E+03</pdfrwt>
<totfact> 0.15215899E+05</totfact>
</mgrwt>
</event>
<event>
12    1  0.1074575E-001  0.1757210E+03  0.7546771E-02  0.1172122E+00
         21   -1    0    0  503  502  0.00000000000E+00  0.00000000000E+00  0.25472819549E+02  0.25472819549E+02  0.00000000000E+00 0.  1.
         21   -1    0    0  501  503 -0.00000000000E+00 -0.00000000000E+00 -0.12178145911E+04  0.12178145911E+04  0.00000000000E+00 0.  1.
          6    2    1    2  501    0  0.11208997924E+02 -0.29799929973E+02 -0.64952621954E+03  0.67287604349E+03  0.17281256486E+03 0.  0.
         24    2    3    3    0    0  0.17688044641E+02 -0.69799713230E+02 -0.27598704301E+03  0.29711605745E+03  0.83211999103E+02 0.  0.
         -6    2    1    2    0  502 -0.11208997924E+02  0.29799929973E+02 -0.54281555202E+03  0.57041136717E+03  0.17235639477E+03 0.  0.
        -24    2    5    5    0    0 -0.69778406099E+01 -0.32156328966E+02 -0.45231473466E+03  0.46055250928E+03  0.80232629648E+02 0.  0.
          5    1    3    3  501    0 -0.64790467167E+01  0.39999783257E+02 -0.37353917653E+03  0.37575998604E+03  0.47000000000E+01 0. -1.
        -11    1    4    4    0    0  0.95826919095E+00 -0.84594205246E+02 -0.18496192590E+03  0.20339127777E+03  0.00000000000E+00 0.  1.
         12    1    4    4    0    0  0.16729775450E+02  0.14794492016E+02 -0.91025117117E+02  0.93724779684E+02  0.00000000000E+00 0. -1.
         -5    1    5    5    0  502 -0.42311573144E+01  0.61956258939E+02 -0.90500817361E+02  0.10985885789E+03  0.47000000000E+01 0.  1.
         13    1    6    6    0    0 -0.27965019644E+02 -0.34749752476E+01 -0.36768382666E+03  0.36876213765E+03  0.00000000000E+00 0. -1.
        -14    1    6    6    0    0  0.20987179035E+02 -0.28681353718E+02 -0.84630908005E+02  0.91790371634E+02  0.00000000000E+00 0.  1.
<mgrwt>
<rscale>  2 0.17560871E+03</rscale>
<asrwt>0</asrwt>
<pdfrwt beam="1">  1       21 0.39188956E-02 0.17572097E+03</pdfrwt>
<pdfrwt beam="2">  1       21 0.18735608E+00 0.17572097E+03</pdfrwt>
<totfact> 0.66525683E+04</totfact>
</mgrwt>
</event>
<event>
12    1  0.1074575E-001  0.2146231E+03  0.7546771E-02  0.1138490E+00
         21   -1    0    0  503  502  0.00000000000E+00  0.00000000000E+00  0.39219093516E+02  0.39219093516E+02  0.00000000000E+00 0.  1.
         21   -1    0    0  501  503 -0.00000000000E+00 -0.00000000000E+00 -0.14974282291E+04  0.14974282291E+04  0.00000000000E+00 0.  1.
          6    2    1    2  501    0  0.93773400053E+02  0.82932447488E+02 -0.10977473136E+04  0.11185312818E+04  0.17433250491E+03 0.  0.
         24    2    3    3    0    0 -0.62507337273E+01 -0.36177937559E+01 -0.35011259981E+03  0.35927142709E+03  0.80280543536E+02 0.  0.
         -6    2    1    2    0  502 -0.93773400053E+02 -0.82932447488E+02 -0.36046182197E+03  0.41811604088E+03  0.17092997730E+03 0.  0.
        -24    2    5    5    0    0 -0.11378430507E+03 -0.27257955893E+02 -0.30823621766E+03  0.33906106583E+03  0.79138967960E+02 0.  0.
          5    1    3    3  501    0  0.10002413378E+03  0.86550241244E+02 -0.74763471382E+03  0.75925985467E+03  0.47000000000E+01 0. -1.
        -13    1    4    4    0    0  0.35650879146E+02 -0.33646968788E+01 -0.20985710137E+03  0.21289036936E+03  0.00000000000E+00 0.  1.
         14    1    4    4    0    0 -0.41901612873E+02 -0.25309687706E+00 -0.14025549844E+03  0.14638105773E+03  0.00000000000E+00 0. -1.
         -5    1    5    5    0  502  0.20010905015E+02 -0.55674491595E+02 -0.52225604314E+02  0.79054975048E+02  0.47000000000E+01 0.  1.
         13    1    6    6    0    0 -0.10690235999E+03 -0.14656767640E+02 -0.17883501223E+03  0.20886573919E+03  0.00000000000E+00 0. -1.
        -14    1    6    6    0    0 -0.68819450796E+01 -0.12601188253E+02 -0.12940120543E+03  0.13019532664E+03  0.00000000000E+00 0.  1.
<mgrwt>
<rscale>  2 0.21393111E+03</rscale>
<asrwt>0</asrwt>
<pdfrwt beam="1">  1       21 0.60337081E-02 0.21462307E+03</pdfrwt>
<pdfrwt beam="2">  1       21 0.23037352E+00 0.21462307E+03</pdfrwt>
<totfact> 0.16687210E+04</totfact>
</mgrwt>
</event>
<event>
12    1  0.1074575E-001  0.1900374E+03  0.7546771E-02  0.1160040E+00
         21   -1    0    0  503  502  0.00000000000E+00  0.00000000000E+00  0.25560847008E+03  0.25560847008E+03  0.00000000000E+00 0. -1.
         21   -1    0    0  501  503 -0.00000000000E+00 -0.00000000000E+00 -0.16678300306E+03  0.16678300306E+03  0.00000000000E+00 0. -1.
          6    2    1    2  501    0 -0.50531335327E+02  0.39269301777E+02 -0.46807572092E+02  0.18891659995E+03  0.17147314372E+03 0.  0.
         24    2    3    3    0    0 -0.93516633385E+02 -0.85379672679E+00 -0.36368214548E+02  0.12901109879E+03  0.81087156154E+02 0.  0.
         -6    2    1    2    0  502  0.50531335327E+02 -0.39269301777E+02  0.13563303911E+03  0.23347487319E+03  0.17893770201E+03 0.  0.
        -24    2    5    5    0    0  0.79848412389E+02 -0.73951363161E+02  0.73034115202E+02  0.15599551037E+03  0.84593405166E+02 0.  0.
          5    1    3    3  501    0  0.42985298058E+02  0.40123098503E+02 -0.10439357545E+02  0.59905501155E+02  0.47000000000E+01 0. -1.
        -13    1    4    4    0    0 -0.96320928107E+00  0.26788512155E+02 -0.37922027274E+01  0.27072734570E+02  0.00000000000E+00 0.  1.
         14    1    4    4    0    0 -0.92553424104E+02 -0.27642308882E+02 -0.32576011820E+02  0.10193836422E+03  0.00000000000E+00 0. -1.
         -5    1    5    5    0  502 -0.29317077061E+02  0.34682061384E+02  0.62598923906E+02  0.77479362823E+02  0.47000000000E+01 0.  1.
         11    1    6    6    0    0  0.20527317749E+01  0.10101523699E+02  0.33156611315E+02  0.34721972332E+02  0.00000000000E+00 0. -1.
        -12    1    6    6    0    0  0.77795680614E+02 -0.84052886860E+02  0.39877503887E+02  0.12127353804E+03  0.00000000000E+00 0.  1.
<mgrwt>
<rscale>  2 0.18825974E+03</rscale>
<asrwt>0</asrwt>
<pdfrwt beam="1">  1       21 0.39324380E-01 0.19003735E+03</pdfrwt>
<pdfrwt beam="2">  1       21 0.25658923E-01 0.19003735E+03</pdfrwt>
<totfact> 0.89940399E+04</totfact>
</mgrwt>
</event>
<event>
12    1  0.1074575E-001  0.1798155E+03  0.7546771E-02  0.1168410E+00
         21   -1    0    0  501  502  0.00000000000E+00  0.00000000000E+00  0.22327393528E+03  0.22327393528E+03  0.00000000000E+00 0. -1.
         21   -1    0    0  502  503 -0.00000000000E+00 -0.00000000000E+00 -0.22190969845E+03  0.22190969845E+03  0.00000000000E+00 0. -1.
         -6    2    1    2    0  503 -0.40534717987E+02  0.17523828015E+02 -0.13171373016E+03  0.22147993172E+03  0.17249552322E+03 0.  0.
        -24    2    3    3    0    0 -0.28212793389E+02  0.78382417940E+02 -0.87507676122E+02  0.14511329628E+03  0.80377299191E+02 0.  0.
          6    2    1    2  501    0  0.40534717987E+02 -0.17523828015E+02  0.13307796699E+03  0.22370370201E+03  0.17430849975E+03 0.  0.
         24    2    5    5    0    0 -0.15405457405E+02  0.24728142412E+02  0.12789497257E+03  0.15325169240E+03  0.79247385255E+02 0.  0.
          5    1    5    5  501    0  0.55940175392E+02 -0.42251970426E+02  0.51829944267E+01  0.70452009617E+02  0.47000000000E+01 0. -1.
        -13    1    6    6    0    0  0.47797078152E+01 -0.21085145327E+02  0.75355908445E+01  0.22895722081E+02  0.00000000000E+00 0.  1.
         14    1    6    6    0    0 -0.20185165220E+02  0.45813287739E+02  0.12035938172E+03  0.13035597031E+03  0.00000000000E+00 0. -1.
         -5    1    3    3    0  503 -0.12321924598E+02 -0.60858589925E+02 -0.44206054040E+02  0.76366635433E+02  0.47000000000E+01 0.  1.
         13    1    4    4    0    0  0.22404862124E+01  0.47410843646E+02 -0.89848524026E+02  0.10161478801E+03  0.00000000000E+00 0. -1.
        -14    1    4    4    0    0 -0.30453279601E+02  0.30971574294E+02  0.23408479036E+01  0.43498508269E+02  0.00000000000E+00 0.  1.
<mgrwt>
<rscale>  2 0.17937462E+03</rscale>
<asrwt>0</asrwt>
<pdfrwt beam="1">  1       21 0.34349836E-01 0.17981546E+03</pdfrwt>
<pdfrwt beam="2">  1       21 0.34139954E-01 0.17981546E+03</pdfrwt>
<totfact> 0.67893393E+04</totfact>
</mgrwt>
</event>
<event>
12    1  0.1074575E-001  0.2080645E+03  0.7546771E-02  0.1143723E+00
         21   -1    0    0  501  502  0.00000000000E+00  0.00000000000E+00  0.69548694539E+02  0.69548694539E+02  0.00000000000E+00 0.  1.
         21   -1    0    0  502  503 -0.00000000000E+00 -0.00000000000E+00 -0.61992005780E+03  0.61992005780E+03  0.00000000000E+00 0.  1.
         -6    2    1    2    0  503 -0.10977870963E+03  0.66475355522E+01 -0.31262837278E+03  0.37553606977E+03  0.17662187128E+03 0.  0.
        -24    2    3    3    0    0 -0.29144125869E+02 -0.52302070773E+02 -0.10161222137E+03  0.14202611637E+03  0.79129561591E+02 0.  0.
          6    2    1    2  501    0  0.10977870963E+03 -0.66475355522E+01 -0.23774299048E+03  0.31393268257E+03  0.17302151556E+03 0.  0.
         24    2    5    5    0    0  0.88979264565E+02  0.31467975806E+02 -0.70525457948E+02  0.14110559468E+03  0.77649247312E+02 0.  0.
          5    1    5    5  501    0  0.20799445063E+02 -0.38115511358E+02 -0.16721753253E+03  0.17282708788E+03  0.47000000000E+01 0. -1.
        -13    1    6    6    0    0  0.10153052491E+03  0.37529001365E+02 -0.63526836670E+02  0.12550909293E+03  0.00000000000E+00 0.  1.
         14    1    6    6    0    0 -0.12551260343E+02 -0.60610255595E+01 -0.69986212777E+01  0.15596501749E+02  0.00000000000E+00 0. -1.
         -5    1    3    3    0  503 -0.80634583760E+02  0.58949606325E+02 -0.21101615141E+03  0.23350995340E+03  0.47000000000E+01 0.  1.
         13    1    4    4    0    0  0.46712504149E+01 -0.40680339722E+02 -0.97849629249E+02  0.10607195937E+03  0.00000000000E+00 0. -1.
        -14    1    4    4    0    0 -0.33815376284E+02 -0.11621731051E+02 -0.37625921252E+01  0.35954156997E+02  0.00000000000E+00 0.  1.
<mgrwt>
<rscale>  2 0.20729843E+03</rscale>
<asrwt>0</asrwt>
<pdfrwt beam="1">  1       21 0.10699799E-01 0.20806451E+03</pdfrwt>
<pdfrwt beam="2">  1       21 0.95372316E-01 0.20806451E+03</pdfrwt>
<totfact> 0.65593910E+04</totfact>
</mgrwt>
</event>
<event>
12    1  0.1074575E-001  0.1836641E+03  0.7546771E-02  0.1165885E+00
         21   -1    0    0  501  502  0.00000000000E+00  0.00000000000E+00  0.88764241083E+02  0.88764241083E+02  0.00000000000E+00 0.  1.
         21   -1    0    0  502  503 -0.00000000000E+00 -0.00000000000E+00 -0.47177938225E+03  0.47177938225E+03  0.00000000000E+00 0.  1.
         -6    2    1    2    0  503  0.28489535046E+02 -0.31068136429E+02 -0.32115808409E+03  0.36674269665E+03  0.17199072029E+03 0.  0.
        -24    2    3    3    0    0  0.51964284060E+01 -0.12517756331E+02 -0.32593502546E+03  0.33622066219E+03  0.81406361968E+02 0.  0.
          6    2    1    2  501    0 -0.28489535046E+02  0.31068136429E+02 -0.61857057077E+02  0.19380092668E+03  0.17876135198E+03 0.  0.
         24    2    5    5    0    0  0.48451985975E+00  0.31461881390E+02  0.34639891208E+02  0.92937643364E+02  0.80295695719E+02 0.  0.
          5    1    5    5  501    0 -0.28974054905E+02 -0.39374496102E+00 -0.96496948284E+02  0.10086328331E+03  0.47000000000E+01 0. -1.
        -11    1    6    6    0    0 -0.36099071807E+02  0.71086454869E+01 -0.29891477551E+00  0.36793548022E+02  0.00000000000E+00 0.  1.
         12    1    6    6    0    0  0.36583591667E+02  0.24353235903E+02  0.34938805983E+02  0.56144095342E+02  0.00000000000E+00 0. -1.
         -5    1    3    3    0  503  0.23293106640E+02 -0.18550380099E+02  0.47769413756E+01  0.30522034461E+02  0.47000000000E+01 0.  1.
         13    1    4    4    0    0 -0.36987019185E+02 -0.38497323190E+01 -0.11257708419E+03  0.11855994227E+03  0.00000000000E+00 0. -1.
        -14    1    4    4    0    0  0.42183447591E+02 -0.86680240116E+01 -0.21335794127E+03  0.21766071992E+03  0.00000000000E+00 0.  1.
<mgrwt>
<rscale>  2 0.18199574E+03</rscale>
<asrwt>0</asrwt>
<pdfrwt beam="1">  1       21 0.13656037E-01 0.18366411E+03</pdfrwt>
<pdfrwt beam="2">  1       21 0.72581445E-01 0.18366411E+03</pdfrwt>
<totfact> 0.79844669E+04</totfact>
</mgrwt>
</event>
<event>
12    1  0.1074575E-001  0.2171000E+03  0.7546771E-02  0.1136125E+00
         21   -1    0    0  503  502  0.00000000000E+00  0.00000000000E+00  0.58136860791E+03  0.58136860791E+03  0.00000000000E+00 0. -1.
         21   -1    0    0  501  503 -0.00000000000E+00 -0.00000000000E+00 -0.81074089141E+02  0.81074089141E+02  0.00000000000E+00 0. -1.
          6    2    1    2  501    0  0.12945259662E+03  0.24503943621E+02  0.23740207161E+03  0.32170195983E+03  0.17255141068E+03 0.  0.
         24    2    3    3    0    0  0.92713884087E+01  0.28501344169E+02  0.13079167253E+03  0.16093078949E+03  0.88848028354E+02 0.  0.
         -6    2    1    2    0  502 -0.12945259662E+03 -0.24503943621E+02  0.26289244716E+03  0.34074073722E+03  0.17214352501E+03 0.  0.
        -24    2    5    5    0    0 -0.13346195776E+03  0.13408014924E+02  0.25829512160E+03  0.30205460301E+03  0.80800645579E+02 0.  0.
          5    1    3    3  501    0  0.12018120821E+03 -0.39974005473E+01  0.10661039909E+03  0.16077117034E+03  0.47000000000E+01 0. -1.
        -13    1    4    4    0    0 -0.16371151620E+02 -0.20616968165E+02  0.10226531286E+02  0.28242803045E+02  0.00000000000E+00 0.  1.
         14    1    4    4    0    0  0.25642540029E+02  0.49118312334E+02  0.12056514124E+03  0.13268798645E+03  0.00000000000E+00 0. -1.
         -5    1    5    5    0  502  0.40093611411E+01 -0.37911958545E+02  0.45973255559E+01  0.38686134205E+02  0.47000000000E+01 0.  1.
         11    1    6    6    0    0 -0.87261235748E+02  0.19644226279E+01  0.83123569150E+02  0.12053177991E+03  0.00000000000E+00 0. -1.
        -12    1    6    6    0    0 -0.46200722013E+02  0.11443592296E+02  0.17517155245E+03  0.18152282310E+03  0.00000000000E+00 0.  1.
<mgrwt>
<rscale>  2 0.21701894E+03</rscale>
<asrwt>0</asrwt>
<pdfrwt beam="1">  1       21 0.89441322E-01 0.21709999E+03</pdfrwt>
<pdfrwt beam="2">  1       21 0.12472937E-01 0.21709999E+03</pdfrwt>
<totfact> 0.57682472E+04</totfact>
</mgrwt>
</event>
<event>
12    1  0.1074575E-001  0.2067418E+03  0.7546771E-02  0.1144174E+00
         21   -1    0    0  501  502  0.00000000000E+00  0.00000000000E+00  0.10751400554E+04  0.10751400554E+04  0.00000000000E+00 0. -1.
         21   -1    0    0  502  503 -0.00000000000E+00 -0.00000000000E+00 -0.10844007141E+03  0.10844007141E+03  0.00000000000E+00 0. -1.
         -6    2    1    2    0  503 -0.11166680084E+03  0.30134286561E+02  0.12358827925E+02  0.20710216497E+03  0.17135056601E+03 0.  0.
        -24    2    3    3    0    0 -0.79751258438E+02 -0.15851962916E+01 -0.54968072822E+02  0.12598663623E+03  0.80550402904E+02 0.  0.
          6    2    1    2  501    0  0.11166680084E+03 -0.30134286561E+02  0.95434115606E+03  0.97647796185E+03  0.17136107546E+03 0.  0.
         24    2    5    5    0    0  0.10949607338E+02 -0.47695696285E+02  0.60722183674E+03  0.61458534238E+03  0.81252758159E+02 0.  0.
          5    1    5    5  501    0  0.10071719350E+03  0.17561409724E+02  0.34711931933E+03  0.36189261947E+03  0.47000000000E+01 0. -1.
        -11    1    6    6    0    0  0.16326170079E+01  0.21237117287E+02  0.79697169736E+02  0.82494360128E+02  0.00000000000E+00 0.  1.
         12    1    6    6    0    0  0.93169903297E+01 -0.68932813572E+02  0.52752466700E+03  0.53209098225E+03  0.00000000000E+00 0. -1.
         -5    1    3    3    0  503 -0.31915542402E+02  0.31719482853E+02  0.67326900747E+02  0.81115528744E+02  0.47000000000E+01 0.  1.
         13    1    4    4    0    0 -0.65475854966E+02  0.34881953071E+02 -0.35056883395E+02  0.82053783014E+02  0.00000000000E+00 0. -1.
        -14    1    4    4    0    0 -0.14275403472E+02 -0.36467149363E+02 -0.19911189427E+02  0.43932853212E+02  0.00000000000E+00 0.  1.
<mgrwt>
<rscale>  2 0.20673961E+03</rscale>
<asrwt>0</asrwt>
<pdfrwt beam="1">  1       21 0.16540616E+00 0.20674179E+03</pdfrwt>
<pdfrwt beam="2">  1       21 0.16683089E-01 0.20674179E+03</pdfrwt>
<totfact> 0.73439345E+03</totfact>
</mgrwt>
</event>
<event>
12    1  0.1074575E-001  0.2475840E+03  0.7546771E-02  0.1114975E+00
         21   -1    0    0  501  502  0.00000000000E+00  0.00000000000E+00  0.14896706163E+03  0.14896706163E+03  0.00000000000E+00 0. -1.
         21   -1    0    0  502  503 -0.00000000000E+00 -0.00000000000E+00 -0.55468541245E+03  0.55468541245E+03  0.00000000000E+00 0. -1.
         -6    2    1    2    0  503 -0.46642120974E+02  0.16943173500E+03 -0.38223217824E+03  0.45495703417E+03  0.17321046327E+03 0.  0.
        -24    2    3    3    0    0  0.30419507152E+01  0.12520492820E+03 -0.35096947955E+03  0.38130946972E+03  0.80819605385E+02 0.  0.
          6    2    1    2  501    0  0.46642120974E+02 -0.16943173500E+03 -0.23486172581E+02  0.24869543992E+03  0.17439960223E+03 0.  0.
         24    2    5    5    0    0 -0.32392043454E+02 -0.35497426602E+02 -0.12647496909E+02  0.92732736031E+02  0.78294887312E+02 0.  0.
          5    1    5    5  501    0  0.79034164428E+02 -0.13393430840E+03 -0.10838675672E+02  0.15596270389E+03  0.47000000000E+01 0. -1.
        -13    1    6    6    0    0 -0.11946874640E+02 -0.66456935401E+01 -0.43628012908E+02  0.45719761226E+02  0.00000000000E+00 0.  1.
         14    1    6    6    0    0 -0.20445168814E+02 -0.28851733062E+02  0.30980515998E+02  0.47012974805E+02  0.00000000000E+00 0. -1.
         -5    1    3    3    0  503 -0.49684071689E+02  0.44226806803E+02 -0.31262698686E+02  0.73647564445E+02  0.47000000000E+01 0.  1.
         13    1    4    4    0    0  0.36694824536E+02  0.82993102797E+02 -0.26169935829E+03  0.27698541368E+03  0.00000000000E+00 0. -1.
        -14    1    4    4    0    0 -0.33652873821E+02  0.42211825401E+02 -0.89270121255E+02  0.10432405604E+03  0.00000000000E+00 0.  1.
<mgrwt>
<rscale>  2 0.24737466E+03</rscale>
<asrwt>0</asrwt>
<pdfrwt beam="1">  1       21 0.22918010E-01 0.24758397E+03</pdfrwt>
<pdfrwt beam="2">  1       21 0.85336216E-01 0.24758397E+03</pdfrwt>
<totfact> 0.20581745E+04</totfact>
</mgrwt>
</event>
<event>
12    1  0.1074575E-001  0.2053967E+03  0.7546771E-02  0.1145524E+00
         21   -1    0    0  501  502  0.00000000000E+00  0.00000000000E+00  0.30315381297E+03  0.30315381297E+03  0.00000000000E+00 0.  1.
         21   -1    0    0  502  503 -0.00000000000E+00 -0.00000000000E+00 -0.23861346443E+03  0.23861346443E+03  0.00000000000E+00 0.  1.
         -6    2    1    2    0  503 -0.39415319500E+02 -0.10157635774E+03 -0.14330411650E+03  0.25044732375E+03  0.17411624939E+03 0.  0.
        -24    2    3    3    0    0  0.36728726793E+02 -0.90404704937E+02 -0.10641165718E+03  0.16497296989E+03  0.79816226197E+02 0.  0.
          6    2    1    2  501    0  0.39415319500E+02  0.10157635774E+03  0.20784446505E+03  0.29131995365E+03  0.17261711932E+03 0.  0.
         24    2    5    5    0    0 -0.19474102889E+02  0.11653963587E+03  0.15267210562E+03  0.20911324464E+03  0.80366969811E+02 0.  0.
          5    1    5    5  501    0  0.58889422388E+02 -0.14963278134E+02  0.55172359429E+02  0.82206709013E+02  0.47000000000E+01 0. -1.
        -11    1    6    6    0    0  0.87773563817E+01  0.45442261532E+02  0.11473657469E+03  0.12371953237E+03  0.00000000000E+00 0.  1.
         12    1    6    6    0    0 -0.28251459270E+02  0.71097374338E+02  0.37935530939E+02  0.85393712276E+02  0.00000000000E+00 0. -1.
         -5    1    3    3    0  503 -0.76144046293E+02 -0.11171652799E+02 -0.36892459326E+02  0.85474353857E+02  0.47000000000E+01 0.  1.
         13    1    4    4    0    0  0.55358886917E+01  0.46468743883E+01  0.94510304639E+01  0.11897961255E+02  0.00000000000E+00 0. -1.
        -14    1    4    4    0    0  0.31192838101E+02 -0.95051579325E+02 -0.11586268764E+03  0.15307500864E+03  0.00000000000E+00 0.  1.
<mgrwt>
<rscale>  2 0.20507861E+03</rscale>
<asrwt>0</asrwt>
<pdfrwt beam="1">  1       21 0.46639048E-01 0.20539667E+03</pdfrwt>
<pdfrwt beam="2">  1       21 0.36709764E-01 0.20539667E+03</pdfrwt>
<totfact> 0.31286810E+04</totfact>
</mgrwt>
</event>
<event>
12    1  0.1074575E-001  0.3112975E+03  0.7546771E-02  0.1079907E+00
         21   -1    0    0  503  502  0.00000000000E+00  0.00000000000E+00  0.62866131536E+03  0.62866131536E+03  0.00000000000E+00 0.  1.
         21   -1    0    0  501  503 -0.00000000000E+00 -0.00000000000E+00 -0.16531234067E+03  0.16531234067E+03  0.00000000000E+00 0. -1.
          6    2    1    2  501    0  0.19745841087E+03  0.16745730928E+03  0.12561869388E+03  0.33568767296E+03  0.17284207552E+03 0.  0.
         24    2    3    3    0    0  0.16009000021E+03  0.58075265868E+02  0.41826195677E+02  0.19284474422E+03  0.80237896633E+02 0.  0.
         -6    2    1    2    0  502 -0.19745841087E+03 -0.16745730928E+03  0.33773028081E+03  0.45828598306E+03  0.17009563557E+03 0.  0.
        -24    2    5    5    0    0 -0.81089961946E+02 -0.12524367760E+03  0.26533755453E+03  0.31480635585E+03  0.80233802946E+02 0.  0.
          5    1    3    3  501    0  0.37368410670E+02  0.10938204342E+03  0.83792498203E+02  0.14284292875E+03  0.47000000000E+01 0. -1.
        -11    1    4    4    0    0  0.67936546868E+01  0.69173340203E+01 -0.18060354072E+02  0.20498283908E+02  0.00000000000E+00 0.  1.
         12    1    4    4    0    0  0.15329634552E+03  0.51157931848E+02  0.59886549750E+02  0.17234646031E+03  0.00000000000E+00 0. -1.
         -5    1    5    5    0  502 -0.11636844893E+03 -0.42213631682E+02  0.72392726278E+02  0.14347962721E+03  0.47000000000E+01 0.  1.
         11    1    6    6    0    0 -0.87780028334E+02 -0.11337735266E+03  0.18885507505E+03  0.23712021601E+03  0.00000000000E+00 0. -1.
        -12    1    6    6    0    0  0.66900663875E+01 -0.11866324940E+02  0.76482479478E+02  0.77686139839E+02  0.00000000000E+00 0.  1.
<mgrwt>
<rscale>  2 0.31091772E+03</rscale>
<asrwt>0</asrwt>
<pdfrwt beam="1">  1       21 0.96717124E-01 0.31129754E+03</pdfrwt>
<pdfrwt beam="2">  1       21 0.25432668E-01 0.31129754E+03</pdfrwt>
<totfact> 0.12206945E+04</totfact>
</mgrwt>
</event>
<event>
12    1  0.1074575E-001  0.2123405E+03  0.7546771E-02  0.1139908E+00
         21   -1    0    0  501  502  0.00000000000E+00  0.00000000000E+00  0.75357068370E+02  0.75357068370E+02  0.00000000000E+00 0.  1.
         21   -1    0    0  502  503 -0.00000000000E+00 -0.00000000000E+00 -0.75332832360E+03  0.75332832360E+03  0.00000000000E+00 0. -1.
         -6    2    1    2    0  503  0.86229122575E-01 -0.12221551504E+03 -0.52909545182E+03  0.57011446130E+03  0.17364291606E+03 0.  0.
        -24    2    3    3    0    0 -0.58941578695E+02 -0.11493329261E+03 -0.38550358526E+03  0.41462160937E+03  0.81328305401E+02 0.  0.
          6    2    1    2  501    0 -0.86229122575E-01  0.12221551504E+03 -0.14887580341E+03  0.25857093067E+03  0.17250588916E+03 0.  0.
         24    2    5    5    0    0  0.50761248436E+02  0.67524767618E+02 -0.39961127313E+02  0.12643070024E+03  0.85155925710E+02 0.  0.
          5    1    5    5  501    0 -0.50847477559E+02  0.54690747420E+02 -0.10891467609E+03  0.13214023042E+03  0.47000000000E+01 0. -1.
        -13    1    6    6    0    0  0.50275830217E+01  0.71308124612E+02 -0.36878894039E+02  0.80437416992E+02  0.00000000000E+00 0.  1.
         14    1    6    6    0    0  0.45733665415E+02 -0.37833569944E+01 -0.30822332739E+01  0.45993283253E+02  0.00000000000E+00 0. -1.
         -5    1    3    3    0  503  0.59027807818E+02 -0.72822224286E+01 -0.14359186656E+03  0.15549285193E+03  0.47000000000E+01 0.  1.
         13    1    4    4    0    0 -0.36004695062E+02 -0.37346736825E+01 -0.13161058029E+03  0.13649773147E+03  0.00000000000E+00 0. -1.
        -14    1    4    4    0    0 -0.22936883633E+02 -0.11119861893E+03 -0.25389300498E+03  0.27812387790E+03  0.00000000000E+00 0.  1.
<mgrwt>
<rscale>  2 0.21210795E+03</rscale>
<asrwt>0</asrwt>
<pdfrwt beam="1">  1       21 0.11593395E-01 0.21234053E+03</pdfrwt>
<pdfrwt beam="2">  1       21 0.11589667E+00 0.21234053E+03</pdfrwt>
<totfact> 0.35509100E+04</totfact>
</mgrwt>
</event>
<event>
12    1  0.1074575E-001  0.1803324E+03  0.7546771E-02  0.1167669E+00
         21   -1    0    0  501  502  0.00000000000E+00  0.00000000000E+00  0.13397435793E+03  0.13397435793E+03  0.00000000000E+00 0.  1.
         21   -1    0    0  502  503 -0.00000000000E+00 -0.00000000000E+00 -0.82154760939E+03  0.82154760939E+03  0.00000000000E+00 0.  1.
         -6    2    1    2    0  503  0.45169538491E+02  0.24872883387E+02 -0.74494798146E+03  0.76628236759E+03  0.17199483789E+03 0.  0.
        -24    2    3    3    0    0  0.18290350682E+01  0.54777486146E+02 -0.66398428917E+03  0.66958751781E+03  0.66846012559E+02 0.  0.
          6    2    1    2  501    0 -0.45169538491E+02 -0.24872883387E+02  0.57374729992E+02  0.18923959973E+03  0.17280283252E+03 0.  0.
         24    2    5    5    0    0 -0.31825360785E+02  0.38575749592E+02  0.76318897278E+02  0.12152868791E+03  0.80272696834E+02 0.  0.
          5    1    5    5  501    0 -0.13344177707E+02 -0.63448632979E+02 -0.18944167287E+02  0.67710911822E+02  0.47000000000E+01 0. -1.
        -11    1    6    6    0    0  0.62662117545E+01  0.63776787616E+01  0.70783310832E+02  0.71345758728E+02  0.00000000000E+00 0.  1.
         12    1    6    6    0    0 -0.38091572539E+02  0.32198070831E+02  0.55355864465E+01  0.50182929180E+02  0.00000000000E+00 0. -1.
         -5    1    3    3    0  503  0.43340503423E+02 -0.29904602759E+02 -0.80963692291E+02  0.96694849773E+02  0.47000000000E+01 0.  1.
         11    1    4    4    0    0 -0.28556323015E+02  0.45670192487E+02 -0.37068800701E+03  0.37458087058E+03  0.00000000000E+00 0. -1.
        -12    1    4    4    0    0  0.30385358083E+02  0.91072936591E+01 -0.29329628216E+03  0.29500664723E+03  0.00000000000E+00 0.  1.
<mgrwt>
<rscale>  2 0.18013854E+03</rscale>
<asrwt>0</asrwt>
<pdfrwt beam="1">  1       21 0.20611440E-01 0.18033238E+03</pdfrwt>
<pdfrwt beam="2">  1       21 0.12639194E+00 0.18033238E+03</pdfrwt>
<totfact> 0.10215161E+04</totfact>
</mgrwt>
</event>
<event>
12    1  0.1074575E-001  0.2035606E+03  0.7546771E-02  0.1147030E+00
         21   -1    0    0  503  502  0.00000000000E+00  0.00000000000E+00  0.11857698284E+03  0.11857698284E+03  0.00000000000E+00 0. -1.
         21   -1    0    0  501  503 -0.00000000000E+00 -0.00000000000E+00 -0.42083136091E+03  0.42083136091E+03  0.00000000000E+00 0. -1.
          6    2    1    2  501    0  0.62039510777E+02 -0.88211297695E+02 -0.26348248521E+03  0.33218819883E+03  0.17116029181E+03 0.  0.
         24    2    3    3    0    0 -0.21196421714E+02 -0.47622377286E+02 -0.74016205038E+02  0.12124924501E+03  0.80658550043E+02 0.  0.
         -6    2    1    2    0  502 -0.62039510777E+02  0.88211297695E+02 -0.38771892853E+02  0.20722014492E+03  0.17264644464E+03 0.  0.
        -24    2    5    5    0    0 -0.10687571373E+03  0.85856419185E+02 -0.37410035097E+02  0.16205627436E+03  0.77903674062E+02 0.  0.
          5    1    3    3  501    0  0.83235932491E+02 -0.40588920410E+02 -0.18946628017E+03  0.21093895382E+03  0.47000000000E+01 0. -1.
        -13    1    4    4    0    0  0.13913299416E+02 -0.23290654834E+02  0.84168928326E+01  0.28405608393E+02  0.00000000000E+00 0.  1.
         14    1    4    4    0    0 -0.35109721131E+02 -0.24331722452E+02 -0.82433097871E+02  0.92843636615E+02  0.00000000000E+00 0. -1.
         -5    1    5    5    0  502  0.44836202950E+02  0.23548785104E+01 -0.13618577563E+01  0.45163870564E+02  0.47000000000E+01 0.  1.
         11    1    6    6    0    0 -0.78498742220E+02  0.68441398066E+02 -0.61511015621E+02  0.12095405137E+03  0.00000000000E+00 0. -1.
        -12    1    6    6    0    0 -0.28376971507E+02  0.17415021119E+02  0.24100980524E+02  0.41102222990E+02  0.00000000000E+00 0.  1.
<mgrwt>
<rscale>  2 0.20324516E+03</rscale>
<asrwt>0</asrwt>
<pdfrwt beam="1">  1       21 0.18242613E-01 0.20356063E+03</pdfrwt>
<pdfrwt beam="2">  1       21 0.64743285E-01 0.20356063E+03</pdfrwt>
<totfact> 0.59901308E+04</totfact>
</mgrwt>
</event>
<event>
12    1  0.1074575E-001  0.2014353E+03  0.7546771E-02  0.1148740E+00
         21   -1    0    0  501  502  0.00000000000E+00  0.00000000000E+00  0.11365704554E+03  0.11365704554E+03  0.00000000000E+00 0.  1.
         21   -1    0    0  502  503 -0.00000000000E+00 -0.00000000000E+00 -0.39747362161E+03  0.39747362161E+03  0.00000000000E+00 0. -1.
         -6    2    1    2    0  503 -0.92121865431E+02  0.44411448616E+02 -0.22488045250E+03  0.30125061470E+03  0.17240040628E+03 0.  0.
        -24    2    3    3    0    0 -0.61771749521E+02  0.87392770579E+02 -0.20668271946E+03  0.24537780324E+03  0.77712768643E+02 0.  0.
          6    2    1    2  501    0  0.92121865431E+02 -0.44411448616E+02 -0.58936123574E+02  0.20988005244E+03  0.17354352449E+03 0.  0.
         24    2    5    5    0    0  0.48176032862E+02 -0.87876027473E+02 -0.70881375691E+02  0.14675173183E+03  0.80428695304E+02 0.  0.
          5    1    5    5  501    0  0.43945832569E+02  0.43464578857E+02  0.11945252117E+02  0.63128320614E+02  0.47000000000E+01 0. -1.
        -13    1    6    6    0    0  0.14963072405E+02 -0.24485264489E+01  0.14869185385E+02  0.21236324813E+02  0.00000000000E+00 0.  1.
         14    1    6    6    0    0  0.33212960457E+02 -0.85427501024E+02 -0.85750561076E+02  0.12551540702E+03  0.00000000000E+00 0. -1.
         -5    1    3    3    0  503 -0.30350115910E+02 -0.42981321963E+02 -0.18197733038E+02  0.55872811466E+02  0.47000000000E+01 0.  1.
         13    1    4    4    0    0 -0.74205170857E+02  0.92403991129E+02 -0.19061175814E+03  0.22444987703E+03  0.00000000000E+00 0. -1.
        -14    1    4    4    0    0  0.12433421336E+02 -0.50112205500E+01 -0.16070961316E+02  0.20927926203E+02  0.00000000000E+00 0.  1.
<mgrwt>
<rscale>  2 0.20118882E+03</rscale>
<asrwt>0</asrwt>
<pdfrwt beam="1">  1       21 0.17485699E-01 0.20143527E+03</pdfrwt>
<pdfrwt beam="2">  1       21 0.61149788E-01 0.20143527E+03</pdfrwt>
<totfact> 0.73391867E+04</totfact>
</mgrwt>
</event>
<event>
12    1  0.1074575E-001  0.1821661E+03  0.7546771E-02  0.1166025E+00
         21   -1    0    0  503  502  0.00000000000E+00  0.00000000000E+00  0.99383562150E+03  0.99383562150E+03  0.00000000000E+00 0.  1.
         21   -1    0    0  501  503 -0.00000000000E+00 -0.00000000000E+00 -0.33332761318E+02  0.33332761318E+02  0.00000000000E+00 0.  1.
          6    2    1    2  501    0 -0.31839376591E+02 -0.41305818487E+02  0.44482543437E+03  0.48068091874E+03  0.17454100388E+03 0.  0.
         24    2    3    3    0    0 -0.79438635180E+02 -0.63426419745E+02  0.30203247071E+03  0.32847405001E+03  0.79612691737E+02 0.  0.
         -6    2    1    2    0  502  0.31839376591E+02  0.41305818487E+02  0.51567742581E+03  0.54648746408E+03  0.17322073882E+03 0.  0.
        -24    2    5    5    0    0  0.58569533046E+02 -0.24863476343E+02  0.22566821371E+03  0.24778977418E+03  0.80156389978E+02 0.  0.
          5    1    3    3  501    0  0.47599258590E+02  0.22120601258E+02  0.14279296365E+03  0.15220686873E+03  0.47000000000E+01 0. -1.
        -11    1    4    4    0    0 -0.23602119257E+02 -0.68312458276E+02  0.15183697448E+03  0.16816099075E+03  0.00000000000E+00 0.  1.
         12    1    4    4    0    0 -0.55836515923E+02  0.48860385312E+01  0.15019549623E+03  0.16031305927E+03  0.00000000000E+00 0. -1.
         -5    1    5    5    0  502 -0.26730156455E+02  0.66169294830E+02  0.29000921210E+03  0.29869768989E+03  0.47000000000E+01 0.  1.
         13    1    6    6    0    0  0.42612377067E+02 -0.30283489204E+01  0.35038086780E+02  0.55250819919E+02  0.00000000000E+00 0. -1.
        -14    1    6    6    0    0  0.15957155979E+02 -0.21835127423E+02  0.19063012693E+03  0.19253895426E+03  0.00000000000E+00 0.  1.
<mgrwt>
<rscale>  2 0.18184910E+03</rscale>
<asrwt>0</asrwt>
<pdfrwt beam="1">  1       21 0.15289777E+00 0.18216607E+03</pdfrwt>
<pdfrwt beam="2">  1       21 0.51281179E-02 0.18216607E+03</pdfrwt>
<totfact> 0.73628949E+04</totfact>
</mgrwt>
</event>
<event>
12    1  0.1074575E-001  0.2310857E+03  0.7546771E-02  0.1127407E+00
         21   -1    0    0  501  502  0.00000000000E+00  0.00000000000E+00  0.39564301285E+03  0.39564301285E+03  0.00000000000E+00 0. -1.
         21   -1    0    0  502  503 -0.00000000000E+00 -0.00000000000E+00 -0.26129271273E+03  0.26129271273E+03  0.00000000000E+00 0. -1.
         -6    2    1    2    0  503  0.76618766206E+02  0.11848438335E+03 -0.16625875460E+03  0.27777030401E+03  0.17206215120E+03 0.  0.
        -24    2    3    3    0    0  0.50120818798E+02  0.38727219040E+02 -0.11163216544E+02  0.10130483317E+03  0.78269776080E+02 0.  0.
          6    2    1    2  501    0 -0.76618766206E+02 -0.11848438335E+03  0.30060905472E+03  0.37916542156E+03  0.18300718210E+03 0.  0.
         24    2    5    5    0    0 -0.99411110134E+02 -0.56358003095E+02  0.27510068359E+03  0.30808838545E+03  0.78608357089E+02 0.  0.
          5    1    5    5  501    0  0.22792343928E+02 -0.62126380258E+02  0.25508371125E+02  0.71077036116E+02  0.47000000000E+01 0. -1.
        -11    1    6    6    0    0  0.11026174759E+02  0.52394270416E+01  0.26370458186E+02  0.29059063827E+02  0.00000000000E+00 0.  1.
         12    1    6    6    0    0 -0.11043728489E+03 -0.61597430137E+02  0.24873022541E+03  0.27902932162E+03  0.00000000000E+00 0. -1.
         -5    1    3    3    0  503  0.26497947407E+02  0.79757164314E+02 -0.15509553805E+03  0.17646547084E+03  0.47000000000E+01 0.  1.
         13    1    4    4    0    0  0.14443182450E+02 -0.22701049207E+02 -0.13758687718E+02  0.30219937824E+02  0.00000000000E+00 0. -1.
        -14    1    4    4    0    0  0.35677636349E+02  0.61428268246E+02  0.25954711738E+01  0.71084895342E+02  0.00000000000E+00 0.  1.
<mgrwt>
<rscale>  2 0.22891342E+03</rscale>
<asrwt>0</asrwt>
<pdfrwt beam="1">  1       21 0.60868155E-01 0.23108573E+03</pdfrwt>
<pdfrwt beam="2">  1       21 0.40198879E-01 0.23108573E+03</pdfrwt>
<totfact> 0.14637373E+04</totfact>
</mgrwt>
</event>
<event>
12    1  0.1074575E-001  0.1898441E+03  0.7546771E-02  0.1158686E+00
         21   -1    0    0  503  502  0.00000000000E+00  0.00000000000E+00  0.47127056644E+02  0.47127056644E+02  0.00000000000E+00 0.  1.
         21   -1    0    0  501  503 -0.00000000000E+00 -0.00000000000E+00 -0.79904561775E+03  0.79904561775E+03  0.00000000000E+00 0.  1.
          6    2    1    2  501    0 -0.37638044628E+02 -0.66316773757E+02 -0.46584483097E+03  0.50304291731E+03  0.17385693320E+03 0.  0.
         24    2    3    3    0    0 -0.16171306086E+02 -0.11272409272E+02 -0.87245438407E+02  0.11983240991E+03  0.79746232459E+02 0.  0.
         -6    2    1    2    0  502  0.37638044628E+02  0.66316773757E+02 -0.28607373013E+03  0.34312975709E+03  0.17345118691E+03 0.  0.
        -24    2    5    5    0    0 -0.33411504274E+02  0.79325715652E+02 -0.16898584364E+03  0.20547462957E+03  0.79086726222E+02 0.  0.
          5    1    3    3  501    0 -0.21466738542E+02 -0.55044364484E+02 -0.37859939257E+03  0.38321050739E+03  0.47000000000E+01 0. -1.
        -13    1    4    4    0    0 -0.13331244128E+02 -0.42380318327E+02 -0.27049999014E+02  0.52014573901E+02  0.00000000000E+00 0.  1.
         14    1    4    4    0    0 -0.28400619582E+01  0.31107909054E+02 -0.60195439393E+02  0.67817836012E+02  0.00000000000E+00 0. -1.
         -5    1    5    5    0  502  0.71049548902E+02 -0.13008941895E+02 -0.11708788649E+03  0.13765512752E+03  0.47000000000E+01 0.  1.
         13    1    6    6    0    0  0.56755894158E+01  0.10191979859E+02 -0.98802763509E+02  0.99489068975E+02  0.00000000000E+00 0. -1.
        -14    1    6    6    0    0 -0.39087093690E+02  0.69133735793E+02 -0.70183080132E+02  0.10598556060E+03  0.00000000000E+00 0.  1.
<mgrwt>
<rscale>  2 0.18975112E+03</rscale>
<asrwt>0</asrwt>
<pdfrwt beam="1">  1       21 0.72503158E-02 0.18984407E+03</pdfrwt>
<pdfrwt beam="2">  1       21 0.12293011E+00 0.18984407E+03</pdfrwt>
<totfact> 0.70893460E+04</totfact>
</mgrwt>
</event>
<event>
12    1  0.1074575E-001  0.1730649E+03  0.7546771E-02  0.1174885E+00
         21   -1    0    0  503  502  0.00000000000E+00  0.00000000000E+00  0.11815999022E+04  0.11815999022E+04  0.00000000000E+00 0.  1.
         21   -1    0    0  501  503 -0.00000000000E+00 -0.00000000000E+00 -0.35461445394E+02  0.35461445394E+02  0.00000000000E+00 0.  1.
          6    2    1    2  501    0  0.30337533243E+01  0.46543865810E+01  0.24538588346E+03  0.29983365014E+03  0.17220661713E+03 0.  0.
         24    2    3    3    0    0  0.51390116440E+02  0.30463899537E+02  0.21589996807E+03  0.23741588008E+03  0.78641659839E+02 0.  0.
         -6    2    1    2    0  502 -0.30337533243E+01 -0.46543865810E+01  0.90075257333E+03  0.91722769743E+03  0.17297567344E+03 0.  0.
        -24    2    5    5    0    0  0.64121959303E+02 -0.14262961890E+02  0.52531552601E+03  0.53568178806E+03  0.81752788606E+02 0.  0.
          5    1    3    3  501    0 -0.48356363115E+02 -0.25809512956E+02  0.29485915392E+02  0.62417770060E+02  0.47000000000E+01 0. -1.
        -13    1    4    4    0    0  0.13335832071E+02  0.17287835129E+02  0.46005998833E+01  0.22313206399E+02  0.00000000000E+00 0.  1.
         14    1    4    4    0    0  0.38054284368E+02  0.13176064408E+02  0.21129936818E+03  0.21510267369E+03  0.00000000000E+00 0. -1.
         -5    1    5    5    0  502 -0.67155712627E+02  0.96085753093E+01  0.37543704732E+03  0.38154590937E+03  0.47000000000E+01 0.  1.
         11    1    6    6    0    0 -0.23684491301E+01  0.20551864490E+02  0.44873600510E+02  0.49412839506E+02  0.00000000000E+00 0. -1.
        -12    1    6    6    0    0  0.66490408433E+02 -0.34814826380E+02  0.48044192550E+03  0.48626894855E+03  0.00000000000E+00 0.  1.
<mgrwt>
<rscale>  2 0.17287239E+03</rscale>
<asrwt>0</asrwt>
<pdfrwt beam="1">  1       21 0.18178457E+00 0.17306487E+03</pdfrwt>
<pdfrwt beam="2">  1       21 0.54556079E-02 0.17306487E+03</pdfrwt>
<totfact> 0.41572200E+04</totfact>
</mgrwt>
</event>
<event>
12    1  0.1074575E-001  0.2359142E+03  0.7546771E-02  0.1122811E+00
         21   -1    0    0  503  502  0.00000000000E+00  0.00000000000E+00  0.12687419915E+03  0.12687419915E+03  0.00000000000E+00 0. -1.
         21   -1    0    0  501  503 -0.00000000000E+00 -0.00000000000E+00 -0.49862114241E+03  0.49862114241E+03  0.00000000000E+00 0.  1.
          6    2    1    2  501    0  0.87705492700E+02  0.13350439378E+03 -0.29744349923E+03  0.37964213232E+03  0.17360828549E+03 0.  0.
         24    2    3    3    0    0  0.11699687536E+03  0.87882730071E+02 -0.15836485156E+03  0.23029595214E+03  0.80902140095E+02 0.  0.
         -6    2    1    2    0  502 -0.87705492700E+02 -0.13350439378E+03 -0.74303444022E+02  0.24585320923E+03  0.17148504916E+03 0.  0.
        -24    2    5    5    0    0 -0.86836639093E+02 -0.12420390643E+03 -0.11299525305E+03  0.20577328835E+03  0.81286571632E+02 0.  0.
          5    1    3    3  501    0 -0.29291382659E+02  0.45621663710E+02 -0.13907864767E+03  0.14934618019E+03  0.47000000000E+01 0. -1.
        -13    1    4    4    0    0  0.11228495385E+02 -0.93042538960E+01 -0.45018799012E+02  0.47321670656E+02  0.00000000000E+00 0.  1.
         14    1    4    4    0    0  0.10576837997E+03  0.97186983967E+02 -0.11334605255E+03  0.18297428148E+03  0.00000000000E+00 0. -1.
         -5    1    5    5    0  502 -0.86885360732E+00 -0.93004873551E+01  0.38691809028E+02  0.40079920877E+02  0.47000000000E+01 0.  1.
         13    1    6    6    0    0 -0.31850882776E+02 -0.39232738928E+02  0.44562382620E+01  0.50730115285E+02  0.00000000000E+00 0. -1.
        -14    1    6    6    0    0 -0.54985756317E+02 -0.84971167498E+02 -0.11745149131E+03  0.15504317307E+03  0.00000000000E+00 0.  1.
<mgrwt>
<rscale>  2 0.23552372E+03</rscale>
<asrwt>0</asrwt>
<pdfrwt beam="1">  1       21 0.19519108E-01 0.23591421E+03</pdfrwt>
<pdfrwt beam="2">  1       21 0.76710944E-01 0.23591421E+03</pdfrwt>
<totfact> 0.35726498E+04</totfact>
</mgrwt>
</event>
<event>
12    1  0.1074575E-001  0.3156720E+03  0.7546771E-02  0.1077664E+00
         21   -1    0    0  503  502  0.00000000000E+00  0.00000000000E+00  0.85946230532E+02  0.85946230532E+02  0.00000000000E+00 0. -1.
         21   -1    0    0  501  503 -0.00000000000E+00 -0.00000000000E+00 -0.12015550404E+04  0.12015550404E+04  0.00000000000E+00 0. -1.
          6    2    1    2  501    0 -0.24601670981E+03  0.96549786216E+02 -0.67855829537E+03  0.74837049428E+03  0.17254261434E+03 0.  0.
         24    2    3    3    0    0 -0.67320233394E+02  0.21397066567E+02 -0.13919281584E+03  0.17520596950E+03  0.79577908271E+02 0.  0.
         -6    2    1    2    0  502  0.24601670981E+03 -0.96549786216E+02 -0.43705051449E+03  0.53913077665E+03  0.17263475720E+03 0.  0.
        -24    2    5    5    0    0  0.16807819519E+03 -0.90352457593E+02 -0.19361790684E+03  0.28340759935E+03  0.80113215061E+02 0.  0.
          5    1    3    3  501    0 -0.17869647641E+03  0.75152719648E+02 -0.53936547954E+03  0.57316452478E+03  0.47000000000E+01 0. -1.
        -13    1    4    4    0    0 -0.22129629911E+02 -0.29972551723E+02 -0.59165513210E+02  0.69918755210E+02  0.00000000000E+00 0.  1.
         14    1    4    4    0    0 -0.45190603483E+02  0.51369618290E+02 -0.80027302629E+02  0.10528721429E+03  0.00000000000E+00 0. -1.
         -5    1    5    5    0  502  0.77938514615E+02 -0.61973286226E+01 -0.24343260765E+03  0.25572317731E+03  0.47000000000E+01 0.  1.
         13    1    6    6    0    0  0.91787062369E+02 -0.34709907022E+02 -0.15034825364E+03  0.17953896467E+03  0.00000000000E+00 0. -1.
        -14    1    6    6    0    0  0.76291132822E+02 -0.55642550571E+02 -0.43269653205E+02  0.10386863468E+03  0.00000000000E+00 0.  1.
<mgrwt>
<rscale>  2 0.31565945E+03</rscale>
<asrwt>0</asrwt>
<pdfrwt beam="1">  1       21 0.13222498E-01 0.31567205E+03</pdfrwt>
<pdfrwt beam="2">  1       21 0.18485461E+00 0.31567205E+03</pdfrwt>
<totfact> 0.76649351E+03</totfact>
</mgrwt>
</event>
<event>
12    1  0.1074575E-001  0.2178683E+03  0.7546771E-02  0.1135792E+00
         21   -1    0    0  501  502  0.00000000000E+00  0.00000000000E+00  0.10063819567E+04  0.10063819567E+04  0.00000000000E+00 0.  1.
         21   -1    0    0  502  503 -0.00000000000E+00 -0.00000000000E+00 -0.66107487330E+02  0.66107487330E+02  0.00000000000E+00 0.  1.
         -6    2    1    2    0  503 -0.92788969704E+02  0.92272901114E+02  0.18168403741E+03  0.28368237593E+03  0.17419104392E+03 0.  0.
        -24    2    3    3    0    0 -0.54828487581E+02  0.83432056530E+02  0.35779380736E+02  0.13258830730E+03  0.79576529448E+02 0.  0.
          6    2    1    2  501    0  0.92788969704E+02 -0.92272901114E+02  0.75859043197E+03  0.78880706811E+03  0.17214257477E+03 0.  0.
         24    2    5    5    0    0  0.38629538913E+02  0.29057266144E+01  0.49622779656E+03  0.50446843624E+03  0.82132165150E+02 0.  0.
          5    1    5    5  501    0  0.54159430790E+02 -0.95178627728E+02  0.26236263541E+03  0.28433863188E+03  0.47000000000E+01 0. -1.
        -11    1    6    6    0    0 -0.12018603083E+02  0.67401829718E+01  0.14253904307E+02  0.19825505657E+02  0.00000000000E+00 0.  1.
         12    1    6    6    0    0  0.50648141996E+02 -0.38344563575E+01  0.48197389226E+03  0.48464293058E+03  0.00000000000E+00 0. -1.
         -5    1    3    3    0  503 -0.37960482123E+02  0.88408445843E+01  0.14590465667E+03  0.15109406863E+03  0.47000000000E+01 0.  1.
         13    1    4    4    0    0 -0.49180176713E+02  0.31752796421E+02  0.51822137268E+02  0.78182247173E+02  0.00000000000E+00 0. -1.
        -14    1    4    4    0    0 -0.56483108683E+01  0.51679260109E+02 -0.16042756533E+02  0.54406060124E+02  0.00000000000E+00 0.  1.
<mgrwt>
<rscale>  2 0.21745858E+03</rscale>
<asrwt>0</asrwt>
<pdfrwt beam="1">  1       21 0.15482798E+00 0.21786831E+03</pdfrwt>
<pdfrwt beam="2">  1       21 0.10170383E-01 0.21786831E+03</pdfrwt>
<totfact> 0.21294575E+04</totfact>
</mgrwt>
</event>
<event>
12    1  0.1074575E-001  0.2387682E+03  0.7546771E-02  0.1120843E+00
         21   -1    0    0  503  502  0.00000000000E+00  0.00000000000E+00  0.14985638820E+04  0.14985638820E+04  0.00000000000E+00 0. -1.
         21   -1    0    0  501  503 -0.00000000000E+00 -0.00000000000E+00 -0.56751716633E+02  0.56751716633E+02  0.00000000000E+00 0. -1.
          6    2    1    2  501    0  0.17975848089E+02  0.16231822545E+03  0.27048858562E+03  0.35990388574E+03  0.17232641872E+03 0.  0.
         24    2    3    3    0    0 -0.30516051027E+02  0.16479296872E+03  0.19066933775E+03  0.26635822328E+03  0.80647100635E+02 0.  0.
         -6    2    1    2    0  502 -0.17975848089E+02 -0.16231822545E+03  0.11713235797E+04  0.11954117129E+04  0.17418351652E+03 0.  0.
        -24    2    5    5    0    0 -0.55557746931E+02 -0.16373908052E+03  0.10779697216E+04  0.10946573047E+04  0.79741734398E+02 0.  0.
          5    1    3    3  501    0  0.48491899116E+02 -0.24747432659E+01  0.79819247871E+02  0.93545662458E+02  0.47000000000E+01 0. -1.
        -11    1    4    4    0    0 -0.23364720378E+02  0.29862994316E+01  0.18249802084E+02  0.29797372682E+02  0.00000000000E+00 0.  1.
         12    1    4    4    0    0 -0.71513306493E+01  0.16180666929E+03  0.17241953567E+03  0.23656085060E+03  0.00000000000E+00 0. -1.
         -5    1    5    5    0  502  0.37581898842E+02  0.14208550614E+01  0.93353858112E+02  0.10075440821E+03  0.47000000000E+01 0.  1.
         13    1    6    6    0    0  0.45868498156E+01 -0.76451587589E+02  0.30577828108E+03  0.31522411332E+03  0.00000000000E+00 0. -1.
        -14    1    6    6    0    0 -0.60144596746E+02 -0.87287492926E+02  0.77219144053E+03  0.77943319134E+03  0.00000000000E+00 0.  1.
<mgrwt>
<rscale>  2 0.23842960E+03</rscale>
<asrwt>0</asrwt>
<pdfrwt beam="1">  1       21 0.23054826E+00 0.23876816E+03</pdfrwt>
<pdfrwt beam="2">  1       21 0.87310344E-02 0.23876816E+03</pdfrwt>
<totfact> 0.85967925E+03</totfact>
</mgrwt>
</event>
<event>
12    1  0.1074575E-001  0.2532660E+03  0.7546771E-02  0.1111606E+00
         21   -1    0    0  501  502  0.00000000000E+00  0.00000000000E+00  0.18121735560E+03  0.18121735560E+03  0.00000000000E+00 0.  1.
         21   -1    0    0  502  503 -0.00000000000E+00 -0.00000000000E+00 -0.36689964232E+03  0.36689964232E+03  0.00000000000E+00 0.  1.
         -6    2    1    2    0  503 -0.94270225673E+02  0.15807452413E+03 -0.14977245461E+03  0.29231792633E+03  0.17071482439E+03 0.  0.
        -24    2    3    3    0    0 -0.24181844195E+02  0.55985923360E+02 -0.13239100585E+03  0.16718332526E+03  0.81876129677E+02 0.  0.
          6    2    1    2  501    0  0.94270225673E+02 -0.15807452413E+03 -0.35909832108E+02  0.25579907159E+03  0.17398051143E+03 0.  0.
         24    2    5    5    0    0  0.78708609939E+02 -0.92287184116E+02  0.45211664131E+02  0.15009701323E+03  0.75980584204E+02 0.  0.
          5    1    5    5  501    0  0.15561615733E+02 -0.65787340012E+02 -0.81121496239E+02  0.10570205836E+03  0.47000000000E+01 0. -1.
        -13    1    6    6    0    0 -0.14021696962E+02 -0.85395624259E+01  0.13319231111E+02  0.21140814305E+02  0.00000000000E+00 0.  1.
         14    1    6    6    0    0  0.92730306901E+02 -0.83747621690E+02  0.31892433020E+02  0.12895619892E+03  0.00000000000E+00 0. -1.
         -5    1    3    3    0  503 -0.70088381478E+02  0.10208860077E+03 -0.17381448760E+02  0.12513460107E+03  0.47000000000E+01 0.  1.
         13    1    4    4    0    0  0.27547725692E+02  0.27334231558E+02 -0.76671872078E+02  0.85933773184E+02  0.00000000000E+00 0. -1.
        -14    1    4    4    0    0 -0.51729569887E+02  0.28651691801E+02 -0.55719133773E+02  0.81249552074E+02  0.00000000000E+00 0.  1.
<mgrwt>
<rscale>  2 0.25270608E+03</rscale>
<asrwt>0</asrwt>
<pdfrwt beam="1">  1       21 0.27879594E-01 0.25326596E+03</pdfrwt>
<pdfrwt beam="2">  1       21 0.56446098E-01 0.25326596E+03</pdfrwt>
<totfact> 0.35227799E+04</totfact>
</mgrwt>
</event>
<event>
12    1  0.1074575E-001  0.1973517E+03  0.7546771E-02  0.1152165E+00
         21   -1    0    0  501  502  0.00000000000E+00  0.00000000000E+00  0.97462336135E+02  0.97462336135E+02  0.00000000000E+00 0. -1.
         21   -1    0    0  502  503 -0.00000000000E+00 -0.00000000000E+00 -0.40222713592E+03  0.40222713592E+03  0.00000000000E+00 0. -1.
         -6    2    1    2    0  503 -0.78709441129E+02  0.52835840420E+02 -0.17831998853E+03  0.26598068456E+03  0.17309218381E+03 0.  0.
        -24    2    3    3    0    0 -0.99249874489E+02 -0.23624119170E+01 -0.78285565689E+02  0.14980094357E+03  0.80346588750E+02 0.  0.
          6    2    1    2  501    0  0.78709441129E+02 -0.52835840420E+02 -0.12644481125E+03  0.23370878749E+03  0.17217637730E+03 0.  0.
         24    2    5    5    0    0  0.71893383973E+02 -0.10032674940E+03 -0.10585654114E+03  0.18128921159E+03  0.80162682301E+02 0.  0.
          5    1    5    5  501    0  0.68160571564E+01  0.47490908979E+02 -0.20588270110E+02  0.52419575895E+02  0.47000000000E+01 0. -1.
        -11    1    6    6    0    0  0.72593581380E+02 -0.97031965014E+02 -0.59843027121E+02  0.13515257373E+03  0.00000000000E+00 0.  1.
         12    1    6    6    0    0 -0.70019740656E+00 -0.32947843850E+01 -0.46013514017E+02  0.46136637857E+02  0.00000000000E+00 0. -1.
         -5    1    3    3    0  503  0.20540433360E+02  0.55198252337E+02 -0.10003442284E+03  0.11617974099E+03  0.47000000000E+01 0.  1.
         13    1    4    4    0    0 -0.45046761387E+02  0.31279242339E+01 -0.83647406242E+02  0.95057262703E+02  0.00000000000E+00 0. -1.
        -14    1    4    4    0    0 -0.54203113102E+02 -0.54903361509E+01  0.53618405533E+01  0.54743680869E+02  0.00000000000E+00 0.  1.
<mgrwt>
<rscale>  2 0.19715074E+03</rscale>
<asrwt>0</asrwt>
<pdfrwt beam="1">  1       21 0.14994205E-01 0.19735173E+03</pdfrwt>
<pdfrwt beam="2">  1       21 0.61881098E-01 0.19735173E+03</pdfrwt>
<totfact> 0.94995910E+04</totfact>
</mgrwt>
</event>
<event>
12    1  0.1074575E-001  0.1751474E+03  0.7546771E-02  0.1172933E+00
         21   -1    0    0  503  502  0.00000000000E+00  0.00000000000E+00  0.12231441831E+04  0.12231441831E+04  0.00000000000E+00 0. -1.
         21   -1    0    0  501  503 -0.00000000000E+00 -0.00000000000E+00 -0.44085078340E+02  0.44085078340E+02  0.00000000000E+00 0. -1.
          6    2    1    2  501    0  0.17037472626E+02 -0.63201178521E+01  0.17267146732E+03  0.24595131611E+03  0.17420216678E+03 0.  0.
         24    2    3    3    0    0  0.53026632982E+02  0.12763410266E+02  0.17980516988E+03  0.20432944181E+03  0.80286320293E+02 0.  0.
         -6    2    1    2    0  502 -0.17037472626E+02  0.63201178521E+01  0.10063876374E+04  0.10212779453E+04  0.17280724941E+03 0.  0.
        -24    2    5    5    0    0  0.18842338234E+02  0.57388564724E+01  0.24994446870E+03  0.26396951660E+03  0.82581475365E+02 0.  0.
          5    1    3    3  501    0 -0.35989160356E+02 -0.19083528118E+02 -0.71337025628E+01  0.41621874306E+02  0.47000000000E+01 0. -1.
        -11    1    4    4    0    0 -0.10015580989E+02  0.24446590912E+02  0.23396093275E+02  0.35289160521E+02  0.00000000000E+00 0.  1.
         12    1    4    4    0    0  0.63042213971E+02 -0.11683180647E+02  0.15640907661E+03  0.16904028129E+03  0.00000000000E+00 0. -1.
         -5    1    5    5    0  502 -0.35879810860E+02  0.58126137967E+00  0.75644316870E+03  0.75730842869E+03  0.47000000000E+01 0.  1.
         13    1    6    6    0    0  0.59002485546E+00  0.41550196359E+02  0.91290600668E+02  0.10030324380E+03  0.00000000000E+00 0. -1.
        -14    1    6    6    0    0  0.18252313379E+02 -0.35811339887E+02  0.15865386804E+03  0.16366627280E+03  0.00000000000E+00 0.  1.
<mgrwt>
<rscale>  2 0.17479954E+03</rscale>
<asrwt>0</asrwt>
<pdfrwt beam="1">  1       21 0.18817600E+00 0.17514741E+03</pdfrwt>
<pdfrwt beam="2">  1       21 0.67823207E-02 0.17514741E+03</pdfrwt>
<totfact> 0.25941494E+04</totfact>
</mgrwt>
</event>
<event>
12    1  0.1074575E-001  0.3035001E+03  0.7546771E-02  0.1083530E+00
         21   -1    0    0  503  502  0.00000000000E+00  0.00000000000E+00  0.38823904667E+03  0.38823904667E+03  0.00000000000E+00 0.  1.
         21   -1    0    0  501  503 -0.00000000000E+00 -0.00000000000E+00 -0.23873680914E+03  0.23873680914E+03  0.00000000000E+00 0. -1.
          6    2    1    2  501    0  0.12913919869E+03 -0.21285319732E+03  0.48689586586E+02  0.30717040372E+03  0.17320382453E+03 0.  0.
         24    2    3    3    0    0  0.55441972247E+02 -0.94068986556E+02 -0.39743055290E+02  0.14169112386E+03  0.81080685858E+02 0.  0.
         -6    2    1    2    0  502 -0.12913919869E+03  0.21285319732E+03  0.10081265094E+03  0.31980545209E+03  0.17357684279E+03 0.  0.
        -24    2    5    5    0    0 -0.16641752930E+02  0.29801633333E+02  0.12762587771E+02  0.87558914972E+02  0.79615291588E+02 0.  0.
          5    1    3    3  501    0  0.73697226443E+02 -0.11878421076E+03  0.88432641876E+02  0.16547927985E+03  0.47000000000E+01 0. -1.
        -11    1    4    4    0    0  0.56875696878E+02 -0.17919265689E+02 -0.21349456392E+02  0.63338331730E+02  0.00000000000E+00 0.  1.
         12    1    4    4    0    0 -0.14337246304E+01 -0.76149720867E+02 -0.18393598898E+02  0.78352792132E+02  0.00000000000E+00 0. -1.
         -5    1    5    5    0  502 -0.11249744576E+03  0.18305156399E+03  0.88050063173E+02  0.23224653712E+03  0.47000000000E+01 0.  1.
         13    1    6    6    0    0 -0.29071150661E+02  0.49437965102E+02  0.23473658893E+02  0.61969806002E+02  0.00000000000E+00 0. -1.
        -14    1    6    6    0    0  0.12429397730E+02 -0.19636331769E+02 -0.10711071122E+02  0.25589108970E+02  0.00000000000E+00 0.  1.
<mgrwt>
<rscale>  2 0.30344683E+03</rscale>
<asrwt>0</asrwt>
<pdfrwt beam="1">  1       21 0.59729084E-01 0.30350014E+03</pdfrwt>
<pdfrwt beam="2">  1       21 0.36728740E-01 0.30350014E+03</pdfrwt>
<totfact> 0.17692554E+04</totfact>
</mgrwt>
</event>
<event>
12    1  0.1074575E-001  0.2209572E+03  0.7546771E-02  0.1133201E+00
         21   -1    0    0  503  502  0.00000000000E+00  0.00000000000E+00  0.14853535944E+04  0.14853535944E+04  0.00000000000E+00 0. -1.
         21   -1    0    0  501  503 -0.00000000000E+00 -0.00000000000E+00 -0.65178139046E+02  0.65178139046E+02  0.00000000000E+00 0. -1.
          6    2    1    2  501    0 -0.95206019277E+01  0.13771044884E+03  0.16417929405E+03  0.27527608294E+03  0.17253194389E+03 0.  0.
         24    2    3    3    0    0  0.53853996424E+02  0.11117763428E+03  0.89948131774E+02  0.17402053782E+03  0.83257203156E+02 0.  0.
         -6    2    1    2    0  502  0.95206019277E+01 -0.13771044884E+03  0.12559961614E+04  0.12752556506E+04  0.17232471487E+03 0.  0.
        -24    2    5    5    0    0 -0.95571142111E+01 -0.21770397730E+02  0.26861086455E+03  0.28089260365E+03  0.78635676266E+02 0.  0.
          5    1    3    3  501    0 -0.63374598352E+02  0.26532814559E+02  0.74231162271E+02  0.10125554512E+03  0.47000000000E+01 0. -1.
        -11    1    4    4    0    0  0.52636619141E+02  0.17816634481E+02  0.31813145266E+02  0.64032197765E+02  0.00000000000E+00 0.  1.
         12    1    4    4    0    0  0.12173772831E+01  0.93360999803E+02  0.58134986508E+02  0.10998834005E+03  0.00000000000E+00 0. -1.
         -5    1    5    5    0  502  0.19077716139E+02 -0.11594005111E+03  0.98738529681E+03  0.99436304691E+03  0.47000000000E+01 0.  1.
         13    1    6    6    0    0  0.28547460783E+02 -0.74188157526E+01  0.19085476552E+03  0.19312052678E+03  0.00000000000E+00 0. -1.
        -14    1    6    6    0    0 -0.38104574994E+02 -0.14351581978E+02  0.77756099030E+02  0.87772076865E+02  0.00000000000E+00 0.  1.
<mgrwt>
<rscale>  2 0.22091674E+03</rscale>
<asrwt>0</asrwt>
<pdfrwt beam="1">  1       21 0.22851591E+00 0.22095719E+03</pdfrwt>
<pdfrwt beam="2">  1       21 0.10027407E-01 0.22095719E+03</pdfrwt>
<totfact> 0.70277842E+03</totfact>
</mgrwt>
</event>
<event>
12    1  0.1074575E-001  0.1948795E+03  0.7546771E-02  0.1155017E+00
         21   -1    0    0  503  502  0.00000000000E+00  0.00000000000E+00  0.22733910338E+03  0.22733910338E+03  0.00000000000E+00 0.  1.
         21   -1    0    0  501  503 -0.00000000000E+00 -0.00000000000E+00 -0.16543034588E+03  0.16543034588E+03  0.00000000000E+00 0.  1.
          6    2    1    2  501    0 -0.11132716992E+02  0.80053839747E+02  0.10827526320E+02  0.19518004823E+03  0.17732868142E+03 0.  0.
         24    2    3    3    0    0  0.47889581312E+02  0.94896036956E+02  0.10642590394E+02  0.13413869572E+03  0.81124935315E+02 0.  0.
         -6    2    1    2    0  502  0.11132716992E+02 -0.80053839747E+02  0.51081231174E+02  0.19758940103E+03  0.17291536825E+03 0.  0.
        -24    2    5    5    0    0  0.32173151419E+02 -0.56059686163E+02  0.96682058543E+02  0.14173293548E+03  0.81012372334E+02 0.  0.
          5    1    3    3  501    0 -0.59022298304E+02 -0.14842197209E+02  0.18493592564E+00  0.61041352511E+02  0.47000000000E+01 0. -1.
        -13    1    4    4    0    0  0.14133879380E+02  0.50007613733E+02 -0.34249539403E+02  0.62237921937E+02  0.00000000000E+00 0.  1.
         14    1    4    4    0    0  0.33755701932E+02  0.44888423223E+02  0.44892129797E+02  0.71900773779E+02  0.00000000000E+00 0. -1.
         -5    1    5    5    0  502 -0.21040434427E+02 -0.23994153584E+02 -0.45600827369E+02  0.55856465550E+02  0.47000000000E+01 0.  1.
         13    1    6    6    0    0  0.38461946246E+02  0.78749107689E+01  0.40210456016E+02  0.56198009765E+02  0.00000000000E+00 0. -1.
        -14    1    6    6    0    0 -0.62887948267E+01 -0.63934596932E+02  0.56471602527E+02  0.85534925716E+02  0.00000000000E+00 0.  1.
<mgrwt>
<rscale>  2 0.19386990E+03</rscale>
<asrwt>0</asrwt>
<pdfrwt beam="1">  1       21 0.34975247E-01 0.19487949E+03</pdfrwt>
<pdfrwt beam="2">  1       21 0.25450822E-01 0.19487949E+03</pdfrwt>
<totfact> 0.11526279E+05</totfact>
</mgrwt>
</event>
<event>
12    1  0.1074575E-001  0.1709055E+03  0.7546771E-02  0.1177111E+00
         21   -1    0    0  501  502  0.00000000000E+00  0.00000000000E+00  0.88254828353E+03  0.88254828353E+03  0.00000000000E+00 0. -1.
         21   -1    0    0  502  503 -0.00000000000E+00 -0.00000000000E+00 -0.48598749801E+02  0.48598749801E+02  0.00000000000E+00 0. -1.
         -6    2    1    2    0  503 -0.64915764637E+01 -0.11672493654E+02  0.15338347036E+03  0.22964143359E+03  0.17038283765E+03 0.  0.
        -24    2    3    3    0    0  0.95114487728E+01  0.37189789007E+02  0.24258297917E+02  0.90576629836E+02  0.78371632563E+02 0.  0.
          6    2    1    2  501    0  0.64915764637E+01  0.11672493654E+02  0.68056606336E+03  0.70150559974E+03  0.16959231171E+03 0.  0.
         24    2    5    5    0    0  0.51532068361E+02  0.21175310406E+02  0.24854864624E+03  0.26701729365E+03  0.80111532978E+02 0.  0.
          5    1    5    5  501    0 -0.45040491897E+02 -0.95028167521E+01  0.43201741712E+03  0.43448830609E+03  0.47000000000E+01 0. -1.
        -13    1    6    6    0    0  0.23242857477E+02 -0.28535336978E+02  0.64215692488E+02  0.74014532640E+02  0.00000000000E+00 0.  1.
         14    1    6    6    0    0  0.28289210883E+02  0.49710647384E+02  0.18433295376E+03  0.19300276101E+03  0.00000000000E+00 0. -1.
         -5    1    3    3    0  503 -0.16003025237E+02 -0.48862282661E+02  0.12912517245E+03  0.13906480375E+03  0.47000000000E+01 0.  1.
         13    1    4    4    0    0  0.86049389129E+01 -0.22584457802E+02  0.18660754288E+02  0.30534021329E+02  0.00000000000E+00 0. -1.
        -14    1    4    4    0    0  0.90650985992E+00  0.59774246809E+02  0.55975436285E+01  0.60042608507E+02  0.00000000000E+00 0.  1.
<mgrwt>
<rscale>  2 0.17070816E+03</rscale>
<asrwt>0</asrwt>
<pdfrwt beam="1">  1       21 0.13577665E+00 0.17090553E+03</pdfrwt>
<pdfrwt beam="2">  1       21 0.74767314E-02 0.17090553E+03</pdfrwt>
<totfact> 0.52872585E+04</totfact>
</mgrwt>
</event>
<event>
12    1  0.1074575E-001  0.2089018E+03  0.7546771E-02  0.1142671E+00
         21   -1    0    0  503  502  0.00000000000E+00  0.00000000000E+00  0.31493018842E+03  0.31493018842E+03  0.00000000000E+00 0.  1.
         21   -1    0    0  501  503 -0.00000000000E+00 -0.00000000000E+00 -0.13782279797E+03  0.13782279797E+03  0.00000000000E+00 0.  1.
          6    2    1    2  501    0 -0.29683390579E+02  0.11302919717E+03  0.91301481432E+02  0.22691536258E+03  0.17174957983E+03 0.  0.
         24    2    3    3    0    0 -0.37994023155E+02  0.78201106961E+02 -0.10438114700E+02  0.11895658386E+03  0.80515561722E+02 0.  0.
         -6    2    1    2    0  502  0.29683390579E+02 -0.11302919717E+03  0.85805909023E+02  0.22583762381E+03  0.17315679373E+03 0.  0.
        -24    2    5    5    0    0 -0.40956025061E+02 -0.26469441205E+02  0.20056162060E+02  0.96116239218E+02  0.80362021492E+02 0.  0.
          5    1    3    3  501    0  0.83106325759E+01  0.34828090208E+02  0.10173959613E+03  0.10795877872E+03  0.47000000000E+01 0. -1.
        -13    1    4    4    0    0 -0.34764048402E+02  0.92642732905E+02 -0.20512651206E+02  0.10105436102E+03  0.00000000000E+00 0.  1.
         14    1    4    4    0    0 -0.32299747531E+01 -0.14441625944E+02  0.10074536506E+02  0.17902222840E+02  0.00000000000E+00 0. -1.
         -5    1    5    5    0  502  0.70639415640E+02 -0.86559755964E+02  0.65749746963E+02  0.12972138459E+03  0.47000000000E+01 0.  1.
         13    1    6    6    0    0 -0.21036150048E+02  0.20170539101E+02  0.32746113554E+02  0.43836950274E+02  0.00000000000E+00 0. -1.
        -14    1    6    6    0    0 -0.19919875013E+02 -0.46639980307E+02 -0.12689951494E+02  0.52279288944E+02  0.00000000000E+00 0.  1.
<mgrwt>
<rscale>  2 0.20860999E+03</rscale>
<asrwt>0</asrwt>
<pdfrwt beam="1">  1       21 0.48450798E-01 0.20890184E+03</pdfrwt>
<pdfrwt beam="2">  1       21 0.21203507E-01 0.20890184E+03</pdfrwt>
<totfact> 0.83595038E+04</totfact>
</mgrwt>
</event>
<event>
12    1  0.1074575E-001  0.1996048E+03  0.7546771E-02  0.1150083E+00
         21   -1    0    0  503  502  0.00000000000E+00  0.00000000000E+00  0.12054118984E+04  0.12054118984E+04  0.00000000000E+00 0. -1.
         21   -1    0    0  501  503 -0.00000000000E+00 -0.00000000000E+00 -0.37712578719E+02  0.37712578719E+02  0.00000000000E+00 0. -1.
          6    2    1    2  501    0  0.97639495114E+02  0.21019066795E+02  0.80257523129E+03  0.82702423060E+03  0.17282014915E+03 0.  0.
         24    2    3    3    0    0  0.78166978454E+01 -0.40909083108E+02  0.33533211433E+03  0.34718941423E+03  0.79738375994E+02 0.  0.
         -6    2    1    2    0  502 -0.97639495114E+02 -0.21019066795E+02  0.36512408835E+03  0.41610024647E+03  0.17276730896E+03 0.  0.
        -24    2    5    5    0    0 -0.87545060872E+02 -0.50974197322E+02  0.14681026289E+03  0.19545976099E+03  0.79929709124E+02 0.  0.
          5    1    3    3  501    0  0.89822797269E+02  0.61928149903E+02  0.46724311695E+03  0.47983481637E+03  0.47000000000E+01 0. -1.
        -13    1    4    4    0    0 -0.35488751653E+02 -0.11564035677E+02  0.15433924546E+03  0.15878847912E+03  0.00000000000E+00 0.  1.
         14    1    4    4    0    0  0.43305449498E+02 -0.29345047430E+02  0.18099286888E+03  0.18840093511E+03  0.00000000000E+00 0. -1.
         -5    1    5    5    0  502 -0.10094434242E+02  0.29955130526E+02  0.21831382545E+03  0.22064048548E+03  0.47000000000E+01 0.  1.
         13    1    6    6    0    0 -0.10169312216E+03 -0.49256062381E+02  0.13924850468E+03  0.17932595136E+03  0.00000000000E+00 0. -1.
        -14    1    6    6    0    0  0.14148061289E+02 -0.17181349405E+01  0.75617582121E+01  0.16133809630E+02  0.00000000000E+00 0.  1.
<mgrwt>
<rscale>  2 0.19959336E+03</rscale>
<asrwt>0</asrwt>
<pdfrwt beam="1">  1       21 0.18544795E+00 0.19960480E+03</pdfrwt>
<pdfrwt beam="2">  1       21 0.58019361E-02 0.19960480E+03</pdfrwt>
<totfact> 0.34754215E+04</totfact>
</mgrwt>
</event>
<event>
12    1  0.1074575E-001  0.1884081E+03  0.7546771E-02  0.1160045E+00
         21   -1    0    0  503  502  0.00000000000E+00  0.00000000000E+00  0.32638643117E+03  0.32638643117E+03  0.00000000000E+00 0. -1.
         21   -1    0    0  501  503 -0.00000000000E+00 -0.00000000000E+00 -0.13740076652E+03  0.13740076652E+03  0.00000000000E+00 0.  1.
          6    2    1    2  501    0  0.58319615684E+02  0.47595680951E+02 -0.12154894257E+02  0.18818760352E+03  0.17204739535E+03 0.  0.
         24    2    3    3    0    0 -0.31854378469E+02  0.39822580129E+02  0.28232687356E+01  0.96327896985E+02  0.81673456982E+02 0.  0.
         -6    2    1    2    0  502 -0.58319615684E+02 -0.47595680951E+02  0.20114055890E+03  0.27559959418E+03  0.17271677815E+03 0.  0.
        -24    2    5    5    0    0 -0.44791581216E+02  0.38205418906E+02  0.12137138302E+03  0.15757397037E+03  0.81440798995E+02 0.  0.
          5    1    3    3  501    0  0.90173994154E+02  0.77731008217E+01 -0.14978162993E+02  0.91859706535E+02  0.47000000000E+01 0. -1.
        -11    1    4    4    0    0 -0.21871056758E+02 -0.12527044215E+02 -0.25603057060E+02  0.35927517188E+02  0.00000000000E+00 0.  1.
         12    1    4    4    0    0 -0.99833217118E+01  0.52349624344E+02  0.28426325796E+02  0.60400379797E+02  0.00000000000E+00 0. -1.
         -5    1    5    5    0  502 -0.13528034469E+02 -0.85801099856E+02  0.79769175888E+02  0.11802562381E+03  0.47000000000E+01 0.  1.
         13    1    6    6    0    0 -0.46365550180E+02  0.55242471040E+02  0.12050998403E+03  0.14044269686E+03  0.00000000000E+00 0. -1.
        -14    1    6    6    0    0  0.15739689641E+01 -0.17037052135E+02  0.86139898214E+00  0.17131273506E+02  0.00000000000E+00 0.  1.
<mgrwt>
<rscale>  2 0.18825455E+03</rscale>
<asrwt>0</asrwt>
<pdfrwt beam="1">  1       21 0.50213297E-01 0.18840810E+03</pdfrwt>
<pdfrwt beam="2">  1       21 0.21138579E-01 0.18840810E+03</pdfrwt>
<totfact> 0.78729526E+04</totfact>
</mgrwt>
</event>
<event>
12    1  0.1074575E-001  0.1884752E+03  0.7546771E-02  0.1161426E+00
         21   -1    0    0  503  502  0.00000000000E+00  0.00000000000E+00  0.91560261317E+02  0.91560261317E+02  0.00000000000E+00 0.  1.
         21   -1    0    0  501  503 -0.00000000000E+00 -0.00000000000E+00 -0.37617661716E+03  0.37617661716E+03  0.00000000000E+00 0.  1.
          6    2    1    2  501    0 -0.54762627306E+02  0.42669851285E+00 -0.12227906541E+03  0.21898742504E+03  0.17321719045E+03 0.  0.
         24    2    3    3    0    0 -0.98517491062E+02  0.11450289481E+02 -0.66369771088E+02  0.14698779413E+03  0.85811770372E+02 0.  0.
         -6    2    1    2    0  502  0.54762627306E+02 -0.42669851285E+00 -0.16233729044E+03  0.24874945343E+03  0.18034347035E+03 0.  0.
        -24    2    5    5    0    0  0.57637610104E+02 -0.67231572717E+01 -0.19315386454E+03  0.21681730415E+03  0.79586638638E+02 0.  0.
          5    1    3    3  501    0  0.43754863756E+02 -0.11023590969E+02 -0.55909294317E+02  0.71999630910E+02  0.47000000000E+01 0. -1.
        -13    1    4    4    0    0 -0.56023111815E+02  0.47215123119E+02 -0.23886240952E+02  0.77061075877E+02  0.00000000000E+00 0.  1.
         14    1    4    4    0    0 -0.42494379247E+02 -0.35764833637E+02 -0.42483530136E+02  0.69926718252E+02  0.00000000000E+00 0. -1.
         -5    1    5    5    0  502 -0.28749827976E+01  0.62964587588E+01  0.30816574100E+02  0.31932149289E+02  0.47000000000E+01 0.  1.
         13    1    6    6    0    0 -0.19231825692E+02  0.55204600375E+01 -0.30193391576E+02  0.36221257479E+02  0.00000000000E+00 0. -1.
        -14    1    6    6    0    0  0.76869435796E+02 -0.12243617309E+02 -0.16296047296E+03  0.18059604667E+03  0.00000000000E+00 0.  1.
<mgrwt>
<rscale>  2 0.18674988E+03</rscale>
<asrwt>0</asrwt>
<pdfrwt beam="1">  1       21 0.14086194E-01 0.18847518E+03</pdfrwt>
<pdfrwt beam="2">  1       21 0.57873326E-01 0.18847518E+03</pdfrwt>
<totfact> 0.12327726E+05</totfact>
</mgrwt>
</event>
<event>
12    1  0.1074575E-001  0.2850162E+03  0.7546771E-02  0.1093060E+00
         21   -1    0    0  503  502  0.00000000000E+00  0.00000000000E+00  0.17040938214E+03  0.17040938214E+03  0.00000000000E+00 0. -1.
         21   -1    0    0  501  503 -0.00000000000E+00 -0.00000000000E+00 -0.50096784524E+03  0.50096784524E+03  0.00000000000E+00 0. -1.
          6    2    1    2  501    0 -0.75784972869E+02  0.21305510447E+03 -0.24082569746E+03  0.37313703076E+03  0.17348886855E+03 0.  0.
         24    2    3    3    0    0  0.16776010023E+02  0.13351531828E+03 -0.17445453102E+03  0.23413582617E+03  0.79230215053E+02 0.  0.
         -6    2    1    2    0  502  0.75784972869E+02 -0.21305510447E+03 -0.89732765637E+02  0.29824019662E+03  0.17250914757E+03 0.  0.
        -24    2    5    5    0    0  0.11780921703E+03 -0.13989574849E+03 -0.61658543996E+02  0.20919762037E+03  0.80697188661E+02 0.  0.
          5    1    3    3  501    0 -0.92560982892E+02  0.79539786190E+02 -0.66371166443E+02  0.13900120459E+03  0.47000000000E+01 0. -1.
        -11    1    4    4    0    0  0.29496749312E+02  0.22292879427E+02 -0.16389122132E+02  0.40442972410E+02  0.00000000000E+00 0.  1.
         12    1    4    4    0    0 -0.12720739289E+02  0.11122243885E+03 -0.15806540889E+03  0.19369285376E+03  0.00000000000E+00 0. -1.
         -5    1    5    5    0  502 -0.42024244158E+02 -0.73159355979E+02 -0.28074221641E+02  0.89042576249E+02  0.47000000000E+01 0.  1.
         11    1    6    6    0    0  0.56043146710E+02 -0.10295553679E+03 -0.70341237805E+02  0.13670613222E+03  0.00000000000E+00 0. -1.
        -12    1    6    6    0    0  0.61766070317E+02 -0.36940211696E+02  0.86826938095E+01  0.72491488151E+02  0.00000000000E+00 0.  1.
<mgrwt>
<rscale>  2 0.28486725E+03</rscale>
<asrwt>0</asrwt>
<pdfrwt beam="1">  1       21 0.26216829E-01 0.28501619E+03</pdfrwt>
<pdfrwt beam="2">  1       21 0.77071974E-01 0.28501619E+03</pdfrwt>
<totfact> 0.19726505E+04</totfact>
</mgrwt>
</event>
<event>
12    1  0.1074575E-001  0.1927632E+03  0.7546771E-02  0.1156988E+00
         21   -1    0    0  501  502  0.00000000000E+00  0.00000000000E+00  0.12658256066E+03  0.12658256066E+03  0.00000000000E+00 0.  1.
         21   -1    0    0  502  503 -0.00000000000E+00 -0.00000000000E+00 -0.66536486807E+03  0.66536486807E+03  0.00000000000E+00 0.  1.
         -6    2    1    2    0  503  0.41748106272E+01 -0.80097756170E+02 -0.56670140853E+03  0.59717287495E+03  0.17038743076E+03 0.  0.
        -24    2    3    3    0    0  0.42802963973E+02 -0.32056716554E+02 -0.48527821858E+03  0.49493833294E+03  0.81297461127E+02 0.  0.
          6    2    1    2  501    0 -0.41748106272E+01  0.80097756170E+02  0.27919101114E+02  0.19477455378E+03  0.17528425772E+03 0.  0.
         24    2    5    5    0    0 -0.55443234112E+02  0.45167718484E+02 -0.28113551370E+02  0.11104697813E+03  0.80168476216E+02 0.  0.
          5    1    5    5  501    0  0.51268423485E+02  0.34930037687E+02  0.56032652484E+02  0.83727575648E+02  0.47000000000E+01 0. -1.
        -13    1    6    6    0    0  0.97697243302E+00 -0.13815532058E+02  0.13575846618E+02  0.19393994240E+02  0.00000000000E+00 0.  1.
         14    1    6    6    0    0 -0.56420206545E+02  0.58983250541E+02 -0.41689397988E+02  0.91652983888E+02  0.00000000000E+00 0. -1.
         -5    1    3    3    0  503 -0.38628153346E+02 -0.48041039616E+02 -0.81423189947E+02  0.10223454201E+03  0.47000000000E+01 0.  1.
         11    1    4    4    0    0  0.10768960662E+02 -0.31368111570E+02 -0.60839797243E+02  0.69292206385E+02  0.00000000000E+00 0. -1.
        -12    1    4    4    0    0  0.32034003311E+02 -0.68860498358E+00 -0.42443842134E+03  0.42564612656E+03  0.00000000000E+00 0.  1.
<mgrwt>
<rscale>  2 0.19164303E+03</rscale>
<asrwt>0</asrwt>
<pdfrwt beam="1">  1       21 0.19474240E-01 0.19276320E+03</pdfrwt>
<pdfrwt beam="2">  1       21 0.10236383E+00 0.19276320E+03</pdfrwt>
<totfact> 0.18837064E+04</totfact>
</mgrwt>
</event>
<event>
12    1  0.1074575E-001  0.1795512E+03  0.7546771E-02  0.1168643E+00
         21   -1    0    0  501  502  0.00000000000E+00  0.00000000000E+00  0.99662340118E+02  0.99662340118E+02  0.00000000000E+00 0.  1.
         21   -1    0    0  502  503 -0.00000000000E+00 -0.00000000000E+00 -0.54416429848E+03  0.54416429848E+03  0.00000000000E+00 0.  1.
         -6    2    1    2    0  503  0.47023208434E+02 -0.13692860839E+02 -0.42802675900E+03  0.46352120268E+03  0.17101556171E+03 0.  0.
        -24    2    3    3    0    0 -0.13995019360E+02 -0.44535922954E+02 -0.33546069352E+03  0.34834705158E+03  0.81440054317E+02 0.  0.
          6    2    1    2  501    0 -0.47023208434E+02  0.13692860839E+02 -0.16475199362E+02  0.18030543592E+03  0.17274241360E+03 0.  0.
         24    2    5    5    0    0 -0.62857170132E+02  0.59376649217E+02 -0.42061803865E+02  0.12540109006E+03  0.80496134906E+02 0.  0.
          5    1    5    5  501    0  0.15833961698E+02 -0.45683788378E+02  0.25586604503E+02  0.54904345854E+02  0.47000000000E+01 0. -1.
        -11    1    6    6    0    0 -0.46199582102E+02  0.57184985652E+02  0.67056282219E+01  0.73820657138E+02  0.00000000000E+00 0.  1.
         12    1    6    6    0    0 -0.16657588030E+02  0.21916635658E+01 -0.48767432087E+02  0.51580432923E+02  0.00000000000E+00 0. -1.
         -5    1    3    3    0  503  0.61018227794E+02  0.30843062115E+02 -0.92566065477E+02  0.11517415110E+03  0.47000000000E+01 0.  1.
         11    1    4    4    0    0 -0.42465349336E+02 -0.24754502689E+02 -0.11337473430E+03  0.12357152453E+03  0.00000000000E+00 0. -1.
        -12    1    4    4    0    0  0.28470329977E+02 -0.19781420266E+02 -0.22208595923E+03  0.22477552705E+03  0.00000000000E+00 0.  1.
<mgrwt>
<rscale>  2 0.17913452E+03</rscale>
<asrwt>0</asrwt>
<pdfrwt beam="1">  1       21 0.15332667E-01 0.17955116E+03</pdfrwt>
<pdfrwt beam="2">  1       21 0.83717586E-01 0.17955116E+03</pdfrwt>
<totfact> 0.47063338E+04</totfact>
</mgrwt>
</event>
<event>
12    1  0.1074575E-001  0.2868340E+03  0.7546771E-02  0.1092035E+00
         21   -1    0    0  503  502  0.00000000000E+00  0.00000000000E+00  0.71566668619E+02  0.71566668619E+02  0.00000000000E+00 0. -1.
         21   -1    0    0  501  503 -0.00000000000E+00 -0.00000000000E+00 -0.19650295053E+04  0.19650295053E+04  0.00000000000E+00 0.  1.
          6    2    1    2  501    0  0.22393406948E+03 -0.46973766649E+02 -0.16031161801E+04  0.16285745984E+04  0.17297610631E+03 0.  0.
         24    2    3    3    0    0  0.35144881960E+02 -0.13317062504E+01 -0.64430229731E+03  0.65027469199E+03  0.80590251011E+02 0.  0.
         -6    2    1    2    0  502 -0.22393406948E+03  0.46973766649E+02 -0.29034665659E+03  0.40802157555E+03  0.17270617504E+03 0.  0.
        -24    2    5    5    0    0 -0.46964752359E+02 -0.18784073426E+02 -0.12488579080E+03  0.15694067058E+03  0.80469770478E+02 0.  0.
          5    1    3    3  501    0  0.18878918752E+03 -0.45642060399E+02 -0.95881388283E+03  0.97829990642E+03  0.47000000000E+01 0. -1.
        -13    1    4    4    0    0  0.54024261681E+02 -0.21386804398E+02 -0.50023230558E+03  0.50359544855E+03  0.00000000000E+00 0.  1.
         14    1    4    4    0    0 -0.18879379722E+02  0.20055098148E+02 -0.14406999172E+03  0.14667924344E+03  0.00000000000E+00 0. -1.
         -5    1    5    5    0  502 -0.17696931712E+03  0.65757840076E+02 -0.16546086580E+03  0.25108090497E+03  0.47000000000E+01 0.  1.
         11    1    6    6    0    0 -0.35496720767E+02 -0.18506701051E+02 -0.97063164345E+01  0.41191355255E+02  0.00000000000E+00 0. -1.
        -12    1    6    6    0    0 -0.11468031592E+02 -0.27737237493E+00 -0.11517947436E+03  0.11574931532E+03  0.00000000000E+00 0.  1.
<mgrwt>
<rscale>  2 0.28679330E+03</rscale>
<asrwt>0</asrwt>
<pdfrwt beam="1">  1       21 0.11010256E-01 0.28683399E+03</pdfrwt>
<pdfrwt beam="2">  1       21 0.30231226E+00 0.28683399E+03</pdfrwt>
<totfact> 0.20549820E+03</totfact>
</mgrwt>
</event>
<event>
12    1  0.1074575E-001  0.2055811E+03  0.7546771E-02  0.1145252E+00
         21   -1    0    0  501  502  0.00000000000E+00  0.00000000000E+00  0.59531896202E+03  0.59531896202E+03  0.00000000000E+00 0. -1.
         21   -1    0    0  502  503 -0.00000000000E+00 -0.00000000000E+00 -0.14861096457E+03  0.14861096457E+03  0.00000000000E+00 0. -1.
         -6    2    1    2    0  503 -0.65065477151E+02 -0.90321214318E+02 -0.46042441581E+02  0.21001364067E+03  0.17203018563E+03 0.  0.
        -24    2    3    3    0    0 -0.10247021913E+03 -0.89391854447E+02 -0.60731784270E+02  0.16954334019E+03  0.81028051502E+02 0.  0.
          6    2    1    2  501    0  0.65065477151E+02  0.90321214318E+02  0.49275043903E+03  0.53391628593E+03  0.17283566512E+03 0.  0.
         24    2    5    5    0    0  0.70432314917E+02  0.52372254663E+02  0.48129626547E+03  0.49363956091E+03  0.65805447301E+02 0.  0.
          5    1    5    5  501    0 -0.53668377668E+01  0.37948959654E+02  0.11454173566E+02  0.40276725023E+02  0.47000000000E+01 0. -1.
        -11    1    6    6    0    0  0.54252719951E+02  0.41172875054E+02  0.19285339788E+03  0.20452627297E+03  0.00000000000E+00 0.  1.
         12    1    6    6    0    0  0.16179594966E+02  0.11199379610E+02  0.28844286759E+03  0.28911328793E+03  0.00000000000E+00 0. -1.
         -5    1    3    3    0  503  0.37404741981E+02 -0.92935987054E+00  0.14689342689E+02  0.40470300482E+02  0.47000000000E+01 0.  1.
         13    1    4    4    0    0 -0.67840286739E+02 -0.77298067676E+02 -0.51831430022E+01  0.10297650578E+03  0.00000000000E+00 0. -1.
        -14    1    4    4    0    0 -0.34629932393E+02 -0.12093786771E+02 -0.55548641268E+02  0.66566834405E+02  0.00000000000E+00 0.  1.
<mgrwt>
<rscale>  2 0.20541175E+03</rscale>
<asrwt>0</asrwt>
<pdfrwt beam="1">  1       21 0.91587531E-01 0.20558114E+03</pdfrwt>
<pdfrwt beam="2">  1       21 0.22863226E-01 0.20558114E+03</pdfrwt>
<totfact> 0.17962563E+04</totfact>
</mgrwt>
</event>
<event>
12    1  0.1074575E-001  0.1863370E+03  0.7546771E-02  0.1162591E+00
         21   -1    0    0  501  502  0.00000000000E+00  0.00000000000E+00  0.26815682466E+04  0.26815682466E+04  0.00000000000E+00 0. -1.
         21   -1    0    0  502  503 -0.00000000000E+00 -0.00000000000E+00 -0.30519013231E+02  0.30519013231E+02  0.00000000000E+00 0. -1.
         -6    2    1    2    0  503  0.24647513624E+02 -0.55167569443E+02  0.28482521849E+03  0.33853769121E+03  0.17271769636E+03 0.  0.
        -24    2    3    3    0    0  0.12920874445E+02  0.27081388348E+02  0.77677516133E+02  0.11530089828E+03  0.79750548843E+02 0.  0.
          6    2    1    2  501    0 -0.24647513624E+02  0.55167569443E+02  0.23662240148E+04  0.23735495686E+04  0.17626827700E+03 0.  0.
         24    2    5    5    0    0 -0.12429587300E+02  0.73213934028E+01  0.50426393446E+03  0.51092884359E+03  0.80981912574E+02 0.  0.
          5    1    5    5  501    0 -0.12217926324E+02  0.47846176040E+02  0.18619600804E+04  0.18626207250E+04  0.47000000000E+01 0. -1.
        -11    1    6    6    0    0 -0.30461758030E+02 -0.33110903181E+01  0.46841062163E+03  0.46941175153E+03  0.00000000000E+00 0.  1.
         12    1    6    6    0    0  0.18032170730E+02  0.10632483721E+02  0.35853312835E+02  0.41517092053E+02  0.00000000000E+00 0. -1.
         -5    1    3    3    0  503  0.11726639179E+02 -0.82248957791E+02  0.20714770236E+03  0.22323679293E+03  0.47000000000E+01 0.  1.
         13    1    4    4    0    0  0.18347017878E+02 -0.25500671768E+02  0.20939056229E+02  0.37753693878E+02  0.00000000000E+00 0. -1.
        -14    1    4    4    0    0 -0.54261434334E+01  0.52582060117E+02  0.56738459904E+02  0.77547204405E+02  0.00000000000E+00 0.  1.
<mgrwt>
<rscale>  2 0.18549247E+03</rscale>
<asrwt>0</asrwt>
<pdfrwt beam="1">  1       21 0.41254878E+00 0.18633697E+03</pdfrwt>
<pdfrwt beam="2">  1       21 0.46952349E-02 0.18633697E+03</pdfrwt>
<totfact> 0.21958412E+03</totfact>
</mgrwt>
</event>
<event>
12    1  0.1074575E-001  0.1798009E+03  0.7546771E-02  0.1168014E+00
         21   -1    0    0  501  502  0.00000000000E+00  0.00000000000E+00  0.36695373716E+02  0.36695373716E+02  0.00000000000E+00 0.  1.
         21   -1    0    0  502  503 -0.00000000000E+00 -0.00000000000E+00 -0.13056717774E+04  0.13056717774E+04  0.00000000000E+00 0. -1.
         -6    2    1    2    0  503 -0.52887775283E+02 -0.67453352672E+00 -0.10175295079E+04  0.10332931189E+04  0.17184527433E+03 0.  0.
        -24    2    3    3    0    0 -0.94484196052E+00 -0.61706168495E+02 -0.62275148485E+03  0.63043494747E+03  0.76290675402E+02 0.  0.
          6    2    1    2  501    0  0.52887775283E+02  0.67453352672E+00 -0.25144689575E+03  0.30907403220E+03  0.17176624881E+03 0.  0.
         24    2    5    5    0    0  0.79624089822E+02 -0.32259695232E+02 -0.11117355672E+03  0.16245140918E+03  0.81548862739E+02 0.  0.
          5    1    5    5  501    0 -0.26736314539E+02  0.32934228759E+02 -0.14027333903E+03  0.14662262302E+03  0.47000000000E+01 0. -1.
        -13    1    6    6    0    0  0.59067798989E+02 -0.28567873905E+02 -0.12229868365E+03  0.13878795452E+03  0.00000000000E+00 0.  1.
         14    1    6    6    0    0  0.20556290833E+02 -0.36918213267E+01  0.11125126926E+02  0.23663454664E+02  0.00000000000E+00 0. -1.
         -5    1    3    3    0  503 -0.51942933322E+02  0.61031634968E+02 -0.39477802305E+03  0.40285817141E+03  0.47000000000E+01 0.  1.
         13    1    4    4    0    0 -0.25935550510E+02 -0.66713205785E+02 -0.41521711496E+03  0.42134137841E+03  0.00000000000E+00 0. -1.
        -14    1    4    4    0    0  0.24990708549E+02  0.50070372902E+01 -0.20753436989E+03  0.20909356906E+03  0.00000000000E+00 0.  1.
<mgrwt>
<rscale>  2 0.17978203E+03</rscale>
<asrwt>0</asrwt>
<pdfrwt beam="1">  1       21 0.56454422E-02 0.17980092E+03</pdfrwt>
<pdfrwt beam="2">  1       21 0.20087258E+00 0.17980092E+03</pdfrwt>
<totfact> 0.29275439E+04</totfact>
</mgrwt>
</event>
<event>
12    1  0.1074575E-001  0.2078901E+03  0.7546771E-02  0.1143352E+00
         21   -1    0    0  503  502  0.00000000000E+00  0.00000000000E+00  0.31420804334E+03  0.31420804334E+03  0.00000000000E+00 0. -1.
         21   -1    0    0  501  503 -0.00000000000E+00 -0.00000000000E+00 -0.14175903921E+03  0.14175903921E+03  0.00000000000E+00 0. -1.
          6    2    1    2  501    0 -0.64905131624E+02 -0.95072623832E+02  0.45459294899E+02  0.21280237858E+03  0.17310928607E+03 0.  0.
         24    2    3    3    0    0  0.31998880247E+02 -0.44939693906E+02  0.73886012273E+01  0.97151326288E+02  0.79625902482E+02 0.  0.
         -6    2    1    2    0  502  0.64905131624E+02  0.95072623832E+02  0.12698970924E+03  0.24316470396E+03  0.17248538225E+03 0.  0.
        -24    2    5    5    0    0  0.29148938691E+02 -0.15128566434E+02  0.30533145770E+02  0.92337762389E+02  0.80718369801E+02 0.  0.
          5    1    3    3  501    0 -0.96904011871E+02 -0.50132929926E+02  0.38070693671E+02  0.11565105229E+03  0.47000000000E+01 0. -1.
        -13    1    4    4    0    0  0.23199468429E+01  0.19236140361E+02 -0.13275633681E+02  0.23487309318E+02  0.00000000000E+00 0.  1.
         14    1    4    4    0    0  0.29678933404E+02 -0.64175834267E+02  0.20664234909E+02  0.73664016971E+02  0.00000000000E+00 0. -1.
         -5    1    5    5    0  502  0.35756192934E+02  0.11020119027E+03  0.96456563466E+02  0.15082694157E+03  0.47000000000E+01 0.  1.
         11    1    6    6    0    0 -0.18227071632E+02  0.11153540065E+02  0.31602976779E+02  0.38149387119E+02  0.00000000000E+00 0. -1.
        -12    1    6    6    0    0  0.47376010322E+02 -0.26282106499E+02 -0.10698310091E+01  0.54188375270E+02  0.00000000000E+00 0.  1.
<mgrwt>
<rscale>  2 0.20776020E+03</rscale>
<asrwt>0</asrwt>
<pdfrwt beam="1">  1       21 0.48339699E-01 0.20789013E+03</pdfrwt>
<pdfrwt beam="2">  1       21 0.21809083E-01 0.20789013E+03</pdfrwt>
<totfact> 0.79687934E+04</totfact>
</mgrwt>
</event>
<event>
12    1  0.1074575E-001  0.1776296E+03  0.7546771E-02  0.1170236E+00
         21   -1    0    0  501  502  0.00000000000E+00  0.00000000000E+00  0.42660580612E+03  0.42660580612E+03  0.00000000000E+00 0.  1.
         21   -1    0    0  502  503 -0.00000000000E+00 -0.00000000000E+00 -0.36589968223E+03  0.36589968223E+03  0.00000000000E+00 0.  1.
         -6    2    1    2    0  503  0.11076453893E+02  0.24034979150E+02 -0.32372242857E+03  0.36902279651E+03  0.17516062781E+03 0.  0.
        -24    2    3    3    0    0  0.25969114368E+02  0.49193095321E+02 -0.88931670101E+02  0.13237218399E+03  0.80741548281E+02 0.  0.
          6    2    1    2  501    0 -0.11076453893E+02 -0.24034979150E+02  0.38442855246E+03  0.42348269184E+03  0.17564711865E+03 0.  0.
         24    2    5    5    0    0  0.21112879558E+02  0.49388254419E+02  0.18162731399E+03  0.20535988987E+03  0.79367813513E+02 0.  0.
          5    1    5    5  501    0 -0.32189333451E+02 -0.73423233569E+02  0.20280123847E+03  0.21812280197E+03  0.47000000000E+01 0. -1.
        -11    1    6    6    0    0 -0.21871631956E+02  0.47585641039E+02  0.89844680373E+02  0.10399436576E+03  0.00000000000E+00 0.  1.
         12    1    6    6    0    0  0.42984511514E+02  0.18026133795E+01  0.91782633617E+02  0.10136552411E+03  0.00000000000E+00 0. -1.
         -5    1    3    3    0  503 -0.14892660476E+02 -0.25158116171E+02 -0.23479075847E+03  0.23665061253E+03  0.47000000000E+01 0.  1.
         13    1    4    4    0    0 -0.49832625552E+01 -0.20269248070E+02 -0.11451933083E+02  0.23808025839E+02  0.00000000000E+00 0. -1.
        -14    1    4    4    0    0  0.30952376924E+02  0.69462343391E+02 -0.77479737018E+02  0.10856415815E+03  0.00000000000E+00 0.  1.
<mgrwt>
<rscale>  2 0.17750923E+03</rscale>
<asrwt>0</asrwt>
<pdfrwt beam="1">  1       21 0.65631663E-01 0.17762961E+03</pdfrwt>
<pdfrwt beam="2">  1       21 0.56292259E-01 0.17762961E+03</pdfrwt>
<totfact> 0.64096711E+03</totfact>
</mgrwt>
</event>
<event>
12    1  0.1074575E-001  0.1814607E+03  0.7546771E-02  0.1167280E+00
         21   -1    0    0  501  502  0.00000000000E+00  0.00000000000E+00  0.56059952530E+02  0.56059952530E+02  0.00000000000E+00 0.  1.
         21   -1    0    0  502  503 -0.00000000000E+00 -0.00000000000E+00 -0.73363877476E+03  0.73363877476E+03  0.00000000000E+00 0.  1.
         -6    2    1    2    0  503  0.19207839009E+02  0.34765874891E+02 -0.52473595592E+03  0.55522590998E+03  0.17706038672E+03 0.  0.
        -24    2    3    3    0    0  0.73431514265E+02 -0.12466321765E+02 -0.31282036500E+03  0.33139250087E+03  0.80105008651E+02 0.  0.
          6    2    1    2  501    0 -0.19207839009E+02 -0.34765874891E+02 -0.15284286631E+03  0.23447281731E+03  0.17331749230E+03 0.  0.
         24    2    5    5    0    0  0.69951857697E+01  0.44491069317E+02 -0.98193797167E+02  0.13458852189E+03  0.80272414622E+02 0.  0.
          5    1    5    5  501    0 -0.26203024779E+02 -0.79256944208E+02 -0.54649069143E+02  0.99884295417E+02  0.47000000000E+01 0. -1.
        -11    1    6    6    0    0  0.32466400289E+02 -0.20869752641E+01 -0.14824870532E+02  0.35751914631E+02  0.00000000000E+00 0.  1.
         12    1    6    6    0    0 -0.25471214519E+02  0.46578044581E+02 -0.83368926635E+02  0.98836607258E+02  0.00000000000E+00 0. -1.
         -5    1    3    3    0  503 -0.54223675256E+02  0.47232196656E+02 -0.21191559092E+03  0.22383340911E+03  0.47000000000E+01 0.  1.
         13    1    4    4    0    0  0.32469324440E+02 -0.43009420751E+02 -0.11375323270E+03  0.12587241656E+03  0.00000000000E+00 0. -1.
        -14    1    4    4    0    0  0.40962189826E+02  0.30543098986E+02 -0.19906713230E+03  0.20552008431E+03  0.00000000000E+00 0.  1.
<mgrwt>
<rscale>  2 0.18054118E+03</rscale>
<asrwt>0</asrwt>
<pdfrwt beam="1">  1       21 0.86246086E-02 0.18146071E+03</pdfrwt>
<pdfrwt beam="2">  1       21 0.11286750E+00 0.18146071E+03</pdfrwt>
<totfact> 0.64926836E+04</totfact>
</mgrwt>
</event>
<event>
12    1  0.1074575E-001  0.2908094E+03  0.7546771E-02  0.1089952E+00
         21   -1    0    0  501  502  0.00000000000E+00  0.00000000000E+00  0.10284626907E+03  0.10284626907E+03  0.00000000000E+00 0. -1.
         21   -1    0    0  502  503 -0.00000000000E+00 -0.00000000000E+00 -0.84073533227E+03  0.84073533227E+03  0.00000000000E+00 0. -1.
         -6    2    1    2    0  503  0.21422243085E+03  0.94096875044E+02 -0.43971936989E+03  0.52707798470E+03  0.17237344905E+03 0.  0.
        -24    2    3    3    0    0  0.12992356662E+03  0.11787995042E+03 -0.36193103052E+03  0.40983870406E+03  0.78726594111E+02 0.  0.
          6    2    1    2  501    0 -0.21422243085E+03 -0.94096875044E+02 -0.29816969332E+03  0.41650361663E+03  0.17269807436E+03 0.  0.
         24    2    5    5    0    0 -0.17842231550E+03 -0.27740882045E+02 -0.27265195953E+03  0.33676648098E+03  0.80426938693E+02 0.  0.
          5    1    5    5  501    0 -0.35800115344E+02 -0.66355992999E+02 -0.25517733786E+02  0.79737135659E+02  0.47000000000E+01 0. -1.
        -13    1    6    6    0    0 -0.76365508417E+02  0.28028850012E+02 -0.11459623292E+03  0.14053328399E+03  0.00000000000E+00 0.  1.
         14    1    6    6    0    0 -0.10205680708E+03 -0.55769732057E+02 -0.15805572661E+03  0.19623319699E+03  0.00000000000E+00 0. -1.
         -5    1    3    3    0  503  0.84298864225E+02 -0.23783075377E+02 -0.77788339368E+02  0.11723928064E+03  0.47000000000E+01 0.  1.
         13    1    4    4    0    0  0.20209876022E+02  0.23032785451E+02 -0.15635717274E+02  0.34400929480E+02  0.00000000000E+00 0. -1.
        -14    1    4    4    0    0  0.10971369060E+03  0.94847164971E+02 -0.34629531324E+03  0.37543777458E+03  0.00000000000E+00 0.  1.
<mgrwt>
<rscale>  2 0.29076120E+03</rscale>
<asrwt>0</asrwt>
<pdfrwt beam="1">  1       21 0.15822503E-01 0.29080938E+03</pdfrwt>
<pdfrwt beam="2">  1       21 0.12934390E+00 0.29080938E+03</pdfrwt>
<totfact> 0.14731484E+04</totfact>
</mgrwt>
</event>
<event>
12    1  0.1074575E-001  0.2524885E+03  0.7546771E-02  0.1111778E+00
         21   -1    0    0  501  502  0.00000000000E+00  0.00000000000E+00  0.18072361851E+03  0.18072361851E+03  0.00000000000E+00 0.  1.
         21   -1    0    0  502  503 -0.00000000000E+00 -0.00000000000E+00 -0.41296268641E+03  0.41296268641E+03  0.00000000000E+00 0.  1.
         -6    2    1    2    0  503  0.13198653066E+03 -0.12846596376E+03 -0.22981260893E+03  0.34141512675E+03  0.17270351887E+03 0.  0.
        -24    2    3    3    0    0  0.53396767815E+02 -0.66620039740E+02 -0.20810770031E+03  0.23897264435E+03  0.80682496929E+02 0.  0.
          6    2    1    2  501    0 -0.13198653066E+03  0.12846596376E+03 -0.24264589702E+01  0.25227117817E+03  0.17236853399E+03 0.  0.
         24    2    5    5    0    0 -0.15928729253E+03  0.12358969564E+03 -0.85261940476E+01  0.22348912894E+03  0.96061648640E+02 0.  0.
          5    1    5    5  501    0  0.27300761873E+02  0.48762681180E+01  0.60997350774E+01  0.28782049226E+02  0.47000000000E+01 0. -1.
        -11    1    6    6    0    0 -0.10577473552E+03  0.35673841187E+02  0.26572558826E+02  0.11474762962E+03  0.00000000000E+00 0.  1.
         12    1    6    6    0    0 -0.53512557007E+02  0.87915854456E+02 -0.35098752873E+02  0.10874149933E+03  0.00000000000E+00 0. -1.
         -5    1    3    3    0  503  0.78589762843E+02 -0.61845924022E+02 -0.21704908612E+02  0.10244248240E+03  0.47000000000E+01 0.  1.
         13    1    4    4    0    0 -0.16505220639E+02  0.20036140707E+01 -0.52778046984E+02  0.55334971051E+02  0.00000000000E+00 0. -1.
        -14    1    4    4    0    0  0.69901988454E+02 -0.68623653810E+02 -0.15532965333E+03  0.18363767330E+03  0.00000000000E+00 0.  1.
<mgrwt>
<rscale>  2 0.25243125E+03</rscale>
<asrwt>0</asrwt>
<pdfrwt beam="1">  1       21 0.27803634E-01 0.25248852E+03</pdfrwt>
<pdfrwt beam="2">  1       21 0.63532720E-01 0.25248852E+03</pdfrwt>
<totfact> 0.27436086E+04</totfact>
</mgrwt>
</event>
<event>
12    1  0.1074575E-001  0.2543942E+03  0.7546771E-02  0.1110903E+00
         21   -1    0    0  503  502  0.00000000000E+00  0.00000000000E+00  0.92950440244E+02  0.92950440244E+02  0.00000000000E+00 0. -1.
         21   -1    0    0  501  503 -0.00000000000E+00 -0.00000000000E+00 -0.74600048594E+03  0.74600048594E+03  0.00000000000E+00 0. -1.
          6    2    1    2  501    0 -0.18443070281E+03  0.24951508996E+02 -0.43993882515E+03  0.50708833840E+03  0.17016213188E+03 0.  0.
         24    2    3    3    0    0 -0.12896128017E+03  0.84302464057E+01 -0.15735285729E+03  0.21859790841E+03  0.79517564254E+02 0.  0.
         -6    2    1    2    0  502  0.18443070281E+03 -0.24951508996E+02 -0.21311122054E+03  0.33186258778E+03  0.17343333851E+03 0.  0.
        -24    2    5    5    0    0  0.19971997363E+03 -0.50001853943E+02 -0.20411256209E+03  0.30080864378E+03  0.80222496249E+02 0.  0.
          5    1    3    3  501    0 -0.55469422637E+02  0.16521262590E+02 -0.28258596786E+03  0.28849042999E+03  0.47000000000E+01 0. -1.
        -13    1    4    4    0    0 -0.30270708466E+00 -0.84978535992E+01  0.56793230268E+01  0.10225451453E+02  0.00000000000E+00 0.  1.
         14    1    4    4    0    0 -0.12865857309E+03  0.16928100005E+02 -0.16303218031E+03  0.20837245695E+03  0.00000000000E+00 0. -1.
         -5    1    5    5    0  502 -0.15289270819E+02  0.25050344947E+02 -0.89986584521E+01  0.31053944002E+02  0.47000000000E+01 0.  1.
         13    1    6    6    0    0  0.12917718540E+03 -0.20387735601E+02 -0.75069582883E+02  0.15079073998E+03  0.00000000000E+00 0. -1.
        -14    1    6    6    0    0  0.70542788232E+02 -0.29614118341E+02 -0.12904297921E+03  0.15001790380E+03  0.00000000000E+00 0.  1.
<mgrwt>
<rscale>  2 0.25383763E+03</rscale>
<asrwt>0</asrwt>
<pdfrwt beam="1">  1       21 0.14300068E-01 0.25439415E+03</pdfrwt>
<pdfrwt beam="2">  1       21 0.11476931E+00 0.25439415E+03</pdfrwt>
<totfact> 0.24367775E+04</totfact>
</mgrwt>
</event>
<event>
12    1  0.1074575E-001  0.2179560E+03  0.7546771E-02  0.1135575E+00
         21   -1    0    0  501  502  0.00000000000E+00  0.00000000000E+00  0.40898002441E+03  0.40898002441E+03  0.00000000000E+00 0.  1.
         21   -1    0    0  502  503 -0.00000000000E+00 -0.00000000000E+00 -0.12813172163E+03  0.12813172163E+03  0.00000000000E+00 0.  1.
         -6    2    1    2    0  503  0.89929312296E+02  0.97373372849E+02  0.57038126889E+02  0.22529574774E+03  0.17302014646E+03 0.  0.
        -24    2    3    3    0    0  0.87550978094E+02  0.60649465481E+01  0.61201521144E+02  0.13374079681E+03  0.80243486961E+02 0.  0.
          6    2    1    2  501    0 -0.89929312296E+02 -0.97373372849E+02  0.22381017590E+03  0.31181599831E+03  0.17195745699E+03 0.  0.
         24    2    5    5    0    0 -0.65528327393E+02 -0.11104949971E+03  0.23602472023E+03  0.28093348540E+03  0.81178824687E+02 0.  0.
          5    1    5    5  501    0 -0.24400984903E+02  0.13676126863E+02 -0.12214544338E+02  0.30882512909E+02  0.47000000000E+01 0. -1.
        -11    1    6    6    0    0 -0.21416804180E+02 -0.63517808992E+02  0.18982498700E+03  0.20131248657E+03  0.00000000000E+00 0.  1.
         12    1    6    6    0    0 -0.44111523213E+02 -0.47531690720E+02  0.46199733238E+02  0.79620998827E+02  0.00000000000E+00 0. -1.
         -5    1    3    3    0  503  0.23783342015E+01  0.91308426301E+02 -0.41633942549E+01  0.91554950925E+02  0.47000000000E+01 0.  1.
         11    1    4    4    0    0  0.22719435427E+01  0.26035328308E+02  0.32215307211E+02  0.41482840625E+02  0.00000000000E+00 0. -1.
        -12    1    4    4    0    0  0.85279034552E+02 -0.19970381760E+02  0.28986213932E+02  0.92257956187E+02  0.00000000000E+00 0.  1.
<mgrwt>
<rscale>  2 0.21774505E+03</rscale>
<asrwt>0</asrwt>
<pdfrwt beam="1">  1       21 0.62920003E-01 0.21795602E+03</pdfrwt>
<pdfrwt beam="2">  1       21 0.19712573E-01 0.21795602E+03</pdfrwt>
<totfact> 0.54812883E+04</totfact>
</mgrwt>
</event>
<event>
12    1  0.1074575E-001  0.2567729E+03  0.7546771E-02  0.1109194E+00
         21   -1    0    0  503  502  0.00000000000E+00  0.00000000000E+00  0.29329139471E+03  0.29329139471E+03  0.00000000000E+00 0. -1.
         21   -1    0    0  501  503 -0.00000000000E+00 -0.00000000000E+00 -0.22431619812E+03  0.22431619812E+03  0.00000000000E+00 0. -1.
          6    2    1    2  501    0  0.11676451848E+03 -0.14928388077E+03  0.29941778288E+02  0.25788478470E+03  0.17230328569E+03 0.  0.
         24    2    3    3    0    0  0.47702274052E+02 -0.12454253212E+03  0.75050604361E+02  0.17163732603E+03  0.77720198243E+02 0.  0.
         -6    2    1    2    0  502 -0.11676451848E+03  0.14928388077E+03  0.39033418301E+02  0.25972280813E+03  0.17324173713E+03 0.  0.
        -24    2    5    5    0    0 -0.92819396588E+02  0.55806692134E+02  0.76539039564E+02  0.15608828065E+03  0.82313422414E+02 0.  0.
          5    1    3    3  501    0  0.69062244425E+02 -0.24741348659E+02 -0.45108826074E+02  0.86247458677E+02  0.47000000000E+01 0. -1.
        -11    1    4    4    0    0 -0.39809835378E+01  0.97122547921E+01  0.48165526784E+01  0.11548822571E+02  0.00000000000E+00 0.  1.
         12    1    4    4    0    0  0.51683257589E+02 -0.13425478691E+03  0.70234051683E+02  0.16008850346E+03  0.00000000000E+00 0. -1.
         -5    1    5    5    0  502 -0.23945121888E+02  0.93477188641E+02 -0.37505621263E+02  0.10363452747E+03  0.47000000000E+01 0.  1.
         13    1    6    6    0    0 -0.85372081255E+02  0.72558183267E+02  0.47383484644E+02  0.12164816823E+03  0.00000000000E+00 0. -1.
        -14    1    6    6    0    0 -0.74473153330E+01 -0.16751491134E+02  0.29155554920E+02  0.34440112421E+02  0.00000000000E+00 0.  1.
<mgrwt>
<rscale>  2 0.25661471E+03</rscale>
<asrwt>0</asrwt>
<pdfrwt beam="1">  1       21 0.45121753E-01 0.25677291E+03</pdfrwt>
<pdfrwt beam="2">  1       21 0.34510184E-01 0.25677291E+03</pdfrwt>
<totfact> 0.37002486E+04</totfact>
</mgrwt>
</event>
<event>
12    1  0.1074575E-001  0.1871413E+03  0.7546771E-02  0.1162562E+00
         21   -1    0    0  501  502  0.00000000000E+00  0.00000000000E+00  0.11559991130E+03  0.11559991130E+03  0.00000000000E+00 0.  1.
         21   -1    0    0  502  503 -0.00000000000E+00 -0.00000000000E+00 -0.30464060388E+03  0.30464060388E+03  0.00000000000E+00 0.  1.
         -6    2    1    2    0  503  0.18414931110E+02 -0.48416326021E+02 -0.51358073361E+02  0.18790802479E+03  0.17317194856E+03 0.  0.
        -24    2    3    3    0    0 -0.39743527838E+02 -0.74328054040E+02 -0.39413797793E+02  0.12295743038E+03  0.80379565847E+02 0.  0.
          6    2    1    2  501    0 -0.18414931110E+02  0.48416326021E+02 -0.13768261922E+03  0.23233249039E+03  0.17982945293E+03 0.  0.
         24    2    5    5    0    0 -0.62409925105E+02  0.82667375510E+02 -0.81818958455E+02  0.15326585721E+03  0.77892151719E+02 0.  0.
          5    1    5    5  501    0  0.43994993995E+02 -0.34251049489E+02 -0.55863660769E+02  0.79066633179E+02  0.47000000000E+01 0. -1.
        -13    1    6    6    0    0  0.11273024193E+02  0.38504567050E+02 -0.10134284893E+02  0.41380991874E+02  0.00000000000E+00 0.  1.
         14    1    6    6    0    0 -0.73682949298E+02  0.44162808460E+02 -0.71684673561E+02  0.11188486534E+03  0.00000000000E+00 0. -1.
         -5    1    3    3    0  503  0.58158458948E+02  0.25911728019E+02 -0.11944275568E+02  0.64950594416E+02  0.47000000000E+01 0.  1.
         11    1    4    4    0    0 -0.64161043512E+02 -0.45958481075E+02 -0.29281274092E+02  0.84179656091E+02  0.00000000000E+00 0. -1.
        -12    1    4    4    0    0  0.24417515674E+02 -0.28369572965E+02 -0.10132523701E+02  0.38777774284E+02  0.00000000000E+00 0.  1.
<mgrwt>
<rscale>  2 0.18552349E+03</rscale>
<asrwt>0</asrwt>
<pdfrwt beam="1">  1       21 0.17784602E-01 0.18714134E+03</pdfrwt>
<pdfrwt beam="2">  1       21 0.46867785E-01 0.18714134E+03</pdfrwt>
<totfact> 0.12534413E+05</totfact>
</mgrwt>
</event>
<event>
12    1  0.1074575E-001  0.2337535E+03  0.7546771E-02  0.1124419E+00
         21   -1    0    0  501  502  0.00000000000E+00  0.00000000000E+00  0.14006398195E+04  0.14006398195E+04  0.00000000000E+00 0.  1.
         21   -1    0    0  502  503 -0.00000000000E+00 -0.00000000000E+00 -0.85088167647E+02  0.85088167647E+02  0.00000000000E+00 0. -1.
         -6    2    1    2    0  503  0.98236197130E+02  0.11977762148E+03  0.11033921731E+03  0.25848685246E+03  0.17505336610E+03 0.  0.
        -24    2    3    3    0    0  0.56405182401E+02  0.42346811131E+02 -0.11638687737E+02  0.10800076173E+03  0.80956213267E+02 0.  0.
          6    2    1    2  501    0 -0.98236197130E+02 -0.11977762148E+03  0.12052124345E+04  0.12272411347E+04  0.17200802670E+03 0.  0.
         24    2    5    5    0    0 -0.12082263483E+03 -0.13928067400E+03  0.10707745601E+04  0.10894509016E+04  0.79673668074E+02 0.  0.
          5    1    5    5  501    0  0.22586437700E+02  0.19503052519E+02  0.13443787447E+03  0.13779023303E+03  0.47000000000E+01 0. -1.
        -11    1    6    6    0    0 -0.18265107224E+02 -0.52202584730E+02  0.49927268690E+03  0.50232652715E+03  0.00000000000E+00 0.  1.
         12    1    6    6    0    0 -0.10255752761E+03 -0.87078089273E+02  0.57150187316E+03  0.58712437450E+03  0.00000000000E+00 0. -1.
         -5    1    3    3    0  503  0.41831014729E+02  0.77430810353E+02  0.12197790504E+03  0.15048609073E+03  0.47000000000E+01 0.  1.
         13    1    4    4    0    0  0.69607249881E+02  0.88787487944E+01  0.51748547643E-01  0.70171248343E+02  0.00000000000E+00 0. -1.
        -14    1    4    4    0    0 -0.13202067479E+02  0.33468062337E+02 -0.11690436284E+02  0.37829513383E+02  0.00000000000E+00 0.  1.
<mgrwt>
<rscale>  2 0.23318349E+03</rscale>
<asrwt>0</asrwt>
<pdfrwt beam="1">  1       21 0.21548303E+00 0.23375352E+03</pdfrwt>
<pdfrwt beam="2">  1       21 0.13090488E-01 0.23375352E+03</pdfrwt>
<totfact> 0.51916038E+03</totfact>
</mgrwt>
</event>
<event>
12    1  0.1074575E-001  0.1786733E+03  0.7546771E-02  0.1169507E+00
         21   -1    0    0  503  502  0.00000000000E+00  0.00000000000E+00  0.98573766678E+02  0.98573766678E+02  0.00000000000E+00 0. -1.
         21   -1    0    0  501  503 -0.00000000000E+00 -0.00000000000E+00 -0.45161263931E+03  0.45161263931E+03  0.00000000000E+00 0. -1.
          6    2    1    2  501    0  0.36459549542E+02  0.18541422301E+02 -0.32397129803E+03  0.36916407070E+03  0.17219647516E+03 0.  0.
         24    2    3    3    0    0  0.35632663161E+02  0.59385303248E+02 -0.11757260626E+03  0.15870881105E+03  0.81048553571E+02 0.  0.
         -6    2    1    2    0  502 -0.36459549542E+02 -0.18541422301E+02 -0.29067574609E+02  0.18102233529E+03  0.17392837286E+03 0.  0.
        -24    2    5    5    0    0 -0.82033039106E+02 -0.23217202157E+02  0.15018667607E+02  0.11726896188E+03  0.79107465278E+02 0.  0.
          5    1    3    3  501    0  0.82688638035E+00 -0.40843880947E+02 -0.20639869177E+03  0.21045525966E+03  0.47000000000E+01 0. -1.
        -11    1    4    4    0    0  0.83707623087E+01 -0.12861501935E+02  0.28957129729E+01  0.15616435166E+02  0.00000000000E+00 0.  1.
         12    1    4    4    0    0  0.27261900853E+02  0.72246805183E+02 -0.12046831923E+03  0.14309237588E+03  0.00000000000E+00 0. -1.
         -5    1    5    5    0  502  0.45573489565E+02  0.46757798560E+01 -0.44086242216E+02  0.63753373410E+02  0.47000000000E+01 0.  1.
         11    1    6    6    0    0  0.64150544305E+01 -0.26545133889E+02  0.81148908283E+01  0.28489445584E+02  0.00000000000E+00 0. -1.
        -12    1    6    6    0    0 -0.88448093537E+02  0.33279317325E+01  0.69037767788E+01  0.88779516296E+02  0.00000000000E+00 0.  1.
<mgrwt>
<rscale>  2 0.17825047E+03</rscale>
<asrwt>0</asrwt>
<pdfrwt beam="1">  1       21 0.15165195E-01 0.17867334E+03</pdfrwt>
<pdfrwt beam="2">  1       21 0.69478868E-01 0.17867334E+03</pdfrwt>
<totfact> 0.72870092E+04</totfact>
</mgrwt>
</event>
<event>
12    1  0.1074575E-001  0.1804338E+03  0.7546771E-02  0.1167738E+00
         21   -1    0    0  501  502  0.00000000000E+00  0.00000000000E+00  0.27449966610E+03  0.27449966610E+03  0.00000000000E+00 0. -1.
         21   -1    0    0  502  503 -0.00000000000E+00 -0.00000000000E+00 -0.11949593025E+03  0.11949593025E+03  0.00000000000E+00 0.  1.
         -6    2    1    2    0  503  0.32505245576E+02  0.33184560954E+02  0.52657410229E+02  0.18655614367E+03  0.17283687632E+03 0.  0.
        -24    2    3    3    0    0 -0.44021593726E+02  0.54179949135E+01  0.49600070027E+02  0.10495481616E+03  0.81167056773E+02 0.  0.
          6    2    1    2  501    0 -0.32505245576E+02 -0.33184560954E+02  0.10234632562E+03  0.20743945267E+03  0.17435179976E+03 0.  0.
         24    2    5    5    0    0 -0.64499162564E+02 -0.64462526526E+02  0.10721952662E+03  0.16218727104E+03  0.80579927401E+02 0.  0.
          5    1    5    5  501    0  0.31993916988E+02  0.31277965572E+02 -0.48732010018E+01  0.45252181634E+02  0.47000000000E+01 0. -1.
        -11    1    6    6    0    0  0.42756735177E+01 -0.11990329563E+02 -0.10221245928E+02  0.16325539972E+02  0.00000000000E+00 0.  1.
         12    1    6    6    0    0 -0.68774836082E+02 -0.52472196963E+02  0.11744077255E+03  0.14586173106E+03  0.00000000000E+00 0. -1.
         -5    1    3    3    0  503  0.76526839302E+02  0.27766566041E+02  0.30573402023E+01  0.81601327516E+02  0.47000000000E+01 0.  1.
         13    1    4    4    0    0  0.36117728430E+01 -0.26214893488E+02  0.38483839451E+02  0.46704083789E+02  0.00000000000E+00 0. -1.
        -14    1    4    4    0    0 -0.47633366569E+02  0.31632888402E+02  0.11116230575E+02  0.58250732369E+02  0.00000000000E+00 0.  1.
<mgrwt>
<rscale>  2 0.18006682E+03</rscale>
<asrwt>0</asrwt>
<pdfrwt beam="1">  1       21 0.42230718E-01 0.18043380E+03</pdfrwt>
<pdfrwt beam="2">  1       21 0.18383989E-01 0.18043380E+03</pdfrwt>
<totfact> 0.14626717E+05</totfact>
</mgrwt>
</event>
<event>
12    1  0.1074575E-001  0.2129602E+03  0.7546771E-02  0.1139791E+00
         21   -1    0    0  503  502  0.00000000000E+00  0.00000000000E+00  0.15355325696E+03  0.15355325696E+03  0.00000000000E+00 0.  1.
         21   -1    0    0  501  503 -0.00000000000E+00 -0.00000000000E+00 -0.29343368505E+03  0.29343368505E+03  0.00000000000E+00 0.  1.
          6    2    1    2  501    0 -0.85366855917E+02  0.81551520458E+02 -0.87699872027E+02  0.22772712485E+03  0.17386841364E+03 0.  0.
         24    2    3    3    0    0 -0.14570182769E+02  0.18807124486E+02  0.19121171143E+02  0.84962096152E+02  0.79290229154E+02 0.  0.
         -6    2    1    2    0  502  0.85366855917E+02 -0.81551520458E+02 -0.52180556066E+02  0.21925981716E+03  0.17723968634E+03 0.  0.
        -24    2    5    5    0    0  0.44606969360E+01  0.18081543035E+02 -0.31678072510E+02  0.89202154050E+02  0.81281510773E+02 0.  0.
          5    1    3    3  501    0 -0.70796673149E+02  0.62744395972E+02 -0.10682104317E+03  0.14276502870E+03  0.47000000000E+01 0. -1.
        -11    1    4    4    0    0 -0.43957748641E+02 -0.49614321457E+01  0.46127684540E+01  0.44476702973E+02  0.00000000000E+00 0.  1.
         12    1    4    4    0    0  0.29387565872E+02  0.23768556632E+02  0.14508402689E+02  0.40485393179E+02  0.00000000000E+00 0. -1.
         -5    1    5    5    0  502  0.80906158981E+02 -0.99633063493E+02 -0.20502483556E+02  0.13005766311E+03  0.47000000000E+01 0.  1.
         13    1    6    6    0    0  0.38026167858E+02  0.21066750352E+02 -0.34340528096E+02  0.55399181242E+02  0.00000000000E+00 0. -1.
        -14    1    6    6    0    0 -0.33565470922E+02 -0.29852073180E+01  0.26624555854E+01  0.33802972809E+02  0.00000000000E+00 0.  1.
<mgrwt>
<rscale>  2 0.21225738E+03</rscale>
<asrwt>0</asrwt>
<pdfrwt beam="1">  1       21 0.23623578E-01 0.21296022E+03</pdfrwt>
<pdfrwt beam="2">  1       21 0.45143643E-01 0.21296022E+03</pdfrwt>
<totfact> 0.78738162E+04</totfact>
</mgrwt>
</event>
<event>
12    1  0.1074575E-001  0.2220232E+03  0.7546771E-02  0.1132514E+00
         21   -1    0    0  503  502  0.00000000000E+00  0.00000000000E+00  0.86740075896E+03  0.86740075896E+03  0.00000000000E+00 0. -1.
         21   -1    0    0  501  503 -0.00000000000E+00 -0.00000000000E+00 -0.27507435254E+03  0.27507435254E+03  0.00000000000E+00 0.  1.
          6    2    1    2  501    0 -0.98182462912E+02  0.97365449279E+02 -0.21296302584E+03  0.30713964058E+03  0.17280532891E+03 0.  0.
         24    2    3    3    0    0 -0.13376400494E+03  0.97261268065E+02 -0.16674289617E+03  0.24862086262E+03  0.81587846036E+02 0.  0.
         -6    2    1    2    0  502  0.98182462912E+02 -0.97365449279E+02  0.80528943227E+03  0.83533547092E+03  0.17370795180E+03 0.  0.
        -24    2    5    5    0    0  0.11302117453E+02 -0.76907438231E+02  0.38937551494E+03  0.40992601961E+03  0.10189974485E+03 0.  0.
          5    1    3    3  501    0  0.35581542031E+02  0.10418121453E+00 -0.46220129673E+02  0.58518777961E+02  0.47000000000E+01 0. -1.
        -11    1    4    4    0    0  0.84302295238E+01  0.21879653133E+02 -0.19768840391E+02  0.30669121954E+02  0.00000000000E+00 0.  1.
         12    1    4    4    0    0 -0.14219423447E+03  0.75381614932E+02 -0.14697405578E+03  0.21795174066E+03  0.00000000000E+00 0. -1.
         -5    1    5    5    0  502  0.86880345459E+02 -0.20458011048E+02  0.41591391732E+03  0.42540945131E+03  0.47000000000E+01 0.  1.
         13    1    6    6    0    0  0.56667503541E+02 -0.36630687860E+02  0.20113865420E+03  0.21215506467E+03  0.00000000000E+00 0. -1.
        -14    1    6    6    0    0 -0.45365386088E+02 -0.40276750371E+02  0.18823686075E+03  0.19777095494E+03  0.00000000000E+00 0.  1.
<mgrwt>
<rscale>  2 0.22184657E+03</rscale>
<asrwt>0</asrwt>
<pdfrwt beam="1">  1       21 0.13344627E+00 0.22202315E+03</pdfrwt>
<pdfrwt beam="2">  1       21 0.42319132E-01 0.22202315E+03</pdfrwt>
<totfact> 0.21176413E+03</totfact>
</mgrwt>
</event>
<event>
12    1  0.1074575E-001  0.2191210E+03  0.7546771E-02  0.1136702E+00
         21   -1    0    0  501  502  0.00000000000E+00  0.00000000000E+00  0.62313712420E+03  0.62313712420E+03  0.00000000000E+00 0. -1.
         21   -1    0    0  502  503 -0.00000000000E+00 -0.00000000000E+00 -0.73172155135E+02  0.73172155135E+02  0.00000000000E+00 0. -1.
         -6    2    1    2    0  503 -0.11917856476E+03  0.62552785547E+02  0.27272495031E+03  0.34293120905E+03  0.15845041604E+03 0.  0.
        -24    2    3    3    0    0 -0.90054188814E+02  0.69940086769E+01  0.94886379006E+02  0.15429490713E+03  0.81515767578E+02 0.  0.
          6    2    1    2  501    0  0.11917856476E+03 -0.62552785547E+02  0.27724001876E+03  0.35337807029E+03  0.17290937303E+03 0.  0.
         24    2    5    5    0    0  0.61757351363E+02 -0.10504199041E+03  0.16696352552E+03  0.22190364981E+03  0.80725589187E+02 0.  0.
          5    1    5    5  501    0  0.57421213392E+02  0.42489204865E+02  0.11027649324E+03  0.13147442047E+03  0.47000000000E+01 0. -1.
        -11    1    6    6    0    0 -0.25499959067E+01 -0.53754370040E+02  0.28614692039E+02  0.60949449366E+02  0.00000000000E+00 0.  1.
         12    1    6    6    0    0  0.64307347270E+02 -0.51287620372E+02  0.13834883348E+03  0.16095420045E+03  0.00000000000E+00 0. -1.
         -5    1    3    3    0  503 -0.29124375941E+02  0.55558776870E+02  0.17783857130E+03  0.18863630193E+03  0.47000000000E+01 0.  1.
         11    1    4    4    0    0 -0.36842646351E+02 -0.30094587989E+02  0.70398169808E+02  0.84964505111E+02  0.00000000000E+00 0. -1.
        -12    1    4    4    0    0 -0.53211542463E+02  0.37088596666E+02  0.24488209198E+02  0.69330402015E+02  0.00000000000E+00 0.  1.
<mgrwt>
<rscale>  2 0.21626056E+03</rscale>
<asrwt>0</asrwt>
<pdfrwt beam="1">  1       21 0.95867246E-01 0.21912105E+03</pdfrwt>
<pdfrwt beam="2">  1       21 0.11257255E-01 0.21912105E+03</pdfrwt>
<totfact> 0.58893350E+04</totfact>
</mgrwt>
</event>
<event>
12    1  0.1074575E-001  0.1835028E+03  0.7546771E-02  0.1165735E+00
         21   -1    0    0  501  502  0.00000000000E+00  0.00000000000E+00  0.22333564552E+03  0.22333564552E+03  0.00000000000E+00 0. -1.
         21   -1    0    0  502  503 -0.00000000000E+00 -0.00000000000E+00 -0.48617683816E+03  0.48617683816E+03  0.00000000000E+00 0. -1.
         -6    2    1    2    0  503 -0.35550012445E+02 -0.23309100728E+02 -0.42855750771E+03  0.46619180977E+03  0.17851091991E+03 0.  0.
        -24    2    3    3    0    0  0.11599815226E+02  0.51686527645E+02 -0.23118699366E+03  0.24980174452E+03  0.78405565343E+02 0.  0.
          6    2    1    2  501    0  0.35550012445E+02  0.23309100728E+02  0.16571631506E+03  0.24332067391E+03  0.17302004425E+03 0.  0.
         24    2    5    5    0    0  0.78946618643E+02 -0.25619351154E+01  0.60779831297E+02  0.12676025374E+03  0.78325231747E+02 0.  0.
          5    1    5    5  501    0 -0.43396606199E+02  0.25871035843E+02  0.10493648377E+03  0.11656042017E+03  0.47000000000E+01 0. -1.
        -11    1    6    6    0    0 -0.11943735294E+02  0.12752217186E+02  0.23508324230E+01  0.17629471603E+02  0.00000000000E+00 0.  1.
         12    1    6    6    0    0  0.90890353938E+02 -0.15314152301E+02  0.58428998874E+02  0.10913078213E+03  0.00000000000E+00 0. -1.
         -5    1    3    3    0  503 -0.47149827671E+02 -0.74995628373E+02 -0.19737051405E+03  0.21639006525E+03  0.47000000000E+01 0.  1.
         13    1    4    4    0    0  0.27992403146E+02  0.17956240344E+02 -0.19455532795E+03  0.19737724497E+03  0.00000000000E+00 0. -1.
        -14    1    4    4    0    0 -0.16392587920E+02  0.33730287300E+02 -0.36631665709E+02  0.52424499546E+02  0.00000000000E+00 0.  1.
<mgrwt>
<rscale>  2 0.18215372E+03</rscale>
<asrwt>0</asrwt>
<pdfrwt beam="1">  1       21 0.34359330E-01 0.18350277E+03</pdfrwt>
<pdfrwt beam="2">  1       21 0.74796437E-01 0.18350277E+03</pdfrwt>
<totfact> 0.13136065E+04</totfact>
</mgrwt>
</event>
<event>
12    1  0.1074575E-001  0.1824388E+03  0.7546771E-02  0.1165591E+00
         21   -1    0    0  503  502  0.00000000000E+00  0.00000000000E+00  0.16959669562E+03  0.16959669562E+03  0.00000000000E+00 0. -1.
         21   -1    0    0  501  503 -0.00000000000E+00 -0.00000000000E+00 -0.20718059426E+03  0.20718059426E+03  0.00000000000E+00 0. -1.
          6    2    1    2  501    0  0.34638438385E+02 -0.47236890338E+02 -0.63154065969E+02  0.19255530993E+03  0.17221488354E+03 0.  0.
         24    2    3    3    0    0  0.27268210119E+02 -0.55708171441E+02 -0.10508608861E+03  0.14889219746E+03  0.85316146168E+02 0.  0.
         -6    2    1    2    0  502 -0.34638438385E+02  0.47236890338E+02  0.25570167329E+02  0.18422197994E+03  0.17277951040E+03 0.  0.
        -24    2    5    5    0    0  0.37553298664E+02  0.49970164398E+02 -0.15120775778E+02  0.10117403875E+03  0.78104293648E+02 0.  0.
          5    1    3    3  501    0  0.73702282656E+01  0.84712811030E+01  0.41932022638E+02  0.43663112472E+02  0.47000000000E+01 0. -1.
        -11    1    4    4    0    0  0.25330645565E+01 -0.29542405652E+02  0.75866609225E+01  0.30606005484E+02  0.00000000000E+00 0.  1.
         12    1    4    4    0    0  0.24735145563E+02 -0.26165765789E+02 -0.11267274953E+03  0.11828619197E+03  0.00000000000E+00 0. -1.
         -5    1    5    5    0  502 -0.72191737049E+02 -0.27332740602E+01  0.40690943107E+02  0.83047941191E+02  0.47000000000E+01 0.  1.
         13    1    6    6    0    0 -0.12679589948E+02  0.33355755451E+02  0.16736455152E+02  0.39414303926E+02  0.00000000000E+00 0. -1.
        -14    1    6    6    0    0  0.50232888612E+02  0.16614408947E+02 -0.31857230929E+02  0.61759734823E+02  0.00000000000E+00 0.  1.
<mgrwt>
<rscale>  2 0.18230496E+03</rscale>
<asrwt>0</asrwt>
<pdfrwt beam="1">  1       21 0.26091799E-01 0.18243877E+03</pdfrwt>
<pdfrwt beam="2">  1       21 0.31873938E-01 0.18243877E+03</pdfrwt>
<totfact> 0.13256455E+05</totfact>
</mgrwt>
</event>
<event>
12    1  0.1074575E-001  0.1751820E+03  0.7546771E-02  0.1173703E+00
         21   -1    0    0  503  502  0.00000000000E+00  0.00000000000E+00  0.65634556342E+03  0.65634556342E+03  0.00000000000E+00 0. -1.
         21   -1    0    0  501  503 -0.00000000000E+00 -0.00000000000E+00 -0.76224611737E+02  0.76224611737E+02  0.00000000000E+00 0. -1.
          6    2    1    2  501    0  0.12150812752E+02 -0.21361187491E+02  0.59999609345E+02  0.18517205548E+03  0.17344968846E+03 0.  0.
         24    2    3    3    0    0  0.70671239846E+01 -0.42255096749E+02  0.10271059605E+03  0.13712293769E+03  0.80111148143E+02 0.  0.
         -6    2    1    2    0  502 -0.12150812752E+02  0.21361187491E+02  0.52012134234E+03  0.54739811967E+03  0.16886251237E+03 0.  0.
        -24    2    5    5    0    0 -0.35342213699E+02  0.62725758386E+02  0.44508182565E+03  0.45850555605E+03  0.83342189602E+02 0.  0.
          5    1    3    3  501    0  0.50836887677E+01  0.20893909258E+02 -0.42710986705E+02  0.48049117795E+02  0.47000000000E+01 0. -1.
        -11    1    4    4    0    0  0.43618753428E+02 -0.19575025318E+02  0.55541484534E+02  0.73284608009E+02  0.00000000000E+00 0.  1.
         12    1    4    4    0    0 -0.36551629443E+02 -0.22680071430E+02  0.47169111515E+02  0.63838329679E+02  0.00000000000E+00 0. -1.
         -5    1    5    5    0  502  0.23191400947E+02 -0.41364570895E+02  0.75039516683E+02  0.88892563622E+02  0.47000000000E+01 0.  1.
         11    1    6    6    0    0  0.16120516826E+02  0.49140349807E+02  0.15008702019E+03  0.15874746823E+03  0.00000000000E+00 0. -1.
        -12    1    6    6    0    0 -0.51462730525E+02  0.13585408578E+02  0.29499480547E+03  0.29975808782E+03  0.00000000000E+00 0.  1.
<mgrwt>
<rscale>  2 0.17403566E+03</rscale>
<asrwt>0</asrwt>
<pdfrwt beam="1">  1       21 0.10097624E+00 0.17518201E+03</pdfrwt>
<pdfrwt beam="2">  1       21 0.11726864E-01 0.17518201E+03</pdfrwt>
<totfact> 0.49488962E+04</totfact>
</mgrwt>
</event>
<event>
12    1  0.1074575E-001  0.1991690E+03  0.7546771E-02  0.1150505E+00
         21   -1    0    0  501  502  0.00000000000E+00  0.00000000000E+00  0.16576957659E+03  0.16576957659E+03  0.00000000000E+00 0. -1.
         21   -1    0    0  502  503 -0.00000000000E+00 -0.00000000000E+00 -0.24454722391E+03  0.24454722391E+03  0.00000000000E+00 0. -1.
         -6    2    1    2    0  503  0.84825703325E+02  0.46770266564E+02 -0.83025545877E+01  0.19904677233E+03  0.17368888100E+03 0.  0.
        -24    2    3    3    0    0  0.52375981923E+02  0.77833232553E+02 -0.54442895370E+02  0.13447964972E+03  0.79495231053E+02 0.  0.
          6    2    1    2  501    0 -0.84825703325E+02 -0.46770266564E+02 -0.70475092734E+02  0.21127002817E+03  0.17402709079E+03 0.  0.
         24    2    5    5    0    0 -0.11318180719E+03 -0.63503976236E+02 -0.85027654198E+02  0.17496640974E+03  0.80874384591E+02 0.  0.
          5    1    5    5  501    0  0.28356103867E+02  0.16733709672E+02  0.14552561464E+02  0.36303618429E+02  0.47000000000E+01 0. -1.
        -13    1    6    6    0    0 -0.61660424805E+02  0.57920616089E+01 -0.57031072298E+02  0.84190849695E+02  0.00000000000E+00 0.  1.
         14    1    6    6    0    0 -0.51521382386E+02 -0.69296037845E+02 -0.27996581900E+02  0.90775560048E+02  0.00000000000E+00 0. -1.
         -5    1    3    3    0  503  0.32449721401E+02 -0.31062965989E+02  0.46140340782E+02  0.64567122613E+02  0.47000000000E+01 0.  1.
         11    1    4    4    0    0  0.16004495219E+02  0.29087420984E+02  0.19683034916E+02  0.38595903801E+02  0.00000000000E+00 0. -1.
        -12    1    4    4    0    0  0.36371486704E+02  0.48745811570E+02 -0.74125930285E+02  0.95883745918E+02  0.00000000000E+00 0.  1.
<mgrwt>
<rscale>  2 0.19909509E+03</rscale>
<asrwt>0</asrwt>
<pdfrwt beam="1">  1       21 0.25503012E-01 0.19916899E+03</pdfrwt>
<pdfrwt beam="2">  1       21 0.37622649E-01 0.19916899E+03</pdfrwt>
<totfact> 0.99087314E+04</totfact>
</mgrwt>
</event>
<event>
12    1  0.1074575E-001  0.2213545E+03  0.7546771E-02  0.1132896E+00
         21   -1    0    0  501  502  0.00000000000E+00  0.00000000000E+00  0.34097677637E+03  0.34097677637E+03  0.00000000000E+00 0. -1.
         21   -1    0    0  502  503 -0.00000000000E+00 -0.00000000000E+00 -0.28748919815E+03  0.28748919815E+03  0.00000000000E+00 0. -1.
         -6    2    1    2    0  503 -0.10087182547E+03 -0.95326405591E+02 -0.19553546667E+03  0.29535053523E+03  0.17244005091E+03 0.  0.
        -24    2    3    3    0    0  0.74286342834E+01 -0.47215878924E+02 -0.12755822908E+03  0.15865156966E+03  0.81330774733E+02 0.  0.
          6    2    1    2  501    0  0.10087182547E+03  0.95326405591E+02  0.24902304489E+03  0.33311543929E+03  0.17231125974E+03 0.  0.
         24    2    5    5    0    0  0.13023966563E+03  0.81041077862E+02  0.15146533899E+03  0.23012934020E+03  0.80546492803E+02 0.  0.
          5    1    5    5  501    0 -0.29367840165E+02  0.14285327730E+02  0.97557705904E+02  0.10298609909E+03  0.47000000000E+01 0. -1.
        -11    1    6    6    0    0  0.20348609398E+02 -0.16295460853E+02  0.17568642690E+02  0.31436684857E+02  0.00000000000E+00 0.  1.
         12    1    6    6    0    0  0.10989105623E+03  0.97336538714E+02  0.13389669630E+03  0.19869265534E+03  0.00000000000E+00 0. -1.
         -5    1    3    3    0  503 -0.10830045975E+03 -0.48110526668E+02 -0.67977237592E+02  0.13669896557E+03  0.47000000000E+01 0.  1.
         13    1    4    4    0    0 -0.29880314216E+02 -0.47271568942E+02 -0.64358615780E+02  0.85261162513E+02  0.00000000000E+00 0. -1.
        -14    1    4    4    0    0  0.37308948500E+02  0.55690018633E-01 -0.63199613299E+02  0.73390407144E+02  0.00000000000E+00 0.  1.
<mgrwt>
<rscale>  2 0.22132943E+03</rscale>
<asrwt>0</asrwt>
<pdfrwt beam="1">  1       21 0.52457966E-01 0.22135451E+03</pdfrwt>
<pdfrwt beam="2">  1       21 0.44229107E-01 0.22135451E+03</pdfrwt>
<totfact> 0.16629998E+04</totfact>
</mgrwt>
</event>
<event>
12    1  0.1074575E-001  0.1936934E+03  0.7546771E-02  0.1155476E+00
         21   -1    0    0  501  502  0.00000000000E+00  0.00000000000E+00  0.13784952772E+03  0.13784952772E+03  0.00000000000E+00 0. -1.
         21   -1    0    0  502  503 -0.00000000000E+00 -0.00000000000E+00 -0.31915744015E+03  0.31915744015E+03  0.00000000000E+00 0. -1.
         -6    2    1    2    0  503  0.52486803391E+01  0.86992082630E+02 -0.17985082725E+03  0.26330805906E+03  0.17143407718E+03 0.  0.
        -24    2    3    3    0    0 -0.51025075634E+02  0.77087088896E+02 -0.16303099291E+03  0.20355990981E+03  0.79445293210E+02 0.  0.
          6    2    1    2  501    0 -0.52486803391E+01 -0.86992082630E+02 -0.14570851762E+01  0.19369890880E+03  0.17297968981E+03 0.  0.
         24    2    5    5    0    0 -0.22516889909E+02 -0.12541568440E+03  0.42308768987E+01  0.15093201568E+03  0.80786563330E+02 0.  0.
          5    1    5    5  501    0  0.17268209570E+02  0.38423601767E+02 -0.56879620749E+01  0.42766893119E+02  0.47000000000E+01 0. -1.
        -11    1    6    6    0    0 -0.33828975958E+02 -0.30232144491E+02 -0.23572485158E+02  0.51127724684E+02  0.00000000000E+00 0.  1.
         12    1    6    6    0    0  0.11312086049E+02 -0.95183539907E+02  0.27803362057E+02  0.99804290998E+02  0.00000000000E+00 0. -1.
         -5    1    3    3    0  503  0.56273755973E+02  0.99049937343E+01 -0.16819834345E+02  0.59748149256E+02  0.47000000000E+01 0.  1.
         11    1    4    4    0    0  0.18045481884E+02 -0.25328145640E+00 -0.20706179887E+02  0.27467243280E+02  0.00000000000E+00 0. -1.
        -12    1    4    4    0    0 -0.69070557518E+02  0.77340370353E+02 -0.14232481302E+03  0.17609266653E+03  0.00000000000E+00 0.  1.
<mgrwt>
<rscale>  2 0.19334774E+03</rscale>
<asrwt>0</asrwt>
<pdfrwt beam="1">  1       21 0.21207620E-01 0.19369343E+03</pdfrwt>
<pdfrwt beam="2">  1       21 0.49101144E-01 0.19369343E+03</pdfrwt>
<totfact> 0.81812076E+04</totfact>
</mgrwt>
</event>
<event>
12    1  0.1074575E-001  0.3079275E+03  0.7546771E-02  0.1081363E+00
         21   -1    0    0  501  502  0.00000000000E+00  0.00000000000E+00  0.93639205440E+03  0.93639205440E+03  0.00000000000E+00 0. -1.
         21   -1    0    0  502  503 -0.00000000000E+00 -0.00000000000E+00 -0.19125040113E+03  0.19125040113E+03  0.00000000000E+00 0.  1.
         -6    2    1    2    0  503  0.21366102167E+03  0.13930500926E+03 -0.14349318542E+02  0.30810240601E+03  0.17223319035E+03 0.  0.
        -24    2    3    3    0    0  0.10341251083E+03  0.13278403133E+03 -0.47190470902E+02  0.19278593458E+03  0.81324840318E+02 0.  0.
          6    2    1    2  501    0 -0.21366102167E+03 -0.13930500926E+03  0.75949097182E+03  0.81954004952E+03  0.17251793739E+03 0.  0.
         24    2    5    5    0    0 -0.21365037604E+03 -0.77034818719E+02  0.59055847411E+03  0.63943492599E+03  0.92395166294E+02 0.  0.
          5    1    5    5  501    0 -0.10645632256E-01 -0.62270190538E+02  0.16893249770E+03  0.18010512353E+03  0.47000000000E+01 0. -1.
        -11    1    6    6    0    0 -0.52433691604E+02  0.20266484582E+02  0.11672393362E+03  0.12955500412E+03  0.00000000000E+00 0.  1.
         12    1    6    6    0    0 -0.16121668443E+03 -0.97301303302E+02  0.47383454050E+03  0.50987992188E+03  0.00000000000E+00 0. -1.
         -5    1    3    3    0  503  0.11024851084E+03  0.65209779236E+01  0.32841152360E+02  0.11531647143E+03  0.47000000000E+01 0.  1.
         11    1    4    4    0    0  0.43247111339E+02  0.87898041730E+02  0.99256505325E+01  0.98462667634E+02  0.00000000000E+00 0. -1.
        -12    1    4    4    0    0  0.60165399493E+02  0.44885989603E+02 -0.57116121435E+02  0.94323266942E+02  0.00000000000E+00 0.  1.
<mgrwt>
<rscale>  2 0.30788765E+03</rscale>
<asrwt>0</asrwt>
<pdfrwt beam="1">  1       21 0.14406031E+00 0.30792752E+03</pdfrwt>
<pdfrwt beam="2">  1       21 0.29423139E-01 0.30792752E+03</pdfrwt>
<totfact> 0.33906955E+03</totfact>
</mgrwt>
</event>
<event>
12    1  0.1074575E-001  0.2015473E+03  0.7546771E-02  0.1148474E+00
         21   -1    0    0  501  502  0.00000000000E+00  0.00000000000E+00  0.11921374605E+02  0.11921374605E+02  0.00000000000E+00 0.  1.
         21   -1    0    0  502  503 -0.00000000000E+00 -0.00000000000E+00 -0.34821019979E+04  0.34821019979E+04  0.00000000000E+00 0. -1.
         -6    2    1    2    0  503 -0.10197590088E+03  0.13345444420E+02 -0.19948587258E+04  0.20049981857E+04  0.17314503609E+03 0.  0.
        -24    2    3    3    0    0 -0.26835241177E+02 -0.48502844321E+02 -0.12473721779E+04  0.12511881574E+04  0.80385314608E+02 0.  0.
          6    2    1    2  501    0  0.10197590088E+03 -0.13345444420E+02 -0.14753218975E+04  0.14890251868E+04  0.17333239876E+03 0.  0.
         24    2    5    5    0    0  0.39398879700E+02 -0.55402463504E+02 -0.52204853890E+03  0.53276326523E+03  0.81733194803E+02 0.  0.
          5    1    5    5  501    0  0.62577021177E+02  0.42057019084E+02 -0.95327335859E+03  0.95626192156E+03  0.47000000000E+01 0. -1.
        -13    1    6    6    0    0 -0.15331147109E+02  0.93127867357E+01 -0.48960189800E+02  0.52142806347E+02  0.00000000000E+00 0.  1.
         14    1    6    6    0    0  0.54730026809E+02 -0.64715250239E+02 -0.47308834910E+03  0.48062045889E+03  0.00000000000E+00 0. -1.
         -5    1    3    3    0  503 -0.75140659700E+02  0.61848288740E+02 -0.74748654791E+03  0.75381002837E+03  0.47000000000E+01 0.  1.
         11    1    4    4    0    0 -0.11659528724E+01 -0.51146337997E+02 -0.37954835582E+03  0.38298075897E+03  0.00000000000E+00 0. -1.
        -12    1    4    4    0    0 -0.25669288304E+02  0.26434936764E+01 -0.86782382208E+03  0.86820739838E+03  0.00000000000E+00 0.  1.
<mgrwt>
<rscale>  2 0.20150699E+03</rscale>
<asrwt>0</asrwt>
<pdfrwt beam="1">  1       21 0.18340579E-02 0.20154728E+03</pdfrwt>
<pdfrwt beam="2">  1       21 0.53570793E+00 0.20154728E+03</pdfrwt>
<totfact> 0.14649620E+03</totfact>
</mgrwt>
</event>
<event>
12    1  0.1074575E-001  0.2122137E+03  0.7546771E-02  0.1140037E+00
         21   -1    0    0  503  502  0.00000000000E+00  0.00000000000E+00  0.11159315037E+03  0.11159315037E+03  0.00000000000E+00 0.  1.
         21   -1    0    0  501  503 -0.00000000000E+00 -0.00000000000E+00 -0.54605858702E+03  0.54605858702E+03  0.00000000000E+00 0.  1.
          6    2    1    2  501    0  0.11451582868E+03 -0.41569771631E+02 -0.38682589613E+03  0.44121303443E+03  0.17376060228E+03 0.  0.
         24    2    3    3    0    0  0.11130527412E+02 -0.24169422078E+02 -0.61449391562E+02  0.99331106850E+02  0.73366146558E+02 0.  0.
         -6    2    1    2    0  502 -0.11451582868E+03  0.41569771631E+02 -0.47639540528E+02  0.21643870296E+03  0.17243626471E+03 0.  0.
        -24    2    5    5    0    0 -0.76928501985E+02 -0.25818268433E+02 -0.73068515766E+02  0.13505886606E+03  0.79481519257E+02 0.  0.
          5    1    3    3  501    0  0.10338530127E+03 -0.17400349553E+02 -0.32537650457E+03  0.34188192758E+03  0.47000000000E+01 0. -1.
        -11    1    4    4    0    0  0.21821544491E+02 -0.40343903882E+02 -0.65066481906E+02  0.79608149407E+02  0.00000000000E+00 0.  1.
         12    1    4    4    0    0 -0.10691017078E+02  0.16174481803E+02  0.36170903436E+01  0.19722957444E+02  0.00000000000E+00 0. -1.
         -5    1    5    5    0  502 -0.37587326696E+02  0.67388040065E+02  0.25428975237E+02  0.81379836898E+02  0.47000000000E+01 0.  1.
         13    1    6    6    0    0 -0.37511829554E+02 -0.36829623800E+02 -0.14712656238E+01  0.52590143262E+02  0.00000000000E+00 0. -1.
        -14    1    6    6    0    0 -0.39416672431E+02  0.11011355367E+02 -0.71597250142E+02  0.82468722801E+02  0.00000000000E+00 0.  1.
<mgrwt>
<rscale>  2 0.21194246E+03</rscale>
<asrwt>0</asrwt>
<pdfrwt beam="1">  1       21 0.17168177E-01 0.21221373E+03</pdfrwt>
<pdfrwt beam="2">  1       21 0.84009013E-01 0.21221373E+03</pdfrwt>
<totfact> 0.37319671E+04</totfact>
</mgrwt>
</event>
<event>
12    1  0.1074575E-001  0.2039341E+03  0.7546771E-02  0.1148027E+00
         21   -1    0    0  501  502  0.00000000000E+00  0.00000000000E+00  0.97636961839E+03  0.97636961839E+03  0.00000000000E+00 0.  1.
         21   -1    0    0  502  503 -0.00000000000E+00 -0.00000000000E+00 -0.86912025906E+02  0.86912025906E+02  0.00000000000E+00 0.  1.
         -6    2    1    2    0  503 -0.99779572387E+02 -0.41594158640E+02  0.54656963298E+02  0.20393236267E+03  0.16405787944E+03 0.  0.
        -24    2    3    3    0    0 -0.10996265342E+03 -0.71324521023E+02  0.69900866106E+02  0.16868954553E+03  0.79944100735E+02 0.  0.
          6    2    1    2  501    0  0.99779572387E+02  0.41594158640E+02  0.83480062918E+03  0.85934928162E+03  0.17292501336E+03 0.  0.
         24    2    5    5    0    0  0.13184478348E+03  0.61224585098E+02  0.66732417429E+03  0.68764027094E+03  0.79975570537E+02 0.  0.
          5    1    5    5  501    0 -0.32065211092E+02 -0.19630426457E+02  0.16747645489E+03  0.17170901068E+03  0.47000000000E+01 0. -1.
        -13    1    6    6    0    0  0.16928747546E+02  0.22841732903E+02  0.28887032955E+03  0.29026607543E+03  0.00000000000E+00 0.  1.
         14    1    6    6    0    0  0.11491603593E+03  0.38382852194E+02  0.37845384474E+03  0.39737419551E+03  0.00000000000E+00 0. -1.
         -5    1    3    3    0  503  0.10183081037E+02  0.29730362383E+02 -0.15243902808E+02  0.35242817135E+02  0.47000000000E+01 0.  1.
         11    1    4    4    0    0 -0.47676046058E+02  0.72417973417E+01  0.43660670811E+02  0.65051542427E+02  0.00000000000E+00 0. -1.
        -12    1    4    4    0    0 -0.62286607365E+02 -0.78566318365E+02  0.26240195295E+02  0.10363800311E+03  0.00000000000E+00 0.  1.
<mgrwt>
<rscale>  2 0.20204224E+03</rscale>
<asrwt>0</asrwt>
<pdfrwt beam="1">  1       21 0.15021070E+00 0.20393405E+03</pdfrwt>
<pdfrwt beam="2">  1       21 0.13371082E-01 0.20393405E+03</pdfrwt>
<totfact> 0.14273408E+04</totfact>
</mgrwt>
</event>
<event>
12    1  0.1074575E-001  0.2787162E+03  0.7546771E-02  0.1096419E+00
         21   -1    0    0  503  502  0.00000000000E+00  0.00000000000E+00  0.14029044640E+04  0.14029044640E+04  0.00000000000E+00 0.  1.
         21   -1    0    0  501  503 -0.00000000000E+00 -0.00000000000E+00 -0.59463682573E+02  0.59463682573E+02  0.00000000000E+00 0. -1.
          6    2    1    2  501    0 -0.10960270721E+03  0.19326937948E+03  0.86418717945E+03  0.90796150001E+03  0.16795474954E+03 0.  0.
         24    2    3    3    0    0 -0.87086216092E+02  0.10634311264E+03  0.33438285015E+03  0.37058092204E+03  0.81396945029E+02 0.  0.
         -6    2    1    2    0  502  0.10960270721E+03 -0.19326937948E+03  0.47925360202E+03  0.55440664661E+03  0.16827628556E+03 0.  0.
        -24    2    5    5    0    0  0.12005472145E+03 -0.16852530083E+03  0.47825873324E+03  0.52711940061E+03  0.79432571555E+02 0.  0.
          5    1    3    3  501    0 -0.22516491121E+02  0.86926266840E+02  0.52980432930E+03  0.53738057797E+03  0.47000000000E+01 0. -1.
        -11    1    4    4    0    0  0.20910705071E+01  0.32606648391E+02  0.14507684458E+03  0.14871064833E+03  0.00000000000E+00 0.  1.
         12    1    4    4    0    0 -0.89177286599E+02  0.73736464251E+02  0.18930600558E+03  0.22187027370E+03  0.00000000000E+00 0. -1.
         -5    1    5    5    0  502 -0.10452014235E+02 -0.24744078655E+02  0.99486877969E+00  0.27287245994E+02  0.47000000000E+01 0.  1.
         13    1    6    6    0    0  0.45050633958E+02 -0.10228252211E+02  0.89504293303E+02  0.10072336017E+03  0.00000000000E+00 0. -1.
        -14    1    6    6    0    0  0.75004087490E+02 -0.15829704862E+03  0.38875443993E+03  0.42639604045E+03  0.00000000000E+00 0.  1.
<mgrwt>
<rscale>  2 0.27866767E+03</rscale>
<asrwt>0</asrwt>
<pdfrwt beam="1">  1       21 0.21583143E+00 0.27871619E+03</pdfrwt>
<pdfrwt beam="2">  1       21 0.91482599E-02 0.27871619E+03</pdfrwt>
<totfact> 0.95018047E+03</totfact>
</mgrwt>
</event>
<event>
12    1  0.1074575E-001  0.1859245E+03  0.7546771E-02  0.1163309E+00
         21   -1    0    0  501  502  0.00000000000E+00  0.00000000000E+00  0.49954361276E+03  0.49954361276E+03  0.00000000000E+00 0. -1.
         21   -1    0    0  502  503 -0.00000000000E+00 -0.00000000000E+00 -0.10770041758E+03  0.10770041758E+03  0.00000000000E+00 0.  1.
         -6    2    1    2    0  503 -0.67138022919E+02  0.15008820884E+02  0.38314393777E+03  0.42587229557E+03  0.17272856238E+03 0.  0.
        -24    2    3    3    0    0  0.59593874902E+01  0.27031301533E+02  0.87125546399E+02  0.12068915469E+03  0.78795974914E+02 0.  0.
          6    2    1    2  501    0  0.67138022919E+02 -0.15008820884E+02  0.86992574140E+01  0.18137173476E+03  0.16759251256E+03 0.  0.
         24    2    5    5    0    0 -0.23861130955E+02 -0.20644865859E+02  0.22769135032E+02  0.88999322945E+02  0.80043000430E+02 0.  0.
          5    1    5    5  501    0  0.90999153873E+02  0.56360449752E+01 -0.14069877618E+02  0.92372411817E+02  0.47000000000E+01 0. -1.
        -11    1    6    6    0    0 -0.13787876555E+02 -0.92988106373E+01 -0.29886142343E+02  0.34201680124E+02  0.00000000000E+00 0.  1.
         12    1    6    6    0    0 -0.10073254400E+02 -0.11346055222E+02  0.52655277375E+02  0.54797642821E+02  0.00000000000E+00 0. -1.
         -5    1    3    3    0  503 -0.73097410409E+02 -0.12022480649E+02  0.29601839137E+03  0.30518314088E+03  0.47000000000E+01 0.  1.
         11    1    4    4    0    0  0.25501954801E+01  0.46354505610E+02  0.89599261836E+02  0.10091219653E+03  0.00000000000E+00 0. -1.
        -12    1    4    4    0    0  0.34091920101E+01 -0.19323204077E+02 -0.24737154368E+01  0.19776958159E+02  0.00000000000E+00 0.  1.
<mgrwt>
<rscale>  2 0.18472255E+03</rscale>
<asrwt>0</asrwt>
<pdfrwt beam="1">  1       21 0.76852862E-01 0.18592454E+03</pdfrwt>
<pdfrwt beam="2">  1       21 0.16569295E-01 0.18592454E+03</pdfrwt>
<totfact> 0.49392084E+04</totfact>
</mgrwt>
</event>
<event>
12    1  0.1074575E-001  0.1770702E+03  0.7546771E-02  0.1171153E+00
         21   -1    0    0  503  502  0.00000000000E+00  0.00000000000E+00  0.21353777360E+03  0.21353777360E+03  0.00000000000E+00 0.  1.
         21   -1    0    0  501  503 -0.00000000000E+00 -0.00000000000E+00 -0.54563213758E+03  0.54563213758E+03  0.00000000000E+00 0.  1.
          6    2    1    2  501    0 -0.23835364086E+02  0.19476255878E+02 -0.49146221215E+03  0.52238774172E+03  0.17437430314E+03 0.  0.
         24    2    3    3    0    0  0.14405447505E+02 -0.81293337015E+01 -0.11131571111E+03  0.13929782994E+03  0.82091990486E+02 0.  0.
         -6    2    1    2    0  502  0.23835364086E+02 -0.19476255878E+02  0.15936784818E+03  0.23678216946E+03  0.17239557888E+03 0.  0.
        -24    2    5    5    0    0 -0.39097154917E+02 -0.47006971167E+02  0.12671117604E+03  0.16057855756E+03  0.77404832872E+02 0.  0.
          5    1    3    3  501    0 -0.38240811591E+02  0.27605589580E+02 -0.38014650105E+03  0.38308991178E+03  0.47000000000E+01 0. -1.
        -13    1    4    4    0    0 -0.23662568219E+02 -0.21362189191E+02 -0.85964679396E+02  0.91685257078E+02  0.00000000000E+00 0.  1.
         14    1    4    4    0    0  0.38068015724E+02  0.13232855490E+02 -0.25351031712E+02  0.47612572861E+02  0.00000000000E+00 0. -1.
         -5    1    5    5    0  502  0.62932519003E+02  0.27530715288E+02  0.32656672135E+02  0.76203611904E+02  0.47000000000E+01 0.  1.
         13    1    6    6    0    0 -0.71719502560E+01 -0.26250999481E+02 -0.10800853421E+01  0.27234508047E+02  0.00000000000E+00 0. -1.
        -14    1    6    6    0    0 -0.31925204661E+02 -0.20755971686E+02  0.12779126139E+03  0.13334404951E+03  0.00000000000E+00 0.  1.
<mgrwt>
<rscale>  2 0.17658109E+03</rscale>
<asrwt>0</asrwt>
<pdfrwt beam="1">  1       21 0.32851965E-01 0.17707017E+03</pdfrwt>
<pdfrwt beam="2">  1       21 0.83943406E-01 0.17707017E+03</pdfrwt>
<totfact> 0.11116518E+04</totfact>
</mgrwt>
</event>
<event>
12    1  0.1074575E-001  0.2522345E+03  0.7546771E-02  0.1111941E+00
         21   -1    0    0  503  502  0.00000000000E+00  0.00000000000E+00  0.66763449399E+03  0.66763449399E+03  0.00000000000E+00 0.  1.
         21   -1    0    0  501  503 -0.00000000000E+00 -0.00000000000E+00 -0.31000052952E+03  0.31000052952E+03  0.00000000000E+00 0.  1.
          6    2    1    2  501    0  0.23079678920E+02  0.18163316246E+03 -0.22805328482E+03  0.34004490628E+03  0.17349051930E+03 0.  0.
         24    2    3    3    0    0  0.31599048800E+02  0.18149223650E+03 -0.12707230853E+03  0.23859616507E+03  0.82721379300E+02 0.  0.
         -6    2    1    2    0  502 -0.23079678920E+02 -0.18163316246E+03  0.58568724928E+03  0.63759011723E+03  0.17311362262E+03 0.  0.
        -24    2    5    5    0    0 -0.76609837242E+02 -0.11133492244E+03  0.43866698137E+03  0.46599649970E+03  0.80370921827E+02 0.  0.
          5    1    3    3  501    0 -0.85193698797E+01  0.14092596418E+00 -0.10098097628E+03  0.10144874121E+03  0.47000000000E+01 0. -1.
        -11    1    4    4    0    0 -0.10753200692E+02  0.10666399518E+03 -0.10447794709E+03  0.14969462455E+03  0.00000000000E+00 0.  1.
         12    1    4    4    0    0  0.42352249492E+02  0.74828241324E+02 -0.22594361446E+02  0.88901540514E+02  0.00000000000E+00 0. -1.
         -5    1    5    5    0  502  0.53530158322E+02 -0.70298240021E+02  0.14702026791E+03  0.17159361753E+03  0.47000000000E+01 0.  1.
         13    1    6    6    0    0 -0.38364689171E+02 -0.22499605690E+02  0.57183108061E+02  0.72443008489E+02  0.00000000000E+00 0. -1.
        -14    1    6    6    0    0 -0.38245148071E+02 -0.88835316752E+02  0.38148387331E+03  0.39355349121E+03  0.00000000000E+00 0.  1.
<mgrwt>
<rscale>  2 0.25216969E+03</rscale>
<asrwt>0</asrwt>
<pdfrwt beam="1">  1       21 0.10271300E+00 0.25223449E+03</pdfrwt>
<pdfrwt beam="2">  1       21 0.47692389E-01 0.25223449E+03</pdfrwt>
<totfact> 0.30934284E+03</totfact>
</mgrwt>
</event>
<event>
12    1  0.1074575E-001  0.1996941E+03  0.7546771E-02  0.1150188E+00
         21   -1    0    0  501  502  0.00000000000E+00  0.00000000000E+00  0.46883143019E+03  0.46883143019E+03  0.00000000000E+00 0. -1.
         21   -1    0    0  502  503 -0.00000000000E+00 -0.00000000000E+00 -0.12148081209E+03  0.12148081209E+03  0.00000000000E+00 0. -1.
         -6    2    1    2    0  503 -0.78029128756E+02  0.61532019215E+02  0.10938110609E+02  0.19909475762E+03  0.17217533483E+03 0.  0.
        -24    2    3    3    0    0 -0.67919246532E+02  0.88638080080E+02  0.53660545847E+02  0.14728506039E+03  0.79647357419E+02 0.  0.
          6    2    1    2  501    0  0.78029128756E+02 -0.61532019215E+02  0.33641250749E+03  0.39121748466E+03  0.17321377192E+03 0.  0.
         24    2    5    5    0    0 -0.77824563365E+01 -0.64075886424E+02  0.24875595210E+03  0.26843368646E+03  0.77529571619E+02 0.  0.
          5    1    5    5  501    0  0.85811585093E+02  0.25438672093E+01  0.87656555398E+02  0.12278379820E+03  0.47000000000E+01 0. -1.
        -13    1    6    6    0    0 -0.15031544835E+02  0.14523760385E+02  0.37799236952E+02  0.43193393823E+02  0.00000000000E+00 0.  1.
         14    1    6    6    0    0  0.72490884984E+01 -0.78599646809E+02  0.21095671514E+03  0.22524029264E+03  0.00000000000E+00 0. -1.
         -5    1    3    3    0  503 -0.10109882224E+02 -0.27106060866E+02 -0.42722435238E+02  0.51809697228E+02  0.47000000000E+01 0.  1.
         13    1    4    4    0    0 -0.51035486207E+02  0.23370863566E+02 -0.70361834302E+01  0.56571423824E+02  0.00000000000E+00 0. -1.
        -14    1    4    4    0    0 -0.16883760325E+02  0.65267216514E+02  0.60696729277E+02  0.90713636567E+02  0.00000000000E+00 0.  1.
<mgrwt>
<rscale>  2 0.19946873E+03</rscale>
<asrwt>0</asrwt>
<pdfrwt beam="1">  1       21 0.72127911E-01 0.19969413E+03</pdfrwt>
<pdfrwt beam="2">  1       21 0.18689356E-01 0.19969413E+03</pdfrwt>
<totfact> 0.45253455E+04</totfact>
</mgrwt>
</event>
<event>
12    1  0.1074575E-001  0.2890514E+03  0.7546771E-02  0.1090960E+00
         21   -1    0    0  503  502  0.00000000000E+00  0.00000000000E+00  0.42669862255E+03  0.42669862255E+03  0.00000000000E+00 0. -1.
         21   -1    0    0  501  503 -0.00000000000E+00 -0.00000000000E+00 -0.20254563007E+03  0.20254563007E+03  0.00000000000E+00 0.  1.
          6    2    1    2  501    0  0.11355704478E+02 -0.23062302706E+03  0.52390824067E+02  0.29376093301E+03  0.17388143859E+03 0.  0.
         24    2    3    3    0    0  0.59297158409E+02 -0.10529724942E+03  0.51144943576E+02  0.15949040102E+03  0.90651635573E+02 0.  0.
         -6    2    1    2    0  502 -0.11355704478E+02  0.23062302706E+03  0.17176216842E+03  0.33548331961E+03  0.17242645564E+03 0.  0.
        -24    2    5    5    0    0 -0.39017694499E+02  0.48949832826E+02  0.48347046718E+02  0.11407031760E+03  0.82195704350E+02 0.  0.
          5    1    3    3  501    0 -0.47941453930E+02 -0.12532577763E+03  0.12458804906E+01  0.13427053199E+03  0.47000000000E+01 0. -1.
        -11    1    4    4    0    0 -0.82324992524E+01 -0.33608114997E+02 -0.18145873653E+02  0.39071116803E+02  0.00000000000E+00 0.  1.
         12    1    4    4    0    0  0.67529657661E+02 -0.71689134427E+02  0.69290817229E+02  0.12041928422E+03  0.00000000000E+00 0. -1.
         -5    1    5    5    0  502  0.27661990021E+02  0.18167319423E+03  0.12341512170E+03  0.22141300201E+03  0.47000000000E+01 0.  1.
         13    1    6    6    0    0 -0.34387471495E+02 -0.15438000422E+02  0.10048562099E+02  0.39010301884E+02  0.00000000000E+00 0. -1.
        -14    1    6    6    0    0 -0.46302230044E+01  0.64387833248E+02  0.38298484619E+02  0.75060015718E+02  0.00000000000E+00 0.  1.
<mgrwt>
<rscale>  2 0.28883288E+03</rscale>
<asrwt>0</asrwt>
<pdfrwt beam="1">  1       21 0.65645942E-01 0.28905136E+03</pdfrwt>
<pdfrwt beam="2">  1       21 0.31160866E-01 0.28905136E+03</pdfrwt>
<totfact> 0.20102178E+04</totfact>
</mgrwt>
</event>
<event>
12    1  0.1074575E-001  0.2811824E+03  0.7546771E-02  0.1095141E+00
         21   -1    0    0  501  502  0.00000000000E+00  0.00000000000E+00  0.83820721506E+02  0.83820721506E+02  0.00000000000E+00 0.  1.
         21   -1    0    0  502  503 -0.00000000000E+00 -0.00000000000E+00 -0.11228600031E+04  0.11228600031E+04  0.00000000000E+00 0. -1.
         -6    2    1    2    0  503 -0.20726245679E+03 -0.76926334885E+02 -0.76186021028E+03  0.81184938877E+03  0.17260667148E+03 0.  0.
        -24    2    3    3    0    0 -0.74370727185E+02 -0.85994191602E+02 -0.48868210269E+03  0.50789082862E+03  0.78847258987E+02 0.  0.
          6    2    1    2  501    0  0.20726245679E+03  0.76926334885E+02 -0.27717907134E+03  0.39483133586E+03  0.17374740055E+03 0.  0.
         24    2    5    5    0    0  0.16791547401E+03  0.67445432527E+02 -0.11752927722E+03  0.23006416885E+03  0.79824169313E+02 0.  0.
          5    1    5    5  501    0  0.39346982784E+02  0.94809023589E+01 -0.15964979411E+03  0.16476716701E+03  0.47000000000E+01 0. -1.
        -13    1    6    6    0    0  0.88987279287E+02  0.73214173174E+02 -0.90201709787E+02  0.14634001325E+03  0.00000000000E+00 0.  1.
         14    1    6    6    0    0  0.78928194719E+02 -0.57687406470E+01 -0.27327567436E+02  0.83724155608E+02  0.00000000000E+00 0. -1.
         -5    1    3    3    0  503 -0.13289172960E+03  0.90678567164E+01 -0.27317810759E+03  0.30395856015E+03  0.47000000000E+01 0.  1.
         13    1    4    4    0    0 -0.34644891667E+00  0.11949060827E+02 -0.19160755203E+02  0.22583946100E+02  0.00000000000E+00 0. -1.
        -14    1    4    4    0    0 -0.74024278269E+02 -0.97943252429E+02 -0.46952134749E+03  0.48530688252E+03  0.00000000000E+00 0.  1.
<mgrwt>
<rscale>  2 0.28100638E+03</rscale>
<asrwt>0</asrwt>
<pdfrwt beam="1">  1       21 0.12895496E-01 0.28118241E+03</pdfrwt>
<pdfrwt beam="2">  1       21 0.17274769E+00 0.28118241E+03</pdfrwt>
<totfact> 0.99218913E+03</totfact>
</mgrwt>
</event>
<event>
12    1  0.1074575E-001  0.1926692E+03  0.7546771E-02  0.1156578E+00
         21   -1    0    0  501  502  0.00000000000E+00  0.00000000000E+00  0.25403296057E+02  0.25403296057E+02  0.00000000000E+00 0. -1.
         21   -1    0    0  502  503 -0.00000000000E+00 -0.00000000000E+00 -0.19113333932E+04  0.19113333932E+04  0.00000000000E+00 0. -1.
         -6    2    1    2    0  503  0.66909379359E+02 -0.47523871542E+02 -0.14258668983E+04  0.14388251542E+04  0.17431588940E+03 0.  0.
        -24    2    3    3    0    0 -0.32024767932E+02 -0.27830825685E+02 -0.56322958466E+03  0.57029708532E+03  0.78810277699E+02 0.  0.
          6    2    1    2  501    0 -0.66909379359E+02  0.47523871542E+02 -0.46006319885E+03  0.49791153506E+03  0.17182073913E+03 0.  0.
         24    2    5    5    0    0 -0.78179208080E+02  0.29826753204E+02 -0.16363285257E+03  0.20070245506E+03  0.80648256305E+02 0.  0.
          5    1    5    5  501    0  0.11269828721E+02  0.17697118339E+02 -0.29643034628E+03  0.29720908000E+03  0.47000000000E+01 0. -1.
        -11    1    6    6    0    0  0.79393972055E+01  0.12044056788E+02  0.56917580442E+00  0.14436664885E+02  0.00000000000E+00 0.  1.
         12    1    6    6    0    0 -0.86118605285E+02  0.17782696416E+02 -0.16420202837E+03  0.18626579018E+03  0.00000000000E+00 0. -1.
         -5    1    3    3    0  503  0.98934147291E+02 -0.19693045857E+02 -0.86263731367E+03  0.86852806892E+03  0.47000000000E+01 0.  1.
         13    1    4    4    0    0 -0.33664162755E+01 -0.51140694212E+02 -0.37401138172E+03  0.37750657877E+03  0.00000000000E+00 0. -1.
        -14    1    4    4    0    0 -0.28658351656E+02  0.23309868527E+02 -0.18921820294E+03  0.19279050655E+03  0.00000000000E+00 0.  1.
<mgrwt>
<rscale>  2 0.19210306E+03</rscale>
<asrwt>0</asrwt>
<pdfrwt beam="1">  1       21 0.39081993E-02 0.19266918E+03</pdfrwt>
<pdfrwt beam="2">  1       21 0.29405130E+00 0.19266918E+03</pdfrwt>
<totfact> 0.15046642E+04</totfact>
</mgrwt>
</event>
<event>
12    1  0.1074575E-001  0.1954391E+03  0.7546771E-02  0.1153777E+00
         21   -1    0    0  503  502  0.00000000000E+00  0.00000000000E+00  0.13700597785E+04  0.13700597785E+04  0.00000000000E+00 0. -1.
         21   -1    0    0  501  503 -0.00000000000E+00 -0.00000000000E+00 -0.40397510258E+02  0.40397510258E+02  0.00000000000E+00 0. -1.
          6    2    1    2  501    0 -0.85147021306E+02 -0.34617275541E+02  0.27018786157E+03  0.33310755176E+03  0.17178704694E+03 0.  0.
         24    2    3    3    0    0 -0.12006527366E+03  0.14570684796E+00  0.18752780943E+03  0.23676169813E+03  0.80459500504E+02 0.  0.
         -6    2    1    2    0  502  0.85147021306E+02  0.34617275541E+02  0.10594744067E+04  0.10773497370E+04  0.17247627783E+03 0.  0.
        -24    2    5    5    0    0 -0.61978121559E+01  0.46382070491E+02  0.35260862592E+03  0.36449378311E+03  0.79581188179E+02 0.  0.
          5    1    3    3  501    0  0.34918252353E+02 -0.34762982389E+02  0.82660052138E+02  0.96345853629E+02  0.47000000000E+01 0. -1.
        -13    1    4    4    0    0 -0.25772311691E+02  0.31793377185E+02  0.82605749386E+02  0.92188614885E+02  0.00000000000E+00 0.  1.
         14    1    4    4    0    0 -0.94292961969E+02 -0.31647670337E+02  0.10492206004E+03  0.14457308324E+03  0.00000000000E+00 0. -1.
         -5    1    5    5    0  502  0.91344833462E+02 -0.11764794950E+02  0.70686578075E+03  0.71285595389E+03  0.47000000000E+01 0.  1.
         13    1    6    6    0    0  0.70670737420E+01  0.64331568165E+02  0.30661562947E+03  0.31337140653E+03  0.00000000000E+00 0. -1.
        -14    1    6    6    0    0 -0.13264885898E+02 -0.17949497674E+02  0.45992996445E+02  0.51122376575E+02  0.00000000000E+00 0.  1.
<mgrwt>
<rscale>  2 0.19528692E+03</rscale>
<asrwt>0</asrwt>
<pdfrwt beam="1">  1       21 0.21077839E+00 0.19543909E+03</pdfrwt>
<pdfrwt beam="2">  1       21 0.62150026E-02 0.19543909E+03</pdfrwt>
<totfact> 0.21254984E+04</totfact>
</mgrwt>
</event>
<event>
11    1  0.1074575E-001  0.2123552E+03  0.7546771E-02  0.1140384E+00
         21   -1    0    0  501  502  0.00000000000E+00  0.00000000000E+00  0.20034614622E+03  0.20034614622E+03  0.00000000000E+00 0. -1.
         21   -1    0    0  502  503 -0.00000000000E+00 -0.00000000000E+00 -0.25309344850E+03  0.25309344850E+03  0.00000000000E+00 0.  1.
         -6    2    1    2    0  503  0.60561205065E+01 -0.11951139157E+03  0.53921008991E+02  0.21579936959E+03  0.17129577751E+03 0.  0.
          6    2    1    2  501    0 -0.60561205065E+01  0.11951139157E+03 -0.10666831127E+03  0.23764022513E+03  0.17542832912E+03 0.  0.
         24    2    4    4    0    0 -0.45944479962E+02  0.12121841295E+03 -0.36433032816E+02  0.15671384203E+03  0.80168968591E+02 0.  0.
          5    1    4    4  501    0  0.39888359455E+02 -0.17070213839E+01 -0.70235278454E+02  0.80926383099E+02  0.47000000000E+01 0. -1.
        -13    1    5    5    0    0  0.54475022262E+01  0.94094122290E+02 -0.24626063393E+02  0.97415718076E+02  0.00000000000E+00 0.  1.
         14    1    5    5    0    0 -0.51391982188E+02  0.27124290663E+02 -0.11806969423E+02  0.59298123951E+02  0.00000000000E+00 0. -1.
         -5    1    3    3    0  503  0.20894775477E+02 -0.93482520770E+02 -0.44964357082E+02  0.10592193701E+03  0.47000000000E+01 0.  1.
         13    1    3    3    0    0 -0.20777720744E+02 -0.17907476292E+02  0.31601652524E+02  0.41845618991E+02  0.00000000000E+00 0. -1.
        -14    1    3    3    0    0  0.59390657731E+01 -0.81213945071E+01  0.67283713548E+02  0.68031813586E+02  0.00000000000E+00 0.  1.
<mgrwt>
<rscale>  2 0.21149985E+03</rscale>
<asrwt>0</asrwt>
<pdfrwt beam="1">  1       21 0.30822484E-01 0.21235524E+03</pdfrwt>
<pdfrwt beam="2">  1       21 0.38937453E-01 0.21235524E+03</pdfrwt>
<totfact> 0.63714294E+04</totfact>
</mgrwt>
</event>
<event>
12    1  0.1074575E-001  0.2122816E+03  0.7546771E-02  0.1140074E+00
         21   -1    0    0  503  502  0.00000000000E+00  0.00000000000E+00  0.15773982556E+03  0.15773982556E+03  0.00000000000E+00 0.  1.
         21   -1    0    0  501  503 -0.00000000000E+00 -0.00000000000E+00 -0.28497120630E+03  0.28497120630E+03  0.00000000000E+00 0.  1.
          6    2    1    2  501    0 -0.27091193715E+02  0.12068278325E+03 -0.48105572623E+02  0.21616223362E+03  0.17062736644E+03 0.  0.
         24    2    3    3    0    0  0.24247686361E+02  0.12970688264E+03 -0.54044038756E+02  0.16348899224E+03  0.79975413477E+02 0.  0.
         -6    2    1    2    0  502  0.27091193715E+02 -0.12068278325E+03 -0.79125808120E+02  0.22654879824E+03  0.17252593290E+03 0.  0.
        -24    2    5    5    0    0 -0.37744663346E+02 -0.10547684126E+03 -0.24159297265E+02  0.14007153910E+03  0.80537821972E+02 0.  0.
          5    1    3    3  501    0 -0.51338880076E+02 -0.90240993956E+01  0.59384661327E+01  0.52673241379E+02  0.47000000000E+01 0. -1.
        -13    1    4    4    0    0 -0.11320180370E+02  0.98502644056E+02 -0.11421756960E+02  0.99806682651E+02  0.00000000000E+00 0.  1.
         14    1    4    4    0    0  0.35567866731E+02  0.31204238588E+02 -0.42622281796E+02  0.63682309593E+02  0.00000000000E+00 0. -1.
         -5    1    5    5    0  502  0.64835857062E+02 -0.15205941990E+02 -0.54966510855E+02  0.86477259140E+02  0.47000000000E+01 0.  1.
         13    1    6    6    0    0  0.60036084585E+01  0.66299593450E+01 -0.17372478376E+02  0.19539771758E+02  0.00000000000E+00 0. -1.
        -14    1    6    6    0    0 -0.43748271805E+02 -0.11210680060E+03 -0.67868188888E+01  0.12053176734E+03  0.00000000000E+00 0.  1.
<mgrwt>
<rscale>  2 0.21189549E+03</rscale>
<asrwt>0</asrwt>
<pdfrwt beam="1">  1       21 0.24267666E-01 0.21228157E+03</pdfrwt>
<pdfrwt beam="2">  1       21 0.43841724E-01 0.21228157E+03</pdfrwt>
<totfact> 0.79464041E+04</totfact>
</mgrwt>
</event>
<event>
12    1  0.1074575E-001  0.2107820E+03  0.7546771E-02  0.1141333E+00
         21   -1    0    0  503  502  0.00000000000E+00  0.00000000000E+00  0.38875608624E+02  0.38875608624E+02  0.00000000000E+00 0.  1.
         21   -1    0    0  501  503 -0.00000000000E+00 -0.00000000000E+00 -0.11325437354E+04  0.11325437354E+04  0.00000000000E+00 0. -1.
          6    2    1    2  501    0  0.39825266921E+02  0.11321574304E+03 -0.55229425204E+03  0.59045917117E+03  0.17090709649E+03 0.  0.
         24    2    3    3    0    0  0.61352537042E+02  0.86424224176E+01 -0.24282027501E+03  0.26305233679E+03  0.79975125301E+02 0.  0.
         -6    2    1    2    0  502 -0.39825266921E+02 -0.11321574304E+03 -0.54137387475E+03  0.58096017286E+03  0.17327779383E+03 0.  0.
        -24    2    5    5    0    0 -0.75567687783E+02 -0.26059984503E+02 -0.23913096720E+03  0.26434287697E+03  0.79397348200E+02 0.  0.
          5    1    3    3  501    0 -0.21527270121E+02  0.10457332062E+03 -0.30947397702E+03  0.32740683438E+03  0.47000000000E+01 0. -1.
        -11    1    4    4    0    0  0.13535936826E+02  0.32461889041E+01  0.15349339863E+01  0.14004119055E+02  0.00000000000E+00 0.  1.
         12    1    4    4    0    0  0.47816600216E+02  0.53962335136E+01 -0.24435520900E+03  0.24904821774E+03  0.00000000000E+00 0. -1.
         -5    1    5    5    0  502  0.35742420862E+02 -0.87155758536E+02 -0.30224290754E+03  0.31661729589E+03  0.47000000000E+01 0.  1.
         13    1    6    6    0    0 -0.27437499412E+02 -0.88495376986E+01 -0.19407663662E+03  0.19620619657E+03  0.00000000000E+00 0. -1.
        -14    1    6    6    0    0 -0.48130188371E+02 -0.17210446804E+02 -0.45054330588E+02  0.68136680404E+02  0.00000000000E+00 0.  1.
<mgrwt>
<rscale>  2 0.21029418E+03</rscale>
<asrwt>0</asrwt>
<pdfrwt beam="1">  1       21 0.59808629E-02 0.21078200E+03</pdfrwt>
<pdfrwt beam="2">  1       21 0.17423750E+00 0.21078200E+03</pdfrwt>
<totfact> 0.39074214E+04</totfact>
</mgrwt>
</event>
<event>
12    1  0.1074575E-001  0.1727889E+03  0.7546771E-02  0.1175093E+00
         21   -1    0    0  503  502  0.00000000000E+00  0.00000000000E+00  0.92892114598E+02  0.92892114598E+02  0.00000000000E+00 0.  1.
         21   -1    0    0  501  503 -0.00000000000E+00 -0.00000000000E+00 -0.45805310836E+03  0.45805310836E+03  0.00000000000E+00 0.  1.
          6    2    1    2  501    0  0.75220227232E+01 -0.68493512734E+00 -0.33370636417E+03  0.37578708558E+03  0.17262371287E+03 0.  0.
         24    2    3    3    0    0 -0.72312779923E+01 -0.45452962900E+02 -0.99334367849E+02  0.13667590046E+03  0.81821280318E+02 0.  0.
         -6    2    1    2    0  502 -0.75220227232E+01  0.68493512734E+00 -0.31454629592E+02  0.17515813737E+03  0.17214508242E+03 0.  0.
        -24    2    5    5    0    0  0.52005585298E+02 -0.30829170030E+02 -0.35756089514E+02  0.10750263133E+03  0.81383654245E+02 0.  0.
          5    1    3    3  501    0  0.14753300716E+02  0.44768027773E+02 -0.23437199632E+03  0.23911118512E+03  0.47000000000E+01 0. -1.
        -13    1    4    4    0    0  0.12821250981E+02  0.20600860253E+02 -0.32809569891E+02  0.40807447804E+02  0.00000000000E+00 0.  1.
         14    1    4    4    0    0 -0.20052528973E+02 -0.66053823153E+02 -0.66524797959E+02  0.95868452657E+02  0.00000000000E+00 0. -1.
         -5    1    5    5    0  502 -0.59527608021E+02  0.31514105157E+02  0.43014599216E+01  0.67655506044E+02  0.47000000000E+01 0.  1.
         13    1    6    6    0    0  0.47749029831E+02 -0.28930700092E+02 -0.60499894114E+02  0.82323705246E+02  0.00000000000E+00 0. -1.
        -14    1    6    6    0    0  0.42565554674E+01 -0.18984699378E+01  0.24743804600E+02  0.25178926082E+02  0.00000000000E+00 0.  1.
<mgrwt>
<rscale>  2 0.17266921E+03</rscale>
<asrwt>0</asrwt>
<pdfrwt beam="1">  1       21 0.14291095E-01 0.17278888E+03</pdfrwt>
<pdfrwt beam="2">  1       21 0.70469708E-01 0.17278888E+03</pdfrwt>
<totfact> 0.78872965E+04</totfact>
</mgrwt>
</event>
<event>
12    1  0.1074575E-001  0.1906327E+03  0.7546771E-02  0.1157996E+00
         21   -1    0    0  503  502  0.00000000000E+00  0.00000000000E+00  0.15969493860E+03  0.15969493860E+03  0.00000000000E+00 0.  1.
         21   -1    0    0  501  503 -0.00000000000E+00 -0.00000000000E+00 -0.22871116017E+03  0.22871116017E+03  0.00000000000E+00 0.  1.
          6    2    1    2  501    0  0.61818490973E+02 -0.53532503994E+02 -0.51218569658E+02  0.19694442194E+03  0.17168724078E+03 0.  0.
         24    2    3    3    0    0  0.15527186035E+01 -0.89093628161E+02 -0.30846658640E+02  0.12391249995E+03  0.80390955842E+02 0.  0.
         -6    2    1    2    0  502 -0.61818490973E+02  0.53532503994E+02 -0.17797651917E+02  0.19146167683E+03  0.17220209776E+03 0.  0.
        -24    2    5    5    0    0 -0.12146955777E+02 -0.30943683705E+02 -0.37204025627E+02  0.91450752240E+02  0.76642289022E+02 0.  0.
          5    1    3    3  501    0  0.60265772370E+02  0.35561124167E+02 -0.20371911018E+02  0.73031921992E+02  0.47000000000E+01 0. -1.
        -13    1    4    4    0    0  0.30697159014E+02 -0.42184563750E+02  0.12569528788E+02  0.53664197043E+02  0.00000000000E+00 0.  1.
         14    1    4    4    0    0 -0.29144440411E+02 -0.46909064410E+02 -0.43416187428E+02  0.70248302908E+02  0.00000000000E+00 0. -1.
         -5    1    5    5    0  502 -0.49671535197E+02  0.84476187700E+02  0.19406373710E+02  0.10001092459E+03  0.47000000000E+01 0.  1.
         13    1    6    6    0    0 -0.10472755954E+02 -0.54190955369E+02 -0.10816290041E+02  0.56243491991E+02  0.00000000000E+00 0. -1.
        -14    1    6    6    0    0 -0.16741998227E+01  0.23247271664E+02 -0.26387735586E+02  0.35207260249E+02  0.00000000000E+00 0.  1.
<mgrwt>
<rscale>  2 0.19051633E+03</rscale>
<asrwt>0</asrwt>
<pdfrwt beam="1">  1       21 0.24568452E-01 0.19063268E+03</pdfrwt>
<pdfrwt beam="2">  1       21 0.35186333E-01 0.19063268E+03</pdfrwt>
<totfact> 0.12201897E+05</totfact>
</mgrwt>
</event>
<event>
12    1  0.1074575E-001  0.2215097E+03  0.7546771E-02  0.1133025E+00
         21   -1    0    0  501  502  0.00000000000E+00  0.00000000000E+00  0.22949820568E+03  0.22949820568E+03  0.00000000000E+00 0. -1.
         21   -1    0    0  502  503 -0.00000000000E+00 -0.00000000000E+00 -0.49452522751E+03  0.49452522751E+03  0.00000000000E+00 0.  1.
         -6    2    1    2    0  503 -0.12731926800E+03 -0.53868685125E+02 -0.40611018906E+03  0.46259275260E+03  0.17307379312E+03 0.  0.
        -24    2    3    3    0    0 -0.60963429100E+02  0.45506320041E+01 -0.93919701367E+02  0.13809174402E+03  0.80691830576E+02 0.  0.
          6    2    1    2  501    0  0.12731926800E+03  0.53868685125E+02  0.14108316723E+03  0.26143068059E+03  0.17125860398E+03 0.  0.
         24    2    5    5    0    0  0.14323501504E+03  0.11069256653E+02  0.76256736428E+02  0.18199732355E+03  0.81664790162E+02 0.  0.
          5    1    5    5  501    0 -0.15915747035E+02  0.42799428472E+02  0.64826430799E+02  0.79433357045E+02  0.47000000000E+01 0. -1.
        -13    1    6    6    0    0  0.66736203582E+02  0.34532374197E+02  0.57697550170E+01  0.75362429692E+02  0.00000000000E+00 0.  1.
         14    1    6    6    0    0  0.76498811455E+02 -0.23463117545E+02  0.70486981411E+02  0.10663489385E+03  0.00000000000E+00 0. -1.
         -5    1    3    3    0  503 -0.66355838902E+02 -0.58419317129E+02 -0.31219048769E+03  0.32450100859E+03  0.47000000000E+01 0.  1.
         13    1    4    4    0    0 -0.57677698654E+02  0.36253330889E+02 -0.53524103301E+02  0.86636311999E+02  0.00000000000E+00 0. -1.
        -14    1    4    4    0    0 -0.32857304468E+01 -0.31702698885E+02 -0.40395598066E+02  0.51455432019E+02  0.00000000000E+00 0.  1.
<mgrwt>
<rscale>  2 0.22115506E+03</rscale>
<asrwt>0</asrwt>
<pdfrwt beam="1">  1       21 0.35307417E-01 0.22150975E+03</pdfrwt>
<pdfrwt beam="2">  1       21 0.76080803E-01 0.22150975E+03</pdfrwt>
<totfact> 0.11688025E+04</totfact>
</mgrwt>
</event>
<event>
12    1  0.1074575E-001  0.2122852E+03  0.7546771E-02  0.1140008E+00
         21   -1    0    0  501  502  0.00000000000E+00  0.00000000000E+00  0.27585384756E+02  0.27585384756E+02  0.00000000000E+00 0.  1.
         21   -1    0    0  502  503 -0.00000000000E+00 -0.00000000000E+00 -0.16570574550E+04  0.16570574550E+04  0.00000000000E+00 0.  1.
         -6    2    1    2    0  503 -0.97664965905E+02  0.76228319714E+02 -0.69854645197E+03  0.73009051368E+03  0.17238274366E+03 0.  0.
        -24    2    3    3    0    0 -0.26425965876E+02 -0.14093784994E+02 -0.42822264765E+03  0.43627062513E+03  0.77848930271E+02 0.  0.
          6    2    1    2  501    0  0.97664965905E+02 -0.76228319714E+02 -0.93092561825E+03  0.95455232605E+03  0.17087549317E+03 0.  0.
         24    2    5    5    0    0  0.12211196587E+03 -0.79940026842E+02 -0.59969157734E+03  0.62236335508E+03  0.80027605971E+02 0.  0.
          5    1    5    5  501    0 -0.24446999962E+02  0.37117071284E+01 -0.33123404091E+03  0.33218897097E+03  0.47000000000E+01 0. -1.
        -11    1    6    6    0    0  0.37172541216E+02 -0.11764522964E+02 -0.31745638817E+03  0.31984177371E+03  0.00000000000E+00 0.  1.
         12    1    6    6    0    0  0.84939424652E+02 -0.68175503878E+02 -0.28223518917E+03  0.30252158137E+03  0.00000000000E+00 0. -1.
         -5    1    3    3    0  503 -0.71239000029E+02  0.90322104708E+02 -0.27032380432E+03  0.29381988855E+03  0.47000000000E+01 0.  1.
         13    1    4    4    0    0 -0.13760503730E+02  0.11139083736E+02 -0.37984356387E+03  0.38025591864E+03  0.00000000000E+00 0. -1.
        -14    1    4    4    0    0 -0.12665462146E+02 -0.25232868730E+02 -0.48379083787E+02  0.56014706495E+02  0.00000000000E+00 0.  1.
<mgrwt>
<rscale>  2 0.21197903E+03</rscale>
<asrwt>0</asrwt>
<pdfrwt beam="1">  1       21 0.42439037E-02 0.21228522E+03</pdfrwt>
<pdfrwt beam="2">  1       21 0.25493201E+00 0.21228522E+03</pdfrwt>
<totfact> 0.21704672E+04</totfact>
</mgrwt>
</event>
<event>
11    1  0.1074575E-001  0.1979693E+03  0.7546771E-02  0.1151636E+00
         21   -1    0    0  503  502  0.00000000000E+00  0.00000000000E+00  0.20065843666E+04  0.20065843666E+04  0.00000000000E+00 0. -1.
         21   -1    0    0  501  503 -0.00000000000E+00 -0.00000000000E+00 -0.19578680379E+02  0.19578680379E+02  0.00000000000E+00 0.  1.
          6    2    1    2  501    0  0.85884913105E+02 -0.38530258530E+02  0.10728588728E+04  0.10908255488E+04  0.17324381072E+03 0.  0.
         -6    2    1    2    0  502 -0.85884913105E+02  0.38530258530E+02  0.91414681339E+03  0.93533749810E+03  0.17415808852E+03 0.  0.
        -24    2    4    4    0    0 -0.47427419516E+02 -0.45725219520E+02  0.43600657406E+03  0.44828704603E+03  0.80742722222E+02 0.  0.
          5    1    3    3  501    0  0.69892465727E+01  0.62683746185E+02  0.25801676976E+03  0.26565550075E+03  0.47000000000E+01 0. -1.
        -13    1    3    3    0    0  0.23862543533E+02 -0.47233924297E+02  0.35056964570E+03  0.35454131082E+03  0.00000000000E+00 0.  1.
         14    1    3    3    0    0  0.55033122999E+02 -0.53980080417E+02  0.46427245733E+03  0.47062873727E+03  0.00000000000E+00 0. -1.
         -5    1    4    4    0  502 -0.38457493589E+02  0.84255478049E+02  0.47814023933E+03  0.48705045207E+03  0.47000000000E+01 0.  1.
         13    1    5    5    0    0 -0.32399560141E+02  0.16860656538E+02  0.21570498574E+03  0.21877535079E+03  0.00000000000E+00 0. -1.
        -14    1    5    5    0    0 -0.15027859375E+02 -0.62585876057E+02  0.22030158831E+03  0.22951169524E+03  0.00000000000E+00 0.  1.
<mgrwt>
<rscale>  2 0.19776802E+03</rscale>
<asrwt>0</asrwt>
<pdfrwt beam="1">  1       21 0.30870512E+00 0.19796929E+03</pdfrwt>
<pdfrwt beam="2">  1       21 0.30121063E-02 0.19796929E+03</pdfrwt>
<totfact> 0.19012988E+04</totfact>
</mgrwt>
</event>
<event>
12    1  0.1074575E-001  0.1733545E+03  0.7546771E-02  0.1174631E+00
         21   -1    0    0  501  502  0.00000000000E+00  0.00000000000E+00  0.73169245508E+03  0.73169245508E+03  0.00000000000E+00 0.  1.
         21   -1    0    0  502  503 -0.00000000000E+00 -0.00000000000E+00 -0.52095296405E+02  0.52095296405E+02  0.00000000000E+00 0.  1.
         -6    2    1    2    0  503 -0.83207483403E+00 -0.11182197496E+02  0.15701804594E+03  0.23320560661E+03  0.17205944994E+03 0.  0.
        -24    2    3    3    0    0  0.64718438057E+02 -0.15575758953E+02  0.10974572122E+03  0.15213196227E+03  0.81663517712E+02 0.  0.
          6    2    1    2  501    0  0.83207483403E+00  0.11182197496E+02  0.52257911274E+03  0.55058214488E+03  0.17299143130E+03 0.  0.
         24    2    5    5    0    0  0.59096389341E+02 -0.15553014396E+02  0.23484203163E+03  0.25575300835E+03  0.80774636938E+02 0.  0.
          5    1    5    5  501    0 -0.58264314507E+02  0.26735211892E+02  0.28773708111E+03  0.29482913653E+03  0.47000000000E+01 0. -1.
        -11    1    6    6    0    0  0.20964804756E+02  0.21560430210E+02  0.16621468277E+03  0.16891327940E+03  0.00000000000E+00 0.  1.
         12    1    6    6    0    0  0.38131584585E+02 -0.37113444606E+02  0.68627348862E+02  0.86839728957E+02  0.00000000000E+00 0. -1.
         -5    1    3    3    0  503 -0.65550512891E+02  0.43935614570E+01  0.47272324720E+02  0.81073644343E+02  0.47000000000E+01 0.  1.
         13    1    4    4    0    0 -0.54680849111E+01  0.23671958986E+02  0.32944600287E+02  0.40934194543E+02  0.00000000000E+00 0. -1.
        -14    1    4    4    0    0  0.70186522968E+02 -0.39247717939E+02  0.76801120933E+02  0.11119776772E+03  0.00000000000E+00 0.  1.
<mgrwt>
<rscale>  2 0.17312149E+03</rscale>
<asrwt>0</asrwt>
<pdfrwt beam="1">  1       21 0.11256806E+00 0.17335446E+03</pdfrwt>
<pdfrwt beam="2">  1       21 0.80146615E-02 0.17335446E+03</pdfrwt>
<totfact> 0.74542634E+04</totfact>
</mgrwt>
</event>
<event>
11    1  0.1074575E-001  0.2005423E+03  0.7546771E-02  0.1149537E+00
         21   -1    0    0  503  502  0.00000000000E+00  0.00000000000E+00  0.39223306669E+03  0.39223306669E+03  0.00000000000E+00 0. -1.
         21   -1    0    0  501  503 -0.00000000000E+00 -0.00000000000E+00 -0.21864186977E+03  0.21864186977E+03  0.00000000000E+00 0. -1.
          6    2    1    2  501    0 -0.40493646507E+02  0.92212973436E+02 -0.13625286067E+03  0.24245010835E+03  0.17341927551E+03 0.  0.
         24    2    3    3    0    0  0.38493016722E+02  0.23596128321E+02 -0.85992699110E+02  0.12628067070E+03  0.80706715242E+02 0.  0.
         -6    2    1    2    0  502  0.40493646507E+02 -0.92212973436E+02  0.30984405759E+03  0.36842482811E+03  0.17201902821E+03 0.  0.
          5    1    3    3  501    0 -0.78986663229E+02  0.68616845115E+02 -0.50260161563E+02  0.11616943764E+03  0.47000000000E+01 0. -1.
        -11    1    4    4    0    0  0.16677690399E+02 -0.30157746204E+02 -0.31529573510E+02  0.46709196298E+02  0.00000000000E+00 0.  1.
         12    1    4    4    0    0  0.21815326323E+02  0.53753874524E+02 -0.54463125600E+02  0.79571474406E+02  0.00000000000E+00 0. -1.
         -5    1    5    5    0  502  0.33152929313E+02 -0.59058010091E+02  0.56320295326E+02  0.88210152157E+02  0.47000000000E+01 0.  1.
         13    1    5    5    0    0  0.58908507752E+02 -0.58183155773E+01  0.10341741488E+03  0.11916050848E+03  0.00000000000E+00 0. -1.
        -14    1    5    5    0    0 -0.51567790558E+02 -0.27336647768E+02  0.15010634739E+03  0.16105416747E+03  0.00000000000E+00 0.  1.
<mgrwt>
<rscale>  2 0.20023920E+03</rscale>
<asrwt>0</asrwt>
<pdfrwt beam="1">  1       21 0.60343548E-01 0.20054230E+03</pdfrwt>
<pdfrwt beam="2">  1       21 0.33637211E-01 0.20054230E+03</pdfrwt>
<totfact> 0.21688687E+04</totfact>
</mgrwt>
</event>
<event>
12    1  0.1074575E-001  0.1748353E+03  0.7546771E-02  0.1172978E+00
         21   -1    0    0  501  502  0.00000000000E+00  0.00000000000E+00  0.33189907963E+03  0.33189907963E+03  0.00000000000E+00 0. -1.
         21   -1    0    0  502  503 -0.00000000000E+00 -0.00000000000E+00 -0.15202794570E+03  0.15202794570E+03  0.00000000000E+00 0. -1.
         -6    2    1    2    0  503  0.11782660869E+02 -0.20559868943E+02 -0.62245277339E+02  0.18528386187E+03  0.17289909084E+03 0.  0.
        -24    2    3    3    0    0 -0.11589211772E+02 -0.69464681057E+02 -0.73403273159E+02  0.12974544320E+03  0.80536872151E+02 0.  0.
          6    2    1    2  501    0 -0.11782660869E+02  0.20559868943E+02  0.24211641127E+03  0.29864316345E+03  0.17322194769E+03 0.  0.
         24    2    5    5    0    0 -0.16418238585E+02  0.58866320815E+02  0.65140567399E+02  0.11744875915E+03  0.76263459275E+02 0.  0.
          5    1    5    5  501    0  0.46355777164E+01 -0.38306451871E+02  0.17697584387E+03  0.18119440430E+03  0.47000000000E+01 0. -1.
        -11    1    6    6    0    0  0.15726369736E+02  0.60817015934E+02  0.29453802544E+02  0.69379785359E+02  0.00000000000E+00 0.  1.
         12    1    6    6    0    0 -0.32144608321E+02 -0.19506951198E+01  0.35686764855E+02  0.48068973792E+02  0.00000000000E+00 0. -1.
         -5    1    3    3    0  503  0.23371872641E+02  0.48904812114E+02  0.11157995820E+02  0.55538418679E+02  0.47000000000E+01 0.  1.
         11    1    4    4    0    0  0.38318689998E+01 -0.69823855536E+02 -0.17962898498E+02  0.72199167200E+02  0.00000000000E+00 0. -1.
        -12    1    4    4    0    0 -0.15421080772E+02  0.35917447875E+00 -0.55440374661E+02  0.57546275996E+02  0.00000000000E+00 0.  1.
<mgrwt>
<rscale>  2 0.17475528E+03</rscale>
<asrwt>0</asrwt>
<pdfrwt beam="1">  1       21 0.51061397E-01 0.17483530E+03</pdfrwt>
<pdfrwt beam="2">  1       21 0.23388915E-01 0.17483530E+03</pdfrwt>
<totfact> 0.63201628E+04</totfact>
</mgrwt>
</event>
<event>
12    1  0.1074575E-001  0.2144472E+03  0.7546771E-02  0.1138332E+00
         21   -1    0    0  501  502  0.00000000000E+00  0.00000000000E+00  0.17762487126E+03  0.17762487126E+03  0.00000000000E+00 0. -1.
         21   -1    0    0  502  503 -0.00000000000E+00 -0.00000000000E+00 -0.28277251866E+03  0.28277251866E+03  0.00000000000E+00 0. -1.
         -6    2    1    2    0  503  0.29339360526E+02 -0.12044244857E+03 -0.12166207724E+03  0.24655476159E+03  0.17498687931E+03 0.  0.
        -24    2    3    3    0    0  0.37898991366E+02 -0.34938110642E+02  0.30704134590E+01  0.95014195006E+02  0.79757536898E+02 0.  0.
          6    2    1    2  501    0 -0.29339360526E+02  0.12044244857E+03  0.16514429837E+02  0.21384262833E+03  0.17346112476E+03 0.  0.
         24    2    5    5    0    0  0.40096399410E+02  0.10257767491E+03 -0.12936785966E+02  0.13618994642E+03  0.79059727026E+02 0.  0.
          5    1    5    5  501    0 -0.69435759936E+02  0.17864773655E+02  0.29451215803E+02  0.77652681911E+02  0.47000000000E+01 0. -1.
        -11    1    6    6    0    0  0.23204768917E+02  0.47472576728E+02 -0.45727349479E+02  0.69879162359E+02  0.00000000000E+00 0.  1.
         12    1    6    6    0    0  0.16891630493E+02  0.55105098187E+02  0.32790563513E+02  0.66310784058E+02  0.00000000000E+00 0. -1.
         -5    1    3    3    0  503 -0.85596308397E+01 -0.85504337928E+02 -0.12473249070E+03  0.15154056659E+03  0.47000000000E+01 0.  1.
         13    1    4    4    0    0  0.43950923283E+02 -0.14582178310E+02 -0.30386502781E+02  0.55386488722E+02  0.00000000000E+00 0. -1.
        -14    1    4    4    0    0 -0.60519319174E+01 -0.20355932332E+02  0.33456916240E+02  0.39627706284E+02  0.00000000000E+00 0.  1.
<mgrwt>
<rscale>  2 0.21413570E+03</rscale>
<asrwt>0</asrwt>
<pdfrwt beam="1">  1       21 0.27326903E-01 0.21444717E+03</pdfrwt>
<pdfrwt beam="2">  1       21 0.43503464E-01 0.21444717E+03</pdfrwt>
<totfact> 0.64221280E+04</totfact>
</mgrwt>
</event>
<event>
12    1  0.1074575E-001  0.1768739E+03  0.7546771E-02  0.1170938E+00
         21   -1    0    0  501  502  0.00000000000E+00  0.00000000000E+00  0.18765099272E+02  0.18765099272E+02  0.00000000000E+00 0. -1.
         21   -1    0    0  502  503 -0.00000000000E+00 -0.00000000000E+00 -0.17245258054E+04  0.17245258054E+04  0.00000000000E+00 0. -1.
         -6    2    1    2    0  503 -0.38786477792E+01 -0.33481356670E+02 -0.10164662185E+04  0.10317402579E+04  0.17363277670E+03 0.  0.
        -24    2    3    3    0    0 -0.19648133525E+01 -0.83879418809E+02 -0.83612678303E+03  0.84442226774E+03  0.83074373708E+02 0.  0.
          6    2    1    2  501    0  0.38786477792E+01  0.33481356670E+02 -0.68929448757E+03  0.71155064678E+03  0.17332451406E+03 0.  0.
         24    2    5    5    0    0 -0.10801586695E+02  0.88354396829E+02 -0.54612534642E+03  0.55745310365E+03  0.67660143710E+02 0.  0.
          5    1    5    5  501    0  0.14680234474E+02 -0.54873040159E+02 -0.14316914115E+03  0.15409754313E+03  0.47000000000E+01 0. -1.
        -11    1    6    6    0    0  0.21208793291E+02  0.21370977362E+02 -0.26445752873E+03  0.26616595591E+03  0.00000000000E+00 0.  1.
         12    1    6    6    0    0 -0.32010379986E+02  0.66983419467E+02 -0.28166781770E+03  0.29128714773E+03  0.00000000000E+00 0. -1.
         -5    1    3    3    0  503 -0.19138344267E+01  0.50398062139E+02 -0.18033943551E+03  0.18731799014E+03  0.47000000000E+01 0.  1.
         13    1    4    4    0    0  0.91798133203E+01 -0.52928625648E+02 -0.75458828922E+03  0.75649798058E+03  0.00000000000E+00 0. -1.
        -14    1    4    4    0    0 -0.11144626673E+02 -0.30950793161E+02 -0.81538493803E+02  0.87924287161E+02  0.00000000000E+00 0.  1.
<mgrwt>
<rscale>  2 0.17679823E+03</rscale>
<asrwt>0</asrwt>
<pdfrwt beam="1">  1       21 0.28869375E-02 0.17687393E+03</pdfrwt>
<pdfrwt beam="2">  1       21 0.26531174E+00 0.17687393E+03</pdfrwt>
<totfact> 0.36993093E+04</totfact>
</mgrwt>
</event>
<event>
12    1  0.1074575E-001  0.1837694E+03  0.7546771E-02  0.1164559E+00
         21   -1    0    0  503  502  0.00000000000E+00  0.00000000000E+00  0.38965523876E+02  0.38965523876E+02  0.00000000000E+00 0.  1.
         21   -1    0    0  501  503 -0.00000000000E+00 -0.00000000000E+00 -0.85973160864E+03  0.85973160864E+03  0.00000000000E+00 0.  1.
          6    2    1    2  501    0 -0.22228540738E+02 -0.61604076167E+02 -0.40397730180E+03  0.44319293526E+03  0.17009746402E+03 0.  0.
         24    2    3    3    0    0 -0.60056423958E+02 -0.46906182277E-01 -0.17161786835E+03  0.19981415591E+03  0.82862705145E+02 0.  0.
         -6    2    1    2    0  502  0.22228540738E+02  0.61604076167E+02 -0.41678878296E+03  0.45550419726E+03  0.17170327281E+03 0.  0.
        -24    2    5    5    0    0 -0.25714018458E+01  0.42653750306E+02 -0.41413527808E+03  0.42382955297E+03  0.79356832719E+02 0.  0.
          5    1    3    3  501    0  0.37827883220E+02 -0.61557169985E+02 -0.23235943345E+03  0.24337877935E+03  0.47000000000E+01 0. -1.
        -11    1    4    4    0    0  0.87983473710E+01  0.24060120345E+02 -0.71389867839E+02  0.75847304089E+02  0.00000000000E+00 0.  1.
         12    1    4    4    0    0 -0.68854771329E+02 -0.24107026527E+02 -0.10022800051E+03  0.12396685182E+03  0.00000000000E+00 0. -1.
         -5    1    5    5    0  502  0.24799942584E+02  0.18950325861E+02 -0.26535048798E+01  0.31674644284E+02  0.47000000000E+01 0.  1.
         11    1    6    6    0    0  0.15736951281E+02  0.44079324873E+02 -0.11539903098E+03  0.12452941367E+03  0.00000000000E+00 0. -1.
        -12    1    6    6    0    0 -0.18308353127E+02 -0.14255745673E+01 -0.29873624710E+03  0.29930013930E+03  0.00000000000E+00 0.  1.
<mgrwt>
<rscale>  2 0.18339336E+03</rscale>
<asrwt>0</asrwt>
<pdfrwt beam="1">  1       21 0.59946957E-02 0.18376938E+03</pdfrwt>
<pdfrwt beam="2">  1       21 0.13226641E+00 0.18376938E+03</pdfrwt>
<totfact> 0.82053777E+04</totfact>
</mgrwt>
</event>
<event>
12    1  0.1074575E-001  0.2222871E+03  0.7546771E-02  0.1132268E+00
         21   -1    0    0  501  502  0.00000000000E+00  0.00000000000E+00  0.43007802496E+03  0.43007802496E+03  0.00000000000E+00 0.  1.
         21   -1    0    0  502  503 -0.00000000000E+00 -0.00000000000E+00 -0.21796934785E+03  0.21796934785E+03  0.00000000000E+00 0. -1.
         -6    2    1    2    0  503  0.11540246186E+03 -0.78320855364E+02 -0.11706223889E+03  0.25085087627E+03  0.17254190727E+03 0.  0.
        -24    2    3    3    0    0 -0.83346585798E+01 -0.31477087364E+02 -0.66412730530E+02  0.10910223864E+03  0.80202083118E+02 0.  0.
          6    2    1    2  501    0 -0.11540246186E+03  0.78320855364E+02  0.32917091601E+03  0.39719649654E+03  0.17308864877E+03 0.  0.
         24    2    5    5    0    0 -0.54443900243E+02  0.91074004893E+02  0.29920047819E+03  0.32792235851E+03  0.82179890597E+02 0.  0.
          5    1    5    5  501    0 -0.60958561616E+02 -0.12753149529E+02  0.29970437813E+02  0.69274138030E+02  0.47000000000E+01 0. -1.
        -11    1    6    6    0    0 -0.20812247143E+02  0.58241157102E+02  0.67695411239E+02  0.91694333056E+02  0.00000000000E+00 0.  1.
         12    1    6    6    0    0 -0.33631653100E+02  0.32832847791E+02  0.23150506695E+03  0.23622802545E+03  0.00000000000E+00 0. -1.
         -5    1    3    3    0  503  0.12373712044E+03 -0.46843768000E+02 -0.50649508364E+02  0.14174863764E+03  0.47000000000E+01 0.  1.
         11    1    4    4    0    0  0.28140311758E+02  0.88444242773E+01 -0.36888438794E+02  0.47231958495E+02  0.00000000000E+00 0. -1.
        -12    1    4    4    0    0 -0.36474970338E+02 -0.40321511642E+02 -0.29524291736E+02  0.61870280141E+02  0.00000000000E+00 0.  1.
<mgrwt>
<rscale>  2 0.22218068E+03</rscale>
<asrwt>0</asrwt>
<pdfrwt beam="1">  1       21 0.66165850E-01 0.22228712E+03</pdfrwt>
<pdfrwt beam="2">  1       21 0.33533746E-01 0.22228712E+03</pdfrwt>
<totfact> 0.17643150E+04</totfact>
</mgrwt>
</event>
<event>
12    1  0.1074575E-001  0.1824007E+03  0.7546771E-02  0.1165881E+00
         21   -1    0    0  501  502  0.00000000000E+00  0.00000000000E+00  0.37560250338E+03  0.37560250338E+03  0.00000000000E+00 0. -1.
         21   -1    0    0  502  503 -0.00000000000E+00 -0.00000000000E+00 -0.10723073581E+03  0.10723073581E+03  0.00000000000E+00 0. -1.
         -6    2    1    2    0  503 -0.17931017759E+02  0.55001215442E+02  0.31914528092E+02  0.18517168941E+03  0.17298370547E+03 0.  0.
        -24    2    3    3    0    0 -0.50454248779E+02  0.57935795648E+02 -0.29576063337E+02  0.11538949146E+03  0.80856685434E+02 0.  0.
          6    2    1    2  501    0  0.17931017759E+02 -0.55001215442E+02  0.23645723947E+03  0.29766154978E+03  0.17130007887E+03 0.  0.
         24    2    5    5    0    0 -0.41476691784E+02 -0.23286949497E+02  0.20138274003E+03  0.22158671078E+03  0.79265783506E+02 0.  0.
          5    1    5    5  501    0  0.59407709543E+02 -0.31714265944E+02  0.35074499444E+02  0.76074838999E+02  0.47000000000E+01 0. -1.
        -11    1    6    6    0    0 -0.27493052140E+02 -0.10627423670E+02  0.12920850787E+02  0.32183201129E+02  0.00000000000E+00 0.  1.
         12    1    6    6    0    0 -0.13983639644E+02 -0.12659525828E+02  0.18846188924E+03  0.18940350965E+03  0.00000000000E+00 0. -1.
         -5    1    3    3    0  503  0.32523231020E+02 -0.29345802067E+01  0.61490591429E+02  0.69782197954E+02  0.47000000000E+01 0.  1.
         11    1    4    4    0    0 -0.38427146909E+02  0.43160992055E+02  0.20889048618E+02  0.61448101736E+02  0.00000000000E+00 0. -1.
        -12    1    4    4    0    0 -0.12027101870E+02  0.14774803594E+02 -0.50465111955E+02  0.53941389723E+02  0.00000000000E+00 0.  1.
<mgrwt>
<rscale>  2 0.18200041E+03</rscale>
<asrwt>0</asrwt>
<pdfrwt beam="1">  1       21 0.57785000E-01 0.18240071E+03</pdfrwt>
<pdfrwt beam="2">  1       21 0.16497037E-01 0.18240071E+03</pdfrwt>
<totfact> 0.92957776E+04</totfact>
</mgrwt>
</event>
<event>
12    1  0.1074575E-001  0.2213600E+03  0.7546771E-02  0.1132994E+00
         21   -1    0    0  501  502  0.00000000000E+00  0.00000000000E+00  0.14419848871E+03  0.14419848871E+03  0.00000000000E+00 0.  1.
         21   -1    0    0  502  503 -0.00000000000E+00 -0.00000000000E+00 -0.33890576829E+03  0.33890576829E+03  0.00000000000E+00 0. -1.
         -6    2    1    2    0  503 -0.76490988525E+02 -0.11562965243E+03 -0.93212401220E+02  0.23958535171E+03  0.17173089753E+03 0.  0.
        -24    2    3    3    0    0 -0.41159727808E+02 -0.69484763954E+02 -0.12797200430E+03  0.17170333109E+03  0.81135346235E+02 0.  0.
          6    2    1    2  501    0  0.76490988525E+02  0.11562965243E+03 -0.10149487836E+03  0.24351890529E+03  0.17256639028E+03 0.  0.
         24    2    5    5    0    0  0.93712407822E+02  0.38662477641E+02 -0.10205805267E+03  0.16450668824E+03  0.79811038107E+02 0.  0.
          5    1    5    5  501    0 -0.17221419296E+02  0.76967174792E+02  0.56317431368E+00  0.79012217051E+02  0.47000000000E+01 0. -1.
        -11    1    6    6    0    0  0.30860424043E+02 -0.24330531225E+02 -0.39595405952E+02  0.55786527892E+02  0.00000000000E+00 0.  1.
         12    1    6    6    0    0  0.62851983779E+02  0.62993008865E+02 -0.62462646717E+02  0.10872016035E+03  0.00000000000E+00 0. -1.
         -5    1    3    3    0  503 -0.35331260717E+02 -0.46144888478E+02  0.34759603082E+02  0.67882020616E+02  0.47000000000E+01 0.  1.
         11    1    4    4    0    0  0.11739894583E+02  0.11586485839E+02 -0.28322275607E+02  0.32775342477E+02  0.00000000000E+00 0. -1.
        -12    1    4    4    0    0 -0.52899622391E+02 -0.81071249793E+02 -0.99649728695E+02  0.13892798862E+03  0.00000000000E+00 0.  1.
<mgrwt>
<rscale>  2 0.22119714E+03</rscale>
<asrwt>0</asrwt>
<pdfrwt beam="1">  1       21 0.22184383E-01 0.22135999E+03</pdfrwt>
<pdfrwt beam="2">  1       21 0.52139348E-01 0.22135999E+03</pdfrwt>
<totfact> 0.65492312E+04</totfact>
</mgrwt>
</event>
<event>
12    1  0.1074575E-001  0.4118380E+03  0.7546771E-02  0.1039766E+00
         21   -1    0    0  503  502  0.00000000000E+00  0.00000000000E+00  0.32018256610E+04  0.32018256610E+04  0.00000000000E+00 0. -1.
         21   -1    0    0  501  503 -0.00000000000E+00 -0.00000000000E+00 -0.84078792893E+02  0.84078792893E+02  0.00000000000E+00 0.  1.
          6    2    1    2  501    0 -0.37310217346E+03 -0.19882080951E+02  0.55945355040E+03  0.69469334921E+03  0.17323407688E+03 0.  0.
         24    2    3    3    0    0 -0.20483522847E+03  0.54506593002E+02  0.28356851915E+03  0.36305788660E+03  0.80445537282E+02 0.  0.
         -6    2    1    2    0  502  0.37310217346E+03  0.19882080951E+02  0.25582933177E+04  0.25912111047E+04  0.17294438594E+03 0.  0.
        -24    2    5    5    0    0  0.18334057959E+03 -0.54541885803E+02  0.12434945134E+04  0.12606975290E+04  0.80567172468E+02 0.  0.
          5    1    3    3  501    0 -0.16826694499E+03 -0.74388673953E+02  0.27588503125E+03  0.33163546260E+03  0.47000000000E+01 0. -1.
        -13    1    4    4    0    0 -0.17111449319E+03  0.37272559568E+02  0.27192512170E+03  0.32343884320E+03  0.00000000000E+00 0.  1.
         14    1    4    4    0    0 -0.33720735284E+02  0.17234033434E+02  0.11643397451E+02  0.39619043410E+02  0.00000000000E+00 0. -1.
         -5    1    5    5    0  502  0.18976159388E+03  0.74423966754E+02  0.13147988043E+04  0.13305135757E+04  0.47000000000E+01 0.  1.
         13    1    6    6    0    0  0.12494509874E+03 -0.38108514848E+00  0.65189998580E+03  0.66376578280E+03  0.00000000000E+00 0. -1.
        -14    1    6    6    0    0  0.58395480849E+02 -0.54160800655E+02  0.59159452762E+03  0.59693174620E+03  0.00000000000E+00 0.  1.
<mgrwt>
<rscale>  2 0.41180760E+03</rscale>
<asrwt>0</asrwt>
<pdfrwt beam="1">  1       21 0.49258847E+00 0.41183804E+03</pdfrwt>
<pdfrwt beam="2">  1       21 0.12935201E-01 0.41183804E+03</pdfrwt>
<totfact> 0.84121817E+01</totfact>
</mgrwt>
</event>
<event>
12    1  0.1074575E-001  0.3017556E+03  0.7546771E-02  0.1084576E+00
         21   -1    0    0  501  502  0.00000000000E+00  0.00000000000E+00  0.15770144586E+03  0.15770144586E+03  0.00000000000E+00 0.  1.
         21   -1    0    0  502  503 -0.00000000000E+00 -0.00000000000E+00 -0.90580246980E+03  0.90580246980E+03  0.00000000000E+00 0. -1.
         -6    2    1    2    0  503  0.12802707806E+03 -0.20889294885E+03 -0.69645834227E+03  0.75901955854E+03  0.17615127284E+03 0.  0.
        -24    2    3    3    0    0 -0.29620146683E+01 -0.62970396785E+02 -0.14269268240E+03  0.17154187413E+03  0.71353826587E+02 0.  0.
          6    2    1    2  501    0 -0.12802707806E+03  0.20889294885E+03 -0.51642681662E+02  0.30448435713E+03  0.17325287983E+03 0.  0.
         24    2    5    5    0    0 -0.10543363832E+03  0.11594680677E+03 -0.95470548610E+02  0.19916379518E+03  0.77405927227E+02 0.  0.
          5    1    5    5  501    0 -0.22593439737E+02  0.92946142080E+02  0.43827866948E+02  0.10532056194E+03  0.47000000000E+01 0. -1.
        -13    1    6    6    0    0 -0.11487546964E+03  0.11051585997E+03 -0.75423255343E+02  0.17634850801E+03  0.00000000000E+00 0.  1.
         14    1    6    6    0    0  0.94418313114E+01  0.54309467939E+01 -0.20047293267E+02  0.22815287176E+02  0.00000000000E+00 0. -1.
         -5    1    3    3    0  503  0.13098909273E+03 -0.14592255206E+03 -0.55376565988E+03  0.58747768440E+03  0.47000000000E+01 0.  1.
         13    1    4    4    0    0  0.32881580201E+02 -0.36045587690E+02 -0.89872422936E+02  0.10226209030E+03  0.00000000000E+00 0. -1.
        -14    1    4    4    0    0 -0.35843594869E+02 -0.26924809095E+02 -0.52820259461E+02  0.69279783830E+02  0.00000000000E+00 0.  1.
<mgrwt>
<rscale>  2 0.30133408E+03</rscale>
<asrwt>0</asrwt>
<pdfrwt beam="1">  1       21 0.24261761E-01 0.30175564E+03</pdfrwt>
<pdfrwt beam="2">  1       21 0.13935423E+00 0.30175564E+03</pdfrwt>
<totfact> 0.54027834E+03</totfact>
</mgrwt>
</event>
<event>
12    1  0.1074575E-001  0.1967427E+03  0.7546771E-02  0.1157405E+00
         21   -1    0    0  503  502  0.00000000000E+00  0.00000000000E+00  0.33684710947E+03  0.33684710947E+03  0.00000000000E+00 0. -1.
         21   -1    0    0  501  503 -0.00000000000E+00 -0.00000000000E+00 -0.10480202161E+03  0.10480202161E+03  0.00000000000E+00 0. -1.
          6    2    1    2  501    0  0.20300070975E+02 -0.23379728589E+02  0.14008536294E+03  0.22447569682E+03  0.17264624225E+03 0.  0.
         24    2    3    3    0    0  0.65846820554E+02 -0.27358140892E+02  0.14310260577E+03  0.17841564997E+03  0.79180279904E+02 0.  0.
         -6    2    1    2    0  502 -0.20300070975E+02  0.23379728589E+02  0.91959724919E+02  0.21717343425E+03  0.19429103157E+03 0.  0.
        -24    2    5    5    0    0  0.14458684111E+02  0.77812708514E+02  0.10146809720E+03  0.15172406831E+03  0.80377527969E+02 0.  0.
          5    1    3    3  501    0 -0.45546749579E+02  0.39784123035E+01 -0.30172428335E+01  0.46060046852E+02  0.47000000000E+01 0. -1.
        -13    1    4    4    0    0 -0.46981419381E+01  0.59345324928E+01 -0.63173948046E+01  0.98590410637E+01  0.00000000000E+00 0.  1.
         14    1    4    4    0    0  0.70544962492E+02 -0.33292673385E+02  0.14942000057E+03  0.16855660891E+03  0.00000000000E+00 0. -1.
         -5    1    5    5    0  502 -0.34758755086E+02 -0.54432979926E+02 -0.95083722824E+01  0.65449365942E+02  0.47000000000E+01 0.  1.
         13    1    6    6    0    0  0.29573775191E+02  0.25293972028E+02  0.29046998013E+01  0.39023460648E+02  0.00000000000E+00 0. -1.
        -14    1    6    6    0    0 -0.15115091080E+02  0.52518736486E+02  0.98563397400E+02  0.11270060766E+03  0.00000000000E+00 0.  1.
<mgrwt>
<rscale>  2 0.19117536E+03</rscale>
<asrwt>0</asrwt>
<pdfrwt beam="1">  1       21 0.51822632E-01 0.19674275E+03</pdfrwt>
<pdfrwt beam="2">  1       21 0.16123388E-01 0.19674275E+03</pdfrwt>
<totfact> 0.12137124E+05</totfact>
</mgrwt>
</event>
<event>
12    1  0.1074575E-001  0.2586123E+03  0.7546771E-02  0.1108194E+00
         21   -1    0    0  501  502  0.00000000000E+00  0.00000000000E+00  0.36570075131E+03  0.36570075131E+03  0.00000000000E+00 0.  1.
         21   -1    0    0  502  503 -0.00000000000E+00 -0.00000000000E+00 -0.19264975714E+03  0.19264975714E+03  0.00000000000E+00 0.  1.
         -6    2    1    2    0  503 -0.17500580205E+03 -0.77290958617E+02  0.20318565723E+02  0.25800488241E+03  0.17190913938E+03 0.  0.
        -24    2    3    3    0    0 -0.46655134530E+02 -0.23568319351E+02 -0.45646947363E+02  0.10394789705E+03  0.77390918347E+02 0.  0.
          6    2    1    2  501    0  0.17500580205E+03  0.77290958617E+02  0.15273242845E+03  0.30034562604E+03  0.17400970476E+03 0.  0.
         24    2    5    5    0    0  0.18831882849E+03  0.97781641727E+02  0.15522525752E+03  0.27533744810E+03  0.81796082597E+02 0.  0.
          5    1    5    5  501    0 -0.13313026447E+02 -0.20490683109E+02 -0.24928290737E+01  0.25008177947E+02  0.47000000000E+01 0. -1.
        -13    1    6    6    0    0  0.90547958870E+01  0.32222352500E+02  0.83583362839E+01  0.34498276981E+02  0.00000000000E+00 0.  1.
         14    1    6    6    0    0  0.17926403261E+03  0.65559289226E+02  0.14686692124E+03  0.24083917112E+03  0.00000000000E+00 0. -1.
         -5    1    3    3    0  503 -0.12835066752E+03 -0.53722639267E+02  0.65965513086E+02  0.15405698536E+03  0.47000000000E+01 0.  1.
         13    1    4    4    0    0 -0.54298924427E+02 -0.45035320618E+02 -0.32925840280E+02  0.77850268177E+02  0.00000000000E+00 0. -1.
        -14    1    4    4    0    0  0.76437898973E+01  0.21467001267E+02 -0.12721107083E+02  0.26097628873E+02  0.00000000000E+00 0.  1.
<mgrwt>
<rscale>  2 0.25825936E+03</rscale>
<asrwt>0</asrwt>
<pdfrwt beam="1">  1       21 0.56261654E-01 0.25861226E+03</pdfrwt>
<pdfrwt beam="2">  1       21 0.29638424E-01 0.25861226E+03</pdfrwt>
<totfact> 0.31409471E+04</totfact>
</mgrwt>
</event>
<event>
12    1  0.1074575E-001  0.2386979E+03  0.7546771E-02  0.1120818E+00
         21   -1    0    0  503  502  0.00000000000E+00  0.00000000000E+00  0.59374649001E+02  0.59374649001E+02  0.00000000000E+00 0. -1.
         21   -1    0    0  501  503 -0.00000000000E+00 -0.00000000000E+00 -0.96934348209E+03  0.96934348209E+03  0.00000000000E+00 0.  1.
          6    2    1    2  501    0 -0.25198906597E+02 -0.16146247497E+03 -0.51640678168E+03  0.56890476434E+03  0.17398721507E+03 0.  0.
         24    2    3    3    0    0 -0.22519700385E+02 -0.19093737117E+03 -0.46612152091E+03  0.51036721141E+03  0.79001276061E+02 0.  0.
         -6    2    1    2    0  502  0.25198906597E+02  0.16146247497E+03 -0.39356205142E+03  0.45981336676E+03  0.17271979682E+03 0.  0.
        -24    2    5    5    0    0  0.44047962725E+02  0.46973418438E+02 -0.10131420045E+03  0.14533931794E+03  0.81928170165E+02 0.  0.
          5    1    3    3  501    0 -0.26792062125E+01  0.29474896196E+02 -0.50285260772E+02  0.58537552926E+02  0.47000000000E+01 0. -1.
        -11    1    4    4    0    0 -0.25174807953E+02 -0.13659358538E+03 -0.40687138121E+03  0.42992545793E+03  0.00000000000E+00 0.  1.
         12    1    4    4    0    0  0.26551075682E+01 -0.54343785795E+02 -0.59250139691E+02  0.80441753487E+02  0.00000000000E+00 0. -1.
         -5    1    5    5    0  502 -0.18849056128E+02  0.11448905654E+03 -0.29224785097E+03  0.31447404882E+03  0.47000000000E+01 0.  1.
         11    1    6    6    0    0  0.10196868024E+01  0.40473450687E+02 -0.64854010637E+01  0.41002443813E+02  0.00000000000E+00 0. -1.
        -12    1    6    6    0    0  0.43028275923E+02  0.64999677509E+01 -0.94828799385E+02  0.10433687413E+03  0.00000000000E+00 0.  1.
<mgrwt>
<rscale>  2 0.23846696E+03</rscale>
<asrwt>0</asrwt>
<pdfrwt beam="1">  1       21 0.91345618E-02 0.23869786E+03</pdfrwt>
<pdfrwt beam="2">  1       21 0.14912976E+00 0.23869786E+03</pdfrwt>
<totfact> 0.28110897E+04</totfact>
</mgrwt>
</event>
<event>
12    1  0.1074575E-001  0.1929004E+03  0.7546771E-02  0.1156485E+00
         21   -1    0    0  501  502  0.00000000000E+00  0.00000000000E+00  0.17160138536E+03  0.17160138536E+03  0.00000000000E+00 0. -1.
         21   -1    0    0  502  503 -0.00000000000E+00 -0.00000000000E+00 -0.21436627449E+03  0.21436627449E+03  0.00000000000E+00 0. -1.
         -6    2    1    2    0  503  0.74964853412E+01  0.74484978598E+02 -0.31538861380E+02  0.19274089641E+03  0.17478599498E+03 0.  0.
        -24    2    3    3    0    0  0.24778145220E+02  0.11015613502E+03  0.46864913617E+01  0.13883863904E+03  0.80658997795E+02 0.  0.
          6    2    1    2  501    0 -0.74964853412E+01 -0.74484978598E+02 -0.11226027748E+02  0.19322676344E+03  0.17778174564E+03 0.  0.
         24    2    5    5    0    0 -0.39551363796E+02  0.79865010406E+01  0.28382426486E+02  0.96170182866E+02  0.82553300130E+02 0.  0.
          5    1    5    5  501    0  0.32054878455E+02 -0.82471479639E+02 -0.39608454233E+02  0.97056580577E+02  0.47000000000E+01 0. -1.
        -11    1    6    6    0    0 -0.17583147962E+02  0.44594147072E+02  0.70737466522E+01  0.48454545061E+02  0.00000000000E+00 0.  1.
         12    1    6    6    0    0 -0.21968215834E+02 -0.36607646032E+02  0.21308679833E+02  0.47715637805E+02  0.00000000000E+00 0. -1.
         -5    1    3    3    0  503 -0.17281659879E+02 -0.35671156420E+02 -0.36225352742E+02  0.53902257372E+02  0.47000000000E+01 0.  1.
         13    1    4    4    0    0  0.81951807038E+01  0.11368442542E+02 -0.29773654929E+02  0.32907035728E+02  0.00000000000E+00 0. -1.
        -14    1    4    4    0    0  0.16582964516E+02  0.98787692476E+02  0.34460146290E+02  0.10593160331E+03  0.00000000000E+00 0.  1.
<mgrwt>
<rscale>  2 0.19220731E+03</rscale>
<asrwt>0</asrwt>
<pdfrwt beam="1">  1       21 0.26400213E-01 0.19290038E+03</pdfrwt>
<pdfrwt beam="2">  1       21 0.32979427E-01 0.19290038E+03</pdfrwt>
<totfact> 0.12078540E+05</totfact>
</mgrwt>
</event>
<event>
12    1  0.1074575E-001  0.1926702E+03  0.7546771E-02  0.1156333E+00
         21   -1    0    0  503  502  0.00000000000E+00  0.00000000000E+00  0.23586425371E+03  0.23586425371E+03  0.00000000000E+00 0. -1.
         21   -1    0    0  501  503 -0.00000000000E+00 -0.00000000000E+00 -0.22147478631E+03  0.22147478631E+03  0.00000000000E+00 0. -1.
          6    2    1    2  501    0 -0.52150207608E+02 -0.63024526217E+02 -0.11673559442E+03  0.22428199324E+03  0.17315738051E+03 0.  0.
         24    2    3    3    0    0 -0.57626429177E+02 -0.53813806734E+01 -0.44496625074E+01  0.97858333517E+02  0.78782544670E+02 0.  0.
         -6    2    1    2    0  502  0.52150207608E+02  0.63024526217E+02  0.13112506183E+03  0.23305704678E+03  0.17444216851E+03 0.  0.
        -24    2    5    5    0    0 -0.28978265337E+02 -0.30823066910E+01  0.77719270235E+02  0.11547213680E+03  0.80276328606E+02 0.  0.
          5    1    3    3  501    0  0.54762215691E+01 -0.57643145543E+02 -0.11228593192E+03  0.12642365972E+03  0.47000000000E+01 0. -1.
        -11    1    4    4    0    0 -0.28661934018E+01 -0.34853718458E+02 -0.67997776694E+01  0.35626306731E+02  0.00000000000E+00 0.  1.
         12    1    4    4    0    0 -0.54760235775E+02  0.29472337784E+02  0.23501151620E+01  0.62232026786E+02  0.00000000000E+00 0. -1.
         -5    1    5    5    0  502  0.81128472945E+02  0.66106832908E+02  0.53405791593E+02  0.11758490998E+03  0.47000000000E+01 0.  1.
         13    1    6    6    0    0  0.11861119004E+02  0.10058424754E+02  0.70218317826E+02  0.71919887450E+02  0.00000000000E+00 0. -1.
        -14    1    6    6    0    0 -0.40839384341E+02 -0.13140731445E+02  0.75009524095E+01  0.43552249348E+02  0.00000000000E+00 0.  1.
<mgrwt>
<rscale>  2 0.19237892E+03</rscale>
<asrwt>0</asrwt>
<pdfrwt beam="1">  1       21 0.36286808E-01 0.19267020E+03</pdfrwt>
<pdfrwt beam="2">  1       21 0.34073044E-01 0.19267020E+03</pdfrwt>
<totfact> 0.60787372E+04</totfact>
</mgrwt>
</event>
<event>
12    1  0.1074575E-001  0.1918651E+03  0.7546771E-02  0.1157117E+00
         21   -1    0    0  503  502  0.00000000000E+00  0.00000000000E+00  0.60584326682E+02  0.60584326682E+02  0.00000000000E+00 0. -1.
         21   -1    0    0  501  503 -0.00000000000E+00 -0.00000000000E+00 -0.63509183530E+03  0.63509183530E+03  0.00000000000E+00 0. -1.
          6    2    1    2  501    0 -0.51301427674E+02  0.62926163026E+02 -0.36650360321E+03  0.41368720509E+03  0.17384094459E+03 0.  0.
         24    2    3    3    0    0 -0.76633977783E+02  0.24891899141E+02 -0.34319921773E+03  0.36217480166E+03  0.83021146193E+02 0.  0.
         -6    2    1    2    0  502  0.51301427674E+02 -0.62926163026E+02 -0.20800390541E+03  0.28198895689E+03  0.17222255564E+03 0.  0.
        -24    2    5    5    0    0  0.33647544250E+02 -0.10840367359E+03 -0.17837080827E+03  0.22471702647E+03  0.76145144714E+02 0.  0.
          5    1    3    3  501    0  0.25332550109E+02  0.38034263885E+02 -0.23304385482E+02  0.51512403429E+02  0.47000000000E+01 0. -1.
        -13    1    4    4    0    0 -0.50561969128E+02  0.23684525216E+02 -0.32638801336E+03  0.33112928702E+03  0.00000000000E+00 0.  1.
         14    1    4    4    0    0 -0.26072008655E+02  0.12073739250E+01 -0.16811204369E+02  0.31045514643E+02  0.00000000000E+00 0. -1.
         -5    1    5    5    0  502  0.17653883423E+02  0.45477510569E+02 -0.29633097142E+02  0.57271930417E+02  0.47000000000E+01 0.  1.
         11    1    6    6    0    0 -0.15420776374E+02 -0.25111359495E+02 -0.11039449760E+02  0.31468240667E+02  0.00000000000E+00 0. -1.
        -12    1    6    6    0    0  0.49068320624E+02 -0.83292314100E+02 -0.16733135851E+03  0.19324878581E+03  0.00000000000E+00 0.  1.
<mgrwt>
<rscale>  2 0.19149775E+03</rscale>
<asrwt>0</asrwt>
<pdfrwt beam="1">  1       21 0.93206657E-02 0.19186509E+03</pdfrwt>
<pdfrwt beam="2">  1       21 0.97706436E-01 0.19186509E+03</pdfrwt>
<totfact> 0.79690284E+04</totfact>
</mgrwt>
</event>
<event>
12    1  0.1074575E-001  0.2021787E+03  0.7546771E-02  0.1149425E+00
         21   -1    0    0  503  502  0.00000000000E+00  0.00000000000E+00  0.26930630571E+03  0.26930630571E+03  0.00000000000E+00 0. -1.
         21   -1    0    0  501  503 -0.00000000000E+00 -0.00000000000E+00 -0.18201796525E+03  0.18201796525E+03  0.00000000000E+00 0. -1.
          6    2    1    2  501    0 -0.10370051787E+03 -0.11953037632E+02 -0.55425858996E+02  0.20963837086E+03  0.17314603136E+03 0.  0.
         24    2    3    3    0    0 -0.61226706442E+00  0.20758939685E+02 -0.58545374223E+02  0.10133748310E+03  0.80065074726E+02 0.  0.
         -6    2    1    2    0  502  0.10370051787E+03  0.11953037632E+02  0.14271419945E+03  0.24168590011E+03  0.16476668070E+03 0.  0.
        -24    2    5    5    0    0  0.40639762713E+02  0.67265682741E+02  0.83162128563E+02  0.13870684060E+03  0.78405265216E+02 0.  0.
          5    1    3    3  501    0 -0.10308825080E+03 -0.32711977317E+02  0.31195152272E+01  0.10830088776E+03  0.47000000000E+01 0. -1.
        -13    1    4    4    0    0 -0.57716868984E+01  0.46221282491E+02 -0.12110295330E+02  0.48128770790E+02  0.00000000000E+00 0.  1.
         14    1    4    4    0    0  0.51594198340E+01 -0.25462342806E+02 -0.46435078893E+02  0.53208712313E+02  0.00000000000E+00 0. -1.
         -5    1    5    5    0  502  0.63060755155E+02 -0.55312645109E+02  0.59552070892E+02  0.10297905951E+03  0.47000000000E+01 0.  1.
         13    1    6    6    0    0  0.40743511144E+02  0.36868253934E+02  0.91903496637E+02  0.10707732973E+03  0.00000000000E+00 0. -1.
        -14    1    6    6    0    0 -0.10374843099E+00  0.30397428807E+02 -0.87413680740E+01  0.31629510866E+02  0.00000000000E+00 0.  1.
<mgrwt>
<rscale>  2 0.20037260E+03</rscale>
<asrwt>0</asrwt>
<pdfrwt beam="1">  1       21 0.41431739E-01 0.20217869E+03</pdfrwt>
<pdfrwt beam="2">  1       21 0.28002764E-01 0.20217869E+03</pdfrwt>
<totfact> 0.68036652E+04</totfact>
</mgrwt>
</event>
<event>
12    1  0.1074575E-001  0.1816044E+03  0.7546771E-02  0.1166857E+00
         21   -1    0    0  501  502  0.00000000000E+00  0.00000000000E+00  0.84378419390E+03  0.84378419390E+03  0.00000000000E+00 0.  1.
         21   -1    0    0  502  503 -0.00000000000E+00 -0.00000000000E+00 -0.46425095763E+02  0.46425095763E+02  0.00000000000E+00 0.  1.
         -6    2    1    2    0  503 -0.48556595126E+02  0.25049740208E+02  0.21312945186E+03  0.27840504835E+03  0.17058714865E+03 0.  0.
        -24    2    3    3    0    0  0.15900999730E+02 -0.15568890639E+02  0.17311421623E+03  0.19221941272E+03  0.80526632968E+02 0.  0.
          6    2    1    2  501    0  0.48556595126E+02 -0.25049740208E+02  0.58422964628E+03  0.61180424131E+03  0.17319040874E+03 0.  0.
         24    2    5    5    0    0 -0.66582799022E+00 -0.54740166708E+02  0.50188201721E+03  0.51126772866E+03  0.80698215530E+02 0.  0.
          5    1    5    5  501    0  0.49222423116E+02  0.29690426500E+02  0.82347629068E+02  0.10053651265E+03  0.47000000000E+01 0. -1.
        -11    1    6    6    0    0  0.28365564790E+02  0.69708104495E+01  0.16166521069E+03  0.16428279828E+03  0.00000000000E+00 0.  1.
         12    1    6    6    0    0 -0.29031392780E+02 -0.61710977157E+02  0.34021680652E+03  0.34698493038E+03  0.00000000000E+00 0. -1.
         -5    1    3    3    0  503 -0.64457594856E+02  0.40618630847E+02  0.40015235621E+02  0.86185635626E+02  0.47000000000E+01 0.  1.
         11    1    4    4    0    0  0.30913018695E+02 -0.13764130730E+02  0.22024570117E+02  0.40375087721E+02  0.00000000000E+00 0. -1.
        -12    1    4    4    0    0 -0.15012018966E+02 -0.18047599093E+01  0.15108964612E+03  0.15184432500E+03  0.00000000000E+00 0.  1.
<mgrwt>
<rscale>  2 0.18098094E+03</rscale>
<asrwt>0</asrwt>
<pdfrwt beam="1">  1       21 0.12981294E+00 0.18160438E+03</pdfrwt>
<pdfrwt beam="2">  1       21 0.71423230E-02 0.18160438E+03</pdfrwt>
<totfact> 0.63731125E+04</totfact>
</mgrwt>
</event>
<event>
12    1  0.1074575E-001  0.1933691E+03  0.7546771E-02  0.1156030E+00
         21   -1    0    0  501  502  0.00000000000E+00  0.00000000000E+00  0.19001506819E+03  0.19001506819E+03  0.00000000000E+00 0.  1.
         21   -1    0    0  502  503 -0.00000000000E+00 -0.00000000000E+00 -0.25035115844E+03  0.25035115844E+03  0.00000000000E+00 0.  1.
         -6    2    1    2    0  503  0.84131785458E+02  0.67978501554E+01 -0.13463252885E+03  0.23562158634E+03  0.17397484310E+03 0.  0.
        -24    2    3    3    0    0  0.66556216244E+02  0.15316244862E+02 -0.58652433261E+01  0.10529673259E+03  0.79929240816E+02 0.  0.
          6    2    1    2  501    0 -0.84131785458E+02 -0.67978501554E+01  0.74296438605E+02  0.20474464030E+03  0.17110242211E+03 0.  0.
         24    2    5    5    0    0 -0.70614753701E+02  0.36501123183E+02  0.10080076736E+03  0.15199920749E+03  0.81389120548E+02 0.  0.
          5    1    5    5  501    0 -0.13517031757E+02 -0.43298973338E+02 -0.26504328755E+02  0.52745432811E+02  0.47000000000E+01 0. -1.
        -11    1    6    6    0    0 -0.80310134411E+02  0.35906569284E+02  0.10844392394E+03  0.13963912076E+03  0.00000000000E+00 0.  1.
         12    1    6    6    0    0  0.96953807095E+01  0.59455389841E+00 -0.76431565820E+01  0.12360086730E+02  0.00000000000E+00 0. -1.
         -5    1    3    3    0  503  0.17575569214E+02 -0.85183947062E+01 -0.12876728553E+03  0.13032485375E+03  0.47000000000E+01 0.  1.
         13    1    4    4    0    0  0.35019817264E+02 -0.24366508532E+02  0.21412852148E+02  0.47734940833E+02  0.00000000000E+00 0. -1.
        -14    1    4    4    0    0  0.31536398980E+02  0.39682753393E+02 -0.27278095475E+02  0.57561791757E+02  0.00000000000E+00 0.  1.
<mgrwt>
<rscale>  2 0.19272081E+03</rscale>
<asrwt>0</asrwt>
<pdfrwt beam="1">  1       21 0.29233087E-01 0.19336911E+03</pdfrwt>
<pdfrwt beam="2">  1       21 0.38515563E-01 0.19336911E+03</pdfrwt>
<totfact> 0.72832179E+04</totfact>
</mgrwt>
</event>
<event>
12    1  0.1074575E-001  0.1738082E+03  0.7546771E-02  0.1174176E+00
         21   -1    0    0  503  502  0.00000000000E+00  0.00000000000E+00  0.69169138825E+02  0.69169138825E+02  0.00000000000E+00 0. -1.
         21   -1    0    0  501  503 -0.00000000000E+00 -0.00000000000E+00 -0.48859280785E+03  0.48859280785E+03  0.00000000000E+00 0. -1.
          6    2    1    2  501    0 -0.41310475002E+01 -0.14083479660E+02 -0.30314753392E+03  0.34943915832E+03  0.17318743631E+03 0.  0.
         24    2    3    3    0    0  0.50188537226E+02 -0.42003404676E+01 -0.26547759930E+03  0.28243611586E+03  0.82190459813E+02 0.  0.
         -6    2    1    2    0  502  0.41310475002E+01  0.14083479660E+02 -0.11627613511E+03  0.20832278835E+03  0.17222901788E+03 0.  0.
        -24    2    5    5    0    0 -0.41854143372E+02 -0.67146367825E+01 -0.56835542157E+01  0.86667503325E+02  0.75379690099E+02 0.  0.
          5    1    3    3  501    0 -0.54319584726E+02 -0.98831391922E+01 -0.37669934622E+02  0.67003042464E+02  0.47000000000E+01 0. -1.
        -11    1    4    4    0    0  0.44550400583E+02  0.27228545116E+02 -0.89761990482E+02  0.10384289478E+03  0.00000000000E+00 0.  1.
         12    1    4    4    0    0  0.56381366424E+01 -0.31428885583E+02 -0.17571560881E+03  0.17859322108E+03  0.00000000000E+00 0. -1.
         -5    1    5    5    0  502  0.45985190873E+02  0.20798116442E+02 -0.11059258089E+03  0.12165528503E+03  0.47000000000E+01 0.  1.
         11    1    6    6    0    0  0.11456727959E+02  0.69495295074E+01  0.21462863775E+02  0.25302314070E+02  0.00000000000E+00 0. -1.
        -12    1    6    6    0    0 -0.53310871331E+02 -0.13664166290E+02 -0.27146417990E+02  0.61365189254E+02  0.00000000000E+00 0.  1.
<mgrwt>
<rscale>  2 0.17356898E+03</rscale>
<asrwt>0</asrwt>
<pdfrwt beam="1">  1       21 0.10641406E-01 0.17380822E+03</pdfrwt>
<pdfrwt beam="2">  1       21 0.75168127E-01 0.17380822E+03</pdfrwt>
<totfact> 0.11581186E+05</totfact>
</mgrwt>
</event>
<event>
12    1  0.1074575E-001  0.1794837E+03  0.7546771E-02  0.1168555E+00
         21   -1    0    0  503  502  0.00000000000E+00  0.00000000000E+00  0.11321877616E+04  0.11321877616E+04  0.00000000000E+00 0.  1.
         21   -1    0    0  501  503 -0.00000000000E+00 -0.00000000000E+00 -0.31623838666E+02  0.31623838666E+02  0.00000000000E+00 0.  1.
          6    2    1    2  501    0  0.42833124630E+02 -0.60092183698E+01  0.36276483616E+03  0.40473786601E+03  0.17419422079E+03 0.  0.
         24    2    3    3    0    0  0.64616252716E+02 -0.98067631332E+01  0.11426645970E+03  0.15521340004E+03  0.82237114617E+02 0.  0.
         -6    2    1    2    0  502 -0.42833124630E+02  0.60092183698E+01  0.73779908678E+03  0.75907373426E+03  0.17313189863E+03 0.  0.
        -24    2    5    5    0    0  0.43509106133E+02 -0.81930667219E+01  0.41002458673E+03  0.41978786866E+03  0.78367877930E+02 0.  0.
          5    1    3    3  501    0 -0.21783128087E+02  0.37975447635E+01  0.24849837646E+03  0.24952446597E+03  0.47000000000E+01 0. -1.
        -13    1    4    4    0    0  0.17653075460E+02 -0.25563935531E+02  0.43413814447E+00  0.31069830205E+02  0.00000000000E+00 0.  1.
         14    1    4    4    0    0  0.46963177256E+02  0.15757172398E+02  0.11383232156E+03  0.12414356983E+03  0.00000000000E+00 0. -1.
         -5    1    5    5    0  502 -0.86342230763E+02  0.14202285092E+02  0.32777450005E+03  0.33928586560E+03  0.47000000000E+01 0.  1.
         13    1    6    6    0    0  0.40488946041E+02  0.29893922199E+02  0.19468676592E+03  0.20108689207E+03  0.00000000000E+00 0. -1.
        -14    1    6    6    0    0  0.30201600921E+01 -0.38086988920E+02  0.21533782081E+03  0.21870097659E+03  0.00000000000E+00 0.  1.
<mgrwt>
<rscale>  2 0.17922548E+03</rscale>
<asrwt>0</asrwt>
<pdfrwt beam="1">  1       21 0.17418270E+00 0.17948374E+03</pdfrwt>
<pdfrwt beam="2">  1       21 0.48652068E-02 0.17948374E+03</pdfrwt>
<totfact> 0.56648670E+04</totfact>
</mgrwt>
</event>
<event>
12    1  0.1074575E-001  0.2407594E+03  0.7546771E-02  0.1120113E+00
         21   -1    0    0  503  502  0.00000000000E+00  0.00000000000E+00  0.25157477426E+03  0.25157477426E+03  0.00000000000E+00 0.  1.
         21   -1    0    0  501  503 -0.00000000000E+00 -0.00000000000E+00 -0.24159301538E+03  0.24159301538E+03  0.00000000000E+00 0.  1.
          6    2    1    2  501    0 -0.15252159990E+03  0.49996384400E+02 -0.58250615277E+02  0.24292637554E+03  0.17279355562E+03 0.  0.
         24    2    3    3    0    0 -0.14302809239E+03  0.96058063938E+02 -0.46657261831E+02  0.19426118417E+03  0.76657163614E+02 0.  0.
         -6    2    1    2    0  502  0.15252159990E+03 -0.49996384400E+02  0.68232374153E+02  0.25024141410E+03  0.17945091685E+03 0.  0.
        -24    2    5    5    0    0  0.94500341281E+02 -0.98371179521E+02  0.18902020376E+02  0.15989673491E+03  0.81255621327E+02 0.  0.
          5    1    3    3  501    0 -0.94935075015E+01 -0.46061679538E+02 -0.11593353447E+02  0.48665191366E+02  0.47000000000E+01 0. -1.
        -13    1    4    4    0    0 -0.85514174293E+02  0.85259569534E+02 -0.22087282369E+01  0.12077560467E+03  0.00000000000E+00 0.  1.
         14    1    4    4    0    0 -0.57513918101E+02  0.10798494404E+02 -0.44448533594E+02  0.73485579506E+02  0.00000000000E+00 0. -1.
         -5    1    5    5    0  502  0.58021258615E+02  0.48374795120E+02  0.49330353776E+02  0.90344679190E+02  0.47000000000E+01 0.  1.
         13    1    6    6    0    0  0.49722329302E+02 -0.21248896183E+02 -0.26059709826E+02  0.60024445824E+02  0.00000000000E+00 0. -1.
        -14    1    6    6    0    0  0.44778011979E+02 -0.77122283338E+02  0.44961730203E+02  0.99872289084E+02  0.00000000000E+00 0.  1.
<mgrwt>
<rscale>  2 0.23951982E+03</rscale>
<asrwt>0</asrwt>
<pdfrwt beam="1">  1       21 0.38703812E-01 0.24075944E+03</pdfrwt>
<pdfrwt beam="2">  1       21 0.37168156E-01 0.24075944E+03</pdfrwt>
<totfact> 0.43940484E+04</totfact>
</mgrwt>
</event>
<event>
12    1  0.1074575E-001  0.1855579E+03  0.7546771E-02  0.1163001E+00
         21   -1    0    0  501  502  0.00000000000E+00  0.00000000000E+00  0.34028289959E+02  0.34028289959E+02  0.00000000000E+00 0.  1.
         21   -1    0    0  502  503 -0.00000000000E+00 -0.00000000000E+00 -0.18883812700E+04  0.18883812700E+04  0.00000000000E+00 0.  1.
         -6    2    1    2    0  503  0.57526745512E+02  0.35939246701E+02 -0.15887973811E+04  0.15995964711E+04  0.17271594145E+03 0.  0.
        -24    2    3    3    0    0 -0.31972253875E+02 -0.61409267691E+01 -0.58333712489E+03  0.58927314236E+03  0.76816007633E+02 0.  0.
          6    2    1    2  501    0 -0.57526745512E+02 -0.35939246701E+02 -0.26555559895E+03  0.32281308881E+03  0.17055074985E+03 0.  0.
         24    2    5    5    0    0 -0.32337980666E+02 -0.77914749483E+02 -0.23505761987E+03  0.26494571082E+03  0.88474243935E+02 0.  0.
          5    1    5    5  501    0 -0.25188764846E+02  0.41975502782E+02 -0.30497979071E+02  0.57867377992E+02  0.47000000000E+01 0. -1.
        -13    1    6    6    0    0 -0.95305014624E+01  0.16300706323E+01 -0.13392226885E+03  0.13427085194E+03  0.00000000000E+00 0.  1.
         14    1    6    6    0    0 -0.22807479203E+02 -0.79544820115E+02 -0.10113535103E+03  0.13067485888E+03  0.00000000000E+00 0. -1.
         -5    1    3    3    0  503  0.89498999387E+02  0.42080173471E+02 -0.10054602562E+04  0.10103233288E+04  0.47000000000E+01 0.  1.
         11    1    4    4    0    0 -0.48528768206E+02  0.14011465091E+02 -0.25837331165E+03  0.26326437410E+03  0.00000000000E+00 0. -1.
        -12    1    4    4    0    0  0.16556514331E+02 -0.20152391860E+02 -0.32496381324E+03  0.32600876825E+03  0.00000000000E+00 0.  1.
<mgrwt>
<rscale>  2 0.18505248E+03</rscale>
<asrwt>0</asrwt>
<pdfrwt beam="1">  1       21 0.52351206E-02 0.18555795E+03</pdfrwt>
<pdfrwt beam="2">  1       21 0.29052024E+00 0.18555795E+03</pdfrwt>
<totfact> 0.97039407E+03</totfact>
</mgrwt>
</event>
<event>
12    1  0.1074575E-001  0.1886397E+03  0.7546771E-02  0.1160461E+00
         21   -1    0    0  501  502  0.00000000000E+00  0.00000000000E+00  0.86050378562E+02  0.86050378562E+02  0.00000000000E+00 0. -1.
         21   -1    0    0  502  503 -0.00000000000E+00 -0.00000000000E+00 -0.46929215820E+03  0.46929215820E+03  0.00000000000E+00 0. -1.
         -6    2    1    2    0  503 -0.93948688610E+01 -0.73425094251E+02 -0.88377695964E+02  0.20530002113E+03  0.16987634769E+03 0.  0.
        -24    2    3    3    0    0  0.52422334878E+02 -0.45944602833E+02 -0.85406383564E+01  0.10054989056E+03  0.71960616065E+02 0.  0.
          6    2    1    2  501    0  0.93948688610E+01  0.73425094251E+02 -0.29486408367E+03  0.35004251563E+03  0.17350915504E+03 0.  0.
         24    2    5    5    0    0 -0.40543169984E+02 -0.90594712362E+01 -0.11860515747E+03  0.14907781641E+03  0.80194696307E+02 0.  0.
          5    1    5    5  501    0  0.49938038845E+02  0.82484565487E+02 -0.17625892620E+03  0.20096469922E+03  0.47000000000E+01 0. -1.
        -13    1    6    6    0    0  0.11564734940E+02 -0.29318868912E+02 -0.25786522252E+02  0.40722032100E+02  0.00000000000E+00 0.  1.
         14    1    6    6    0    0 -0.52107904925E+02  0.20259397675E+02 -0.92818635216E+02  0.10835578431E+03  0.00000000000E+00 0. -1.
         -5    1    3    3    0  503 -0.61817203739E+02 -0.27480491418E+02 -0.79837057608E+02  0.10475013057E+03  0.47000000000E+01 0.  1.
         13    1    4    4    0    0  0.51164787510E+01 -0.19071852521E+02  0.28543129638E+02  0.34707696019E+02  0.00000000000E+00 0. -1.
        -14    1    4    4    0    0  0.47305856127E+02 -0.26872750311E+02 -0.37083767995E+02  0.65842194540E+02  0.00000000000E+00 0.  1.
<mgrwt>
<rscale>  2 0.18780012E+03</rscale>
<asrwt>0</asrwt>
<pdfrwt beam="1">  1       21 0.13238520E-01 0.18863970E+03</pdfrwt>
<pdfrwt beam="2">  1       21 0.72198795E-01 0.18863970E+03</pdfrwt>
<totfact> 0.85265539E+04</totfact>
</mgrwt>
</event>
<event>
12    1  0.1074575E-001  0.2606272E+03  0.7546771E-02  0.1106955E+00
         21   -1    0    0  501  502  0.00000000000E+00  0.00000000000E+00  0.34945432438E+03  0.34945432438E+03  0.00000000000E+00 0. -1.
         21   -1    0    0  502  503 -0.00000000000E+00 -0.00000000000E+00 -0.19347187674E+03  0.19347187674E+03  0.00000000000E+00 0.  1.
         -6    2    1    2    0  503 -0.15306707327E+03 -0.11790782163E+03  0.75165105452E+02  0.27124954296E+03  0.17491351622E+03 0.  0.
        -24    2    3    3    0    0 -0.66452284758E+02  0.50537228215E+01  0.89847574376E+01  0.10686100484E+03  0.83048794238E+02 0.  0.
          6    2    1    2  501    0  0.15306707327E+03  0.11790782163E+03  0.80817342188E+02  0.27167665816E+03  0.17304618016E+03 0.  0.
         24    2    5    5    0    0  0.13482518285E+03  0.12681471214E+03  0.11481056443E+03  0.23180525959E+03  0.79324722023E+02 0.  0.
          5    1    5    5  501    0  0.18241890420E+02 -0.89068905127E+01 -0.33993222245E+02  0.39871398562E+02  0.47000000000E+01 0. -1.
        -13    1    6    6    0    0  0.93895740882E+02  0.88979661944E+02  0.34204210459E+02  0.13380477723E+03  0.00000000000E+00 0.  1.
         14    1    6    6    0    0  0.40929441967E+02  0.37835050197E+02  0.80606353975E+02  0.98000482367E+02  0.00000000000E+00 0. -1.
         -5    1    3    3    0  503 -0.86614788512E+02 -0.12296154445E+03  0.66180348014E+02  0.16438853812E+03  0.47000000000E+01 0.  1.
         11    1    4    4    0    0 -0.81627028373E+02 -0.77595006605E+01  0.19651483025E+02  0.84317035031E+02  0.00000000000E+00 0. -1.
        -12    1    4    4    0    0  0.15174743615E+02  0.12813223482E+02 -0.10666725587E+02  0.22543969804E+02  0.00000000000E+00 0.  1.
<mgrwt>
<rscale>  2 0.26031423E+03</rscale>
<asrwt>0</asrwt>
<pdfrwt beam="1">  1       21 0.53762204E-01 0.26062717E+03</pdfrwt>
<pdfrwt beam="2">  1       21 0.29764904E-01 0.26062717E+03</pdfrwt>
<totfact> 0.34287215E+04</totfact>
</mgrwt>
</event>
<event>
12    1  0.1074575E-001  0.2135236E+03  0.7546771E-02  0.1139321E+00
         21   -1    0    0  501  502  0.00000000000E+00  0.00000000000E+00  0.13627200517E+03  0.13627200517E+03  0.00000000000E+00 0.  1.
         21   -1    0    0  502  503 -0.00000000000E+00 -0.00000000000E+00 -0.68601053066E+03  0.68601053066E+03  0.00000000000E+00 0. -1.
         -6    2    1    2    0  503  0.12585998923E+03 -0.37307359110E+01 -0.57168580999E+03  0.61025975992E+03  0.17244608999E+03 0.  0.
        -24    2    3    3    0    0  0.11509130204E+03 -0.24304458047E+02 -0.25363513298E+03  0.29132784585E+03  0.81880514163E+02 0.  0.
          6    2    1    2  501    0 -0.12585998923E+03  0.37307359110E+01  0.21947284498E+02  0.21202277591E+03  0.16916654199E+03 0.  0.
         24    2    5    5    0    0 -0.87268085021E+02 -0.57589051408E+02 -0.11622474919E+02  0.13203233814E+03  0.79782447234E+02 0.  0.
          5    1    5    5  501    0 -0.38591904213E+02  0.61319787319E+02  0.33569759417E+02  0.79990437772E+02  0.47000000000E+01 0. -1.
        -11    1    6    6    0    0 -0.12415828732E+02 -0.24675934337E+02  0.29577267319E+02  0.40470597729E+02  0.00000000000E+00 0.  1.
         12    1    6    6    0    0 -0.74852256289E+02 -0.32913117071E+02 -0.41199742238E+02  0.91561740412E+02  0.00000000000E+00 0. -1.
         -5    1    3    3    0  503  0.10768687195E+02  0.20573722136E+02 -0.31805067701E+03  0.31893191407E+03  0.47000000000E+01 0.  1.
         13    1    4    4    0    0  0.37958071618E+02 -0.42105314319E+01 -0.17587161710E+03  0.17997046835E+03  0.00000000000E+00 0. -1.
        -14    1    4    4    0    0  0.77133230422E+02 -0.20093926615E+02 -0.77763515879E+02  0.11135737750E+03  0.00000000000E+00 0.  1.
<mgrwt>
<rscale>  2 0.21286053E+03</rscale>
<asrwt>0</asrwt>
<pdfrwt beam="1">  1       21 0.20964923E-01 0.21352356E+03</pdfrwt>
<pdfrwt beam="2">  1       21 0.10554008E+00 0.21352356E+03</pdfrwt>
<totfact> 0.15046993E+04</totfact>
</mgrwt>
</event>
<event>
12    1  0.1074575E-001  0.2121672E+03  0.7546771E-02  0.1140091E+00
         21   -1    0    0  501  502  0.00000000000E+00  0.00000000000E+00  0.18228090306E+03  0.18228090306E+03  0.00000000000E+00 0.  1.
         21   -1    0    0  502  503 -0.00000000000E+00 -0.00000000000E+00 -0.38523636671E+03  0.38523636671E+03  0.00000000000E+00 0.  1.
         -6    2    1    2    0  503  0.22688153057E+02  0.12001450882E+03 -0.27250042565E+03  0.34535693119E+03  0.17348398579E+03 0.  0.
        -24    2    3    3    0    0  0.38476221205E+01  0.54220794798E+02 -0.25800563881E+03  0.27524297213E+03  0.78975219294E+02 0.  0.
          6    2    1    2  501    0 -0.22688153057E+02 -0.12001450882E+03  0.69544961995E+02  0.22216033858E+03  0.17204789938E+03 0.  0.
         24    2    5    5    0    0 -0.34202288981E+02  0.43953347911E+01  0.38414698956E+02  0.93313267250E+02  0.77733912866E+02 0.  0.
          5    1    5    5  501    0  0.11514135925E+02 -0.12440984361E+03  0.31130263039E+02  0.12884707133E+03  0.47000000000E+01 0. -1.
        -11    1    6    6    0    0 -0.16795365775E+02 -0.32803257699E+02 -0.32637589698E+00  0.36854369461E+02  0.00000000000E+00 0.  1.
         12    1    6    6    0    0 -0.17406923207E+02  0.37198592490E+02  0.38741074853E+02  0.56458897789E+02  0.00000000000E+00 0. -1.
         -5    1    3    3    0  503  0.18840530936E+02  0.65793714020E+02 -0.14494786843E+02  0.70113959068E+02  0.47000000000E+01 0.  1.
         13    1    4    4    0    0 -0.67762724142E+01 -0.17933451467E+02 -0.27867204351E+02  0.33824660053E+02  0.00000000000E+00 0. -1.
        -14    1    4    4    0    0  0.10623894535E+02  0.72154246265E+02 -0.23013843446E+03  0.24141831207E+03  0.00000000000E+00 0.  1.
<mgrwt>
<rscale>  2 0.21187345E+03</rscale>
<asrwt>0</asrwt>
<pdfrwt beam="1">  1       21 0.28043216E-01 0.21216722E+03</pdfrwt>
<pdfrwt beam="2">  1       21 0.59267132E-01 0.21216722E+03</pdfrwt>
<totfact> 0.31979842E+04</totfact>
</mgrwt>
</event>
<event>
12    1  0.1074575E-001  0.1896328E+03  0.7546771E-02  0.1158838E+00
         21   -1    0    0  501  502  0.00000000000E+00  0.00000000000E+00  0.27643763203E+03  0.27643763203E+03  0.00000000000E+00 0.  1.
         21   -1    0    0  502  503 -0.00000000000E+00 -0.00000000000E+00 -0.16639685026E+03  0.16639685026E+03  0.00000000000E+00 0. -1.
         -6    2    1    2    0  503  0.58147712791E+02 -0.47794702386E+02 -0.48583902718E+02  0.19575750586E+03  0.17405492069E+03 0.  0.
        -24    2    3    3    0    0  0.12471830065E+02 -0.53847934523E+02  0.32240764033E+02  0.10260362973E+03  0.80205307624E+02 0.  0.
          6    2    1    2  501    0 -0.58147712791E+02  0.47794702386E+02  0.15862468449E+03  0.24707697643E+03  0.17383829173E+03 0.  0.
         24    2    5    5    0    0 -0.10022665609E+03  0.25214194793E+02  0.14813451293E+03  0.19795823773E+03  0.81009207819E+02 0.  0.
          5    1    5    5  501    0  0.42078943302E+02  0.22580507593E+02  0.10490171560E+02  0.49118738704E+02  0.47000000000E+01 0. -1.
        -13    1    6    6    0    0 -0.23052407371E+02  0.22193328526E+02  0.10441704175E+03  0.10921023727E+03  0.00000000000E+00 0.  1.
         14    1    6    6    0    0 -0.77174248721E+02  0.30208662668E+01  0.43717471186E+02  0.88748000459E+02  0.00000000000E+00 0. -1.
         -5    1    3    3    0  503  0.45675882726E+02  0.60532321371E+01 -0.80824666751E+02  0.93153876127E+02  0.47000000000E+01 0.  1.
         11    1    4    4    0    0  0.18911838987E+02  0.13166874849E+02 -0.77331822456E+01  0.24306919895E+02  0.00000000000E+00 0. -1.
        -12    1    4    4    0    0 -0.64400089217E+01 -0.67014809372E+02  0.39973946278E+02  0.78296709836E+02  0.00000000000E+00 0.  1.
<mgrwt>
<rscale>  2 0.18958309E+03</rscale>
<asrwt>0</asrwt>
<pdfrwt beam="1">  1       21 0.42528866E-01 0.18963282E+03</pdfrwt>
<pdfrwt beam="2">  1       21 0.25599515E-01 0.18963282E+03</pdfrwt>
<totfact> 0.77094601E+04</totfact>
</mgrwt>
</event>
<event>
12    1  0.1074575E-001  0.1791893E+03  0.7546771E-02  0.1169155E+00
         21   -1    0    0  503  502  0.00000000000E+00  0.00000000000E+00  0.39153678951E+02  0.39153678951E+02  0.00000000000E+00 0. -1.
         21   -1    0    0  501  503 -0.00000000000E+00 -0.00000000000E+00 -0.16999059084E+04  0.16999059084E+04  0.00000000000E+00 0. -1.
          6    2    1    2  501    0  0.36317212483E+02 -0.21913578715E+02 -0.14622239728E+04  0.14731625013E+04  0.17409670759E+03 0.  0.
         24    2    3    3    0    0  0.35396027454E+02 -0.18015745016E+02 -0.34511467447E+03  0.35603613593E+03  0.77975289159E+02 0.  0.
         -6    2    1    2    0  502 -0.36317212483E+02  0.21913578715E+02 -0.19852825662E+03  0.26589708607E+03  0.17172258690E+03 0.  0.
        -24    2    5    5    0    0 -0.81152384594E+02  0.36621111890E+02 -0.99697134840E+02  0.15627872620E+03  0.80973490752E+02 0.  0.
          5    1    3    3  501    0  0.92118502890E+00 -0.38978336990E+01 -0.11171092984E+04  0.11171263654E+04  0.47000000000E+01 0. -1.
        -11    1    4    4    0    0  0.41613915954E+02  0.80393061746E+01 -0.30416350464E+03  0.30710224030E+03  0.00000000000E+00 0.  1.
         12    1    4    4    0    0 -0.62178885005E+01 -0.26055051191E+02 -0.40951169837E+02  0.48933895624E+02  0.00000000000E+00 0. -1.
         -5    1    5    5    0  502  0.44835172112E+02 -0.14707533175E+02 -0.98831121778E+02  0.10961835988E+03  0.47000000000E+01 0.  1.
         13    1    6    6    0    0 -0.14466602934E+02  0.33036501214E+02  0.25907577426E+00  0.36066052365E+02  0.00000000000E+00 0. -1.
        -14    1    6    6    0    0 -0.66685781660E+02  0.35846106767E+01 -0.99956210614E+02  0.12021267383E+03  0.00000000000E+00 0.  1.
<mgrwt>
<rscale>  2 0.17861007E+03</rscale>
<asrwt>0</asrwt>
<pdfrwt beam="1">  1       21 0.60236433E-02 0.17918931E+03</pdfrwt>
<pdfrwt beam="2">  1       21 0.26152397E+00 0.17918931E+03</pdfrwt>
<totfact> 0.11301453E+04</totfact>
</mgrwt>
</event>
<event>
12    1  0.1074575E-001  0.1833892E+03  0.7546771E-02  0.1164872E+00
         21   -1    0    0  501  502  0.00000000000E+00  0.00000000000E+00  0.21264773424E+02  0.21264773424E+02  0.00000000000E+00 0.  1.
         21   -1    0    0  502  503 -0.00000000000E+00 -0.00000000000E+00 -0.18193805621E+04  0.18193805621E+04  0.00000000000E+00 0.  1.
         -6    2    1    2    0  503 -0.49158809795E+02  0.30909070126E+02 -0.12423409524E+04  0.12558035842E+04  0.17395298433E+03 0.  0.
        -24    2    3    3    0    0 -0.42924159541E+02  0.29449783155E+02 -0.32396129132E+03  0.33738957496E+03  0.78555927978E+02 0.  0.
          6    2    1    2  501    0  0.49158809795E+02 -0.30909070126E+02 -0.55577483623E+03  0.58484175133E+03  0.17257533519E+03 0.  0.
         24    2    5    5    0    0 -0.17871074364E+02 -0.59573234689E+02 -0.25388599438E+03  0.27423975112E+03  0.82951777329E+02 0.  0.
          5    1    5    5  501    0  0.67029884159E+02  0.28664164563E+02 -0.30188884185E+03  0.31060200021E+03  0.47000000000E+01 0. -1.
        -11    1    6    6    0    0  0.66474491959E+01  0.10468933177E+02 -0.32097395170E+01  0.12809745136E+02  0.00000000000E+00 0.  1.
         12    1    6    6    0    0 -0.24518523560E+02 -0.70042167866E+02 -0.25067625486E+03  0.26143000598E+03  0.00000000000E+00 0. -1.
         -5    1    3    3    0  503 -0.62346502542E+01  0.14592869706E+01 -0.91837966113E+03  0.91841400924E+03  0.47000000000E+01 0.  1.
         13    1    4    4    0    0 -0.12808980632E+00  0.44680665725E+02 -0.11135562794E+03  0.11998522480E+03  0.00000000000E+00 0. -1.
        -14    1    4    4    0    0 -0.42796069734E+02 -0.15230882570E+02 -0.21260566337E+03  0.21740435015E+03  0.00000000000E+00 0.  1.
<mgrwt>
<rscale>  2 0.18306177E+03</rscale>
<asrwt>0</asrwt>
<pdfrwt beam="1">  1       21 0.32715031E-02 0.18338920E+03</pdfrwt>
<pdfrwt beam="2">  1       21 0.27990474E+00 0.18338920E+03</pdfrwt>
<totfact> 0.24634977E+04</totfact>
</mgrwt>
</event>
<event>
12    1  0.1074575E-001  0.1910377E+03  0.7546771E-02  0.1159450E+00
         21   -1    0    0  503  502  0.00000000000E+00  0.00000000000E+00  0.43442591086E+02  0.43442591086E+02  0.00000000000E+00 0. -1.
         21   -1    0    0  501  503 -0.00000000000E+00 -0.00000000000E+00 -0.11927184132E+04  0.11927184132E+04  0.00000000000E+00 0. -1.
          6    2    1    2  501    0  0.12393963554E+01  0.57528231113E+02 -0.93627204703E+03  0.95556304484E+03  0.18216572987E+03 0.  0.
         24    2    3    3    0    0  0.70678441603E+02  0.39625726179E+02 -0.47216199606E+03  0.48592221388E+03  0.81349905609E+02 0.  0.
         -6    2    1    2    0  502 -0.12393963554E+01 -0.57528231113E+02 -0.21300377507E+03  0.28059795943E+03  0.17335966418E+03 0.  0.
        -24    2    5    5    0    0  0.56665679515E+02 -0.24947653575E+01 -0.14061396233E+03  0.17269033619E+03  0.82658591344E+02 0.  0.
          5    1    3    3  501    0 -0.69439045248E+02  0.17902504934E+02 -0.46411005097E+03  0.46964083096E+03  0.47000000000E+01 0. -1.
        -13    1    4    4    0    0  0.78504200170E+02  0.30886013089E+02 -0.46405836071E+03  0.47166409382E+03  0.00000000000E+00 0.  1.
         14    1    4    4    0    0 -0.78257585670E+01  0.87397130900E+01 -0.81036353441E+01  0.14258120067E+02  0.00000000000E+00 0. -1.
         -5    1    5    5    0  502 -0.57905075870E+02 -0.55033465755E+02 -0.72389812739E+02  0.10790762324E+03  0.47000000000E+01 0.  1.
         13    1    6    6    0    0  0.19072885841E+02 -0.40397505461E+02 -0.46447945191E+02  0.64444899210E+02  0.00000000000E+00 0. -1.
        -14    1    6    6    0    0  0.37592793674E+02  0.37902740103E+02 -0.94166017139E+02  0.10824543698E+03  0.00000000000E+00 0.  1.
<mgrwt>
<rscale>  2 0.18890784E+03</rscale>
<asrwt>0</asrwt>
<pdfrwt beam="1">  1       21 0.66834760E-02 0.19103766E+03</pdfrwt>
<pdfrwt beam="2">  1       21 0.18349513E+00 0.19103766E+03</pdfrwt>
<totfact> 0.28263344E+04</totfact>
</mgrwt>
</event>
<event>
12    1  0.1074575E-001  0.1953616E+03  0.7546771E-02  0.1154714E+00
         21   -1    0    0  501  502  0.00000000000E+00  0.00000000000E+00  0.45043650792E+03  0.45043650792E+03  0.00000000000E+00 0. -1.
         21   -1    0    0  502  503 -0.00000000000E+00 -0.00000000000E+00 -0.82790318354E+02  0.82790318354E+02  0.00000000000E+00 0. -1.
         -6    2    1    2    0  503  0.85789778279E+02 -0.22146667862E+01  0.17755672025E+03  0.26064624561E+03  0.17042677501E+03 0.  0.
        -24    2    3    3    0    0  0.92823810977E+02  0.35921925122E+02  0.68353725163E+02  0.14466667243E+03  0.79684187772E+02 0.  0.
          6    2    1    2  501    0 -0.85789778279E+02  0.22146667862E+01  0.19008946932E+03  0.27258058067E+03  0.17550320739E+03 0.  0.
         24    2    5    5    0    0 -0.31408987874E+02  0.29344879964E+02  0.19050864405E+03  0.21162498585E+03  0.81510396140E+02 0.  0.
          5    1    5    5  501    0 -0.54380790405E+02 -0.27130213178E+02 -0.41917472659E+00  0.60955594818E+02  0.47000000000E+01 0. -1.
        -13    1    6    6    0    0  0.52838895737E+00  0.12573849276E+02 -0.44565388748E+01  0.13350716057E+02  0.00000000000E+00 0.  1.
         14    1    6    6    0    0 -0.31937376832E+02  0.16771030689E+02  0.19496518292E+03  0.19827426979E+03  0.00000000000E+00 0. -1.
         -5    1    3    3    0  503 -0.70340326983E+01 -0.38136591908E+02  0.10920299508E+03  0.11597957317E+03  0.47000000000E+01 0.  1.
         11    1    4    4    0    0  0.37376702615E+01  0.18868294845E+02 -0.12679390983E+02  0.23038005231E+02  0.00000000000E+00 0. -1.
        -12    1    4    4    0    0  0.89086140716E+02  0.17053630278E+02  0.81033116147E+02  0.12162866720E+03  0.00000000000E+00 0.  1.
<mgrwt>
<rscale>  2 0.19421472E+03</rscale>
<asrwt>0</asrwt>
<pdfrwt beam="1">  1       21 0.69297923E-01 0.19536163E+03</pdfrwt>
<pdfrwt beam="2">  1       21 0.12736972E-01 0.19536163E+03</pdfrwt>
<totfact> 0.99798718E+04</totfact>
</mgrwt>
</event>
<event>
12    1  0.1074575E-001  0.2353090E+03  0.7546771E-02  0.1123296E+00
         21   -1    0    0  501  502  0.00000000000E+00  0.00000000000E+00  0.23769060566E+03  0.23769060566E+03  0.00000000000E+00 0.  1.
         21   -1    0    0  502  503 -0.00000000000E+00 -0.00000000000E+00 -0.31643475901E+03  0.31643475901E+03  0.00000000000E+00 0. -1.
         -6    2    1    2    0  503 -0.14801380257E+03  0.56890216147E+02 -0.18345230886E+03  0.29837067960E+03  0.17385548704E+03 0.  0.
        -24    2    3    3    0    0 -0.25479837628E+02  0.69513190597E+02 -0.10591884981E+03  0.15274293732E+03  0.81426631789E+02 0.  0.
          6    2    1    2  501    0  0.14801380257E+03 -0.56890216147E+02  0.10470815550E+03  0.25575468507E+03  0.17117849941E+03 0.  0.
         24    2    5    5    0    0  0.34737732296E+02 -0.32242903441E+02  0.10526673824E+03  0.13973158333E+03  0.78724293166E+02 0.  0.
          5    1    5    5  501    0  0.11327607028E+03 -0.24647312707E+02 -0.55858273926E+00  0.11602310173E+03  0.47000000000E+01 0. -1.
        -13    1    6    6    0    0  0.25887762853E+01 -0.46654956332E+02  0.27160518205E+02  0.54047020844E+02  0.00000000000E+00 0.  1.
         14    1    6    6    0    0  0.32148956011E+02  0.14412052891E+02  0.78106220034E+02  0.85684562490E+02  0.00000000000E+00 0. -1.
         -5    1    3    3    0  503 -0.12253396495E+03 -0.12622974449E+02 -0.77533459047E+02  0.14562774228E+03  0.47000000000E+01 0.  1.
         13    1    4    4    0    0 -0.35935982365E+02  0.38437170721E+02 -0.10774156245E+03  0.11990435855E+03  0.00000000000E+00 0. -1.
        -14    1    4    4    0    0  0.10456144738E+02  0.31076019876E+02  0.18227126392E+01  0.32838578768E+02  0.00000000000E+00 0.  1.
<mgrwt>
<rscale>  2 0.23481470E+03</rscale>
<asrwt>0</asrwt>
<pdfrwt beam="1">  1       21 0.36567786E-01 0.23530897E+03</pdfrwt>
<pdfrwt beam="2">  1       21 0.48682270E-01 0.23530897E+03</pdfrwt>
<totfact> 0.28411003E+04</totfact>
</mgrwt>
</event>
<event>
12    1  0.1074575E-001  0.2039748E+03  0.7546771E-02  0.1146611E+00
         21   -1    0    0  503  502  0.00000000000E+00  0.00000000000E+00  0.58573507338E+03  0.58573507338E+03  0.00000000000E+00 0.  1.
         21   -1    0    0  501  503 -0.00000000000E+00 -0.00000000000E+00 -0.15219800380E+03  0.15219800380E+03  0.00000000000E+00 0. -1.
          6    2    1    2  501    0 -0.10061570579E+03  0.32702896110E+02 -0.52969123693E+02  0.21074026423E+03  0.17439246325E+03 0.  0.
         24    2    3    3    0    0  0.89241684867E+01 -0.14122664276E+02 -0.87711850039E+01  0.83590097315E+02  0.81432673132E+02 0.  0.
         -6    2    1    2    0  502  0.10061570579E+03 -0.32702896110E+02  0.48650619328E+03  0.52719281295E+03  0.17335220293E+03 0.  0.
        -24    2    5    5    0    0  0.45829338095E+02  0.38578797389E+02  0.15903511793E+03  0.18757240557E+03  0.79388832722E+02 0.  0.
          5    1    3    3  501    0 -0.10953987428E+03  0.46825560385E+02 -0.44197938689E+02  0.12715016691E+03  0.47000000000E+01 0. -1.
        -13    1    4    4    0    0 -0.18186896229E+02 -0.38868307820E+02 -0.16681475852E+02  0.46041070620E+02  0.00000000000E+00 0.  1.
         14    1    4    4    0    0  0.27111064715E+02  0.24745643545E+02  0.79102908479E+01  0.37549026695E+02  0.00000000000E+00 0. -1.
         -5    1    5    5    0  502  0.54786367694E+02 -0.71281693499E+02  0.32747107536E+03  0.33962040738E+03  0.47000000000E+01 0.  1.
         11    1    6    6    0    0 -0.17646859278E+01 -0.52912796231E+01 -0.72418426586E+01  0.91408993849E+01  0.00000000000E+00 0. -1.
        -12    1    6    6    0    0  0.47594024023E+02  0.43870077012E+02  0.16627696058E+03  0.17843150619E+03  0.00000000000E+00 0.  1.
<mgrwt>
<rscale>  2 0.20375230E+03</rscale>
<asrwt>0</asrwt>
<pdfrwt beam="1">  1       21 0.90113087E-01 0.20397483E+03</pdfrwt>
<pdfrwt beam="2">  1       21 0.23415078E-01 0.20397483E+03</pdfrwt>
<totfact> 0.17845284E+04</totfact>
</mgrwt>
</event>
<event>
12    1  0.1074575E-001  0.1905317E+03  0.7546771E-02  0.1158075E+00
         21   -1    0    0  503  502  0.00000000000E+00  0.00000000000E+00  0.84461678226E+02  0.84461678226E+02  0.00000000000E+00 0. -1.
         21   -1    0    0  501  503 -0.00000000000E+00 -0.00000000000E+00 -0.43154201885E+03  0.43154201885E+03  0.00000000000E+00 0. -1.
          6    2    1    2  501    0 -0.38795419384E+02  0.67567713054E+02 -0.19396293995E+03  0.27188960723E+03  0.17387310325E+03 0.  0.
         24    2    3    3    0    0 -0.44472206275E+02  0.11107033244E+03 -0.16579502136E+03  0.21954244455E+03  0.79978121836E+02 0.  0.
         -6    2    1    2    0  502  0.38795419384E+02 -0.67567713054E+02 -0.15311740067E+03  0.24411408985E+03  0.17342511370E+03 0.  0.
        -24    2    5    5    0    0  0.81931149668E+02 -0.42638047698E+02 -0.15032083029E+03  0.19399333319E+03  0.80661917314E+02 0.  0.
          5    1    3    3  501    0  0.56767868905E+01 -0.43502619386E+02 -0.28167918598E+02  0.52347162684E+02  0.47000000000E+01 0. -1.
        -13    1    4    4    0    0 -0.21986102269E+02  0.70102243290E+01 -0.78638978987E+02  0.81954993467E+02  0.00000000000E+00 0.  1.
         14    1    4    4    0    0 -0.22486104006E+02  0.10406010811E+03 -0.87156042369E+02  0.13758745108E+03  0.00000000000E+00 0. -1.
         -5    1    5    5    0  502 -0.43135730284E+02 -0.24929665357E+02 -0.27965703782E+01  0.50120756656E+02  0.47000000000E+01 0.  1.
         11    1    6    6    0    0 -0.33067679456E+01 -0.27967378076E+01 -0.70426099207E+02  0.70559137652E+02  0.00000000000E+00 0. -1.
        -12    1    6    6    0    0  0.85237917614E+02 -0.39841309890E+02 -0.79894731085E+02  0.12343419554E+03  0.00000000000E+00 0.  1.
<mgrwt>
<rscale>  2 0.19042945E+03</rscale>
<asrwt>0</asrwt>
<pdfrwt beam="1">  1       21 0.12994104E-01 0.19053172E+03</pdfrwt>
<pdfrwt beam="2">  1       21 0.66391081E-01 0.19053172E+03</pdfrwt>
<totfact> 0.10596147E+05</totfact>
</mgrwt>
</event>
<event>
12    1  0.1074575E-001  0.2595928E+03  0.7546771E-02  0.1107432E+00
         21   -1    0    0  501  502  0.00000000000E+00  0.00000000000E+00  0.54663905782E+02  0.54663905782E+02  0.00000000000E+00 0.  1.
         21   -1    0    0  502  503 -0.00000000000E+00 -0.00000000000E+00 -0.12442599294E+04  0.12442599294E+04  0.00000000000E+00 0.  1.
         -6    2    1    2    0  503  0.18039134878E+03  0.69869468093E+02 -0.52838824939E+03  0.58858297621E+03  0.17266440426E+03 0.  0.
        -24    2    3    3    0    0  0.63607497717E+02  0.54864626414E+02 -0.38828395109E+03  0.40551217694E+03  0.81361280542E+02 0.  0.
          6    2    1    2  501    0 -0.18039134878E+03 -0.69869468093E+02 -0.66120777425E+03  0.71034085900E+03  0.17310584608E+03 0.  0.
         24    2    5    5    0    0 -0.14545623885E+03 -0.41549962859E+02 -0.63588021781E+03  0.65851392200E+03  0.80081316439E+02 0.  0.
          5    1    5    5  501    0 -0.34935109932E+02 -0.28319505234E+02 -0.25327556442E+02  0.51826936992E+02  0.47000000000E+01 0. -1.
        -13    1    6    6    0    0 -0.89881012330E+02 -0.29048939927E+02 -0.22977537722E+03  0.24843341415E+03  0.00000000000E+00 0.  1.
         14    1    6    6    0    0 -0.55575226520E+02 -0.12501022932E+02 -0.40610484058E+03  0.41008050785E+03  0.00000000000E+00 0. -1.
         -5    1    3    3    0  503  0.11678385107E+03  0.15004841679E+02 -0.14010429830E+03  0.18307079927E+03  0.47000000000E+01 0.  1.
         11    1    4    4    0    0 -0.83095760001E+01  0.42547674331E+02 -0.12495301848E+03  0.13225963281E+03  0.00000000000E+00 0. -1.
        -12    1    4    4    0    0  0.71917073717E+02  0.12316952082E+02 -0.26333093261E+03  0.27325254413E+03  0.00000000000E+00 0.  1.
<mgrwt>
<rscale>  2 0.25951922E+03</rscale>
<asrwt>0</asrwt>
<pdfrwt beam="1">  1       21 0.84098324E-02 0.25959279E+03</pdfrwt>
<pdfrwt beam="2">  1       21 0.19142459E+00 0.25959279E+03</pdfrwt>
<totfact> 0.16042814E+04</totfact>
</mgrwt>
</event>
<event>
12    1  0.1074575E-001  0.2599588E+03  0.7546771E-02  0.1107272E+00
         21   -1    0    0  503  502  0.00000000000E+00  0.00000000000E+00  0.75760734701E+02  0.75760734701E+02  0.00000000000E+00 0.  1.
         21   -1    0    0  501  503 -0.00000000000E+00 -0.00000000000E+00 -0.11873332687E+04  0.11873332687E+04  0.00000000000E+00 0. -1.
          6    2    1    2  501    0 -0.10552562301E+03 -0.16285080126E+03 -0.23898702971E+03  0.35260838349E+03  0.17193554361E+03 0.  0.
         24    2    3    3    0    0  0.12867625128E+02 -0.82222698657E+02 -0.11327589770E+03  0.16196937687E+03  0.80476717705E+02 0.  0.
         -6    2    1    2    0  502  0.10552562301E+03  0.16285080126E+03 -0.87258550434E+03  0.91048561996E+03  0.17298138971E+03 0.  0.
        -24    2    5    5    0    0  0.14209035736E+03  0.14011300866E+03 -0.67699358957E+03  0.71015520756E+03  0.78605175726E+02 0.  0.
          5    1    3    3  501    0 -0.11839324814E+03 -0.80628102606E+02 -0.12571113200E+03  0.19063900662E+03  0.47000000000E+01 0. -1.
        -11    1    4    4    0    0 -0.28916625458E+02 -0.51551133584E+02 -0.36947605652E+02  0.69705209024E+02  0.00000000000E+00 0.  1.
         12    1    4    4    0    0  0.41784250586E+02 -0.30671565073E+02 -0.76328292050E+02  0.92264167846E+02  0.00000000000E+00 0. -1.
         -5    1    5    5    0  502 -0.36564734346E+02  0.22737792601E+02 -0.19559191477E+03  0.20033041240E+03  0.47000000000E+01 0.  1.
         11    1    6    6    0    0  0.80331089065E+01  0.43311734141E+02 -0.88269581609E+02  0.98650677597E+02  0.00000000000E+00 0. -1.
        -12    1    6    6    0    0  0.13405724845E+03  0.96801274521E+02 -0.58872400796E+03  0.61150452996E+03  0.00000000000E+00 0.  1.
<mgrwt>
<rscale>  2 0.25978498E+03</rscale>
<asrwt>0</asrwt>
<pdfrwt beam="1">  1       21 0.11655498E-01 0.25995885E+03</pdfrwt>
<pdfrwt beam="2">  1       21 0.18266666E+00 0.25995885E+03</pdfrwt>
<totfact> 0.10286513E+04</totfact>
</mgrwt>
</event>
<event>
12    1  0.1074575E-001  0.1891944E+03  0.7546771E-02  0.1159357E+00
         21   -1    0    0  501  502  0.00000000000E+00  0.00000000000E+00  0.12099935511E+03  0.12099935511E+03  0.00000000000E+00 0.  1.
         21   -1    0    0  502  503 -0.00000000000E+00 -0.00000000000E+00 -0.38186189555E+03  0.38186189555E+03  0.00000000000E+00 0.  1.
         -6    2    1    2    0  503 -0.29851625517E+02 -0.70705168734E+02 -0.25076937759E+03  0.31413344371E+03  0.17292830678E+03 0.  0.
        -24    2    3    3    0    0 -0.68954457330E+02 -0.95105844732E+02 -0.17846464363E+03  0.22825859874E+03  0.80327579232E+02 0.  0.
          6    2    1    2  501    0  0.29851625517E+02  0.70705168734E+02 -0.10093162842E+02  0.18872780695E+03  0.17212197056E+03 0.  0.
         24    2    5    5    0    0 -0.32838061222E+02  0.31584787213E+02  0.39323580468E+02  0.99708114788E+02  0.79494824521E+02 0.  0.
          5    1    5    5  501    0  0.62689686739E+02  0.39120381521E+02 -0.49416743311E+02  0.89019692165E+02  0.47000000000E+01 0. -1.
        -13    1    6    6    0    0  0.21111197489E+02  0.30325624638E+02  0.99443699154E+01  0.38265084112E+02  0.00000000000E+00 0.  1.
         14    1    6    6    0    0 -0.53949258711E+02  0.12591625746E+01  0.29379210553E+02  0.61443030676E+02  0.00000000000E+00 0. -1.
         -5    1    3    3    0  503  0.39102831813E+02  0.24400675998E+02 -0.72304733959E+02  0.85874844966E+02  0.47000000000E+01 0.  1.
         11    1    4    4    0    0 -0.30030496887E+02 -0.94840236570E+02 -0.10213293840E+03  0.14257502700E+03  0.00000000000E+00 0. -1.
        -12    1    4    4    0    0 -0.38923960442E+02 -0.26560816250E+00 -0.76331705226E+02  0.85683571744E+02  0.00000000000E+00 0.  1.
<mgrwt>
<rscale>  2 0.18901000E+03</rscale>
<asrwt>0</asrwt>
<pdfrwt beam="1">  1       21 0.18615285E-01 0.18919445E+03</pdfrwt>
<pdfrwt beam="2">  1       21 0.58747984E-01 0.18919445E+03</pdfrwt>
<totfact> 0.71627285E+04</totfact>
</mgrwt>
</event>
<event>
12    1  0.1074575E-001  0.2248273E+03  0.7546771E-02  0.1130481E+00
         21   -1    0    0  503  502  0.00000000000E+00  0.00000000000E+00  0.71555266656E+03  0.71555266656E+03  0.00000000000E+00 0. -1.
         21   -1    0    0  501  503 -0.00000000000E+00 -0.00000000000E+00 -0.73679509118E+02  0.73679509118E+02  0.00000000000E+00 0. -1.
          6    2    1    2  501    0  0.14120204849E+03 -0.23128499336E+02  0.23808079294E+03  0.32745960744E+03  0.17341967753E+03 0.  0.
         24    2    3    3    0    0  0.41854931639E+02 -0.55877594563E+02  0.18165464489E+03  0.20851275775E+03  0.74866676557E+02 0.  0.
         -6    2    1    2    0  502 -0.14120204849E+03  0.23128499336E+02  0.40379236450E+03  0.46177256824E+03  0.17237367888E+03 0.  0.
        -24    2    5    5    0    0 -0.12242673095E+03  0.56960066926E+02  0.21553527780E+03  0.26952296952E+03  0.89187563304E+02 0.  0.
          5    1    3    3  501    0  0.99347116856E+02  0.32749095227E+02  0.56426148053E+02  0.11894684968E+03  0.47000000000E+01 0. -1.
        -13    1    4    4    0    0 -0.13250965952E+01 -0.74556957987E+00  0.10374464571E+03  0.10375578668E+03  0.00000000000E+00 0.  1.
         14    1    4    4    0    0  0.43180028234E+02 -0.55132024983E+02  0.77909999178E+02  0.10475697108E+03  0.00000000000E+00 0. -1.
         -5    1    5    5    0  502 -0.18775317541E+02 -0.33831567590E+02  0.18825708670E+03  0.19224959872E+03  0.47000000000E+01 0.  1.
         11    1    6    6    0    0 -0.92725501148E+02 -0.33562607115E+01  0.14441890029E+03  0.17165693056E+03  0.00000000000E+00 0. -1.
        -12    1    6    6    0    0 -0.29701229805E+02  0.60316327638E+02  0.71116377505E+02  0.97866038957E+02  0.00000000000E+00 0.  1.
<mgrwt>
<rscale>  2 0.22462560E+03</rscale>
<asrwt>0</asrwt>
<pdfrwt beam="1">  1       21 0.11008502E+00 0.22482733E+03</pdfrwt>
<pdfrwt beam="2">  1       21 0.11335310E-01 0.22482733E+03</pdfrwt>
<totfact> 0.41644769E+04</totfact>
</mgrwt>
</event>
<event>
12    1  0.1074575E-001  0.1777598E+03  0.7546771E-02  0.1170416E+00
         21   -1    0    0  503  502  0.00000000000E+00  0.00000000000E+00  0.30946730843E+03  0.30946730843E+03  0.00000000000E+00 0. -1.
         21   -1    0    0  501  503 -0.00000000000E+00 -0.00000000000E+00 -0.16076882415E+03  0.16076882415E+03  0.00000000000E+00 0. -1.
          6    2    1    2  501    0 -0.17711170379E+02  0.30998308292E+02 -0.69096545343E+02  0.18910762696E+03  0.17237395779E+03 0.  0.
         24    2    3    3    0    0 -0.74233492561E+02 -0.26049887068E+01 -0.30065994759E+02  0.11249543242E+03  0.78954802833E+02 0.  0.
         -6    2    1    2    0  502  0.17711170379E+02 -0.30998308292E+02  0.21779502962E+03  0.28112850562E+03  0.17413782206E+03 0.  0.
        -24    2    5    5    0    0 -0.36077072399E+02  0.54000687413E+01  0.51006500717E+02  0.10207957296E+03  0.80547254485E+02 0.  0.
          5    1    3    3  501    0  0.56522322182E+02  0.33603296999E+02 -0.39030550584E+02  0.76612194544E+02  0.47000000000E+01 0. -1.
        -11    1    4    4    0    0 -0.12870451991E+01 -0.30336069540E+02 -0.85045565552E+01  0.31531905789E+02  0.00000000000E+00 0.  1.
         12    1    4    4    0    0 -0.72946447362E+02  0.27731080834E+02 -0.21561438204E+02  0.80963526630E+02  0.00000000000E+00 0. -1.
         -5    1    5    5    0  502  0.53788242778E+02 -0.36398377034E+02  0.16678852891E+03  0.17904893266E+03  0.47000000000E+01 0.  1.
         11    1    6    6    0    0  0.11134839166E+02 -0.25541384701E+02  0.32199887783E+02  0.42581448413E+02  0.00000000000E+00 0. -1.
        -12    1    6    6    0    0 -0.47211911564E+02  0.30941453442E+02  0.18806612933E+02  0.59498124548E+02  0.00000000000E+00 0.  1.
<mgrwt>
<rscale>  2 0.17732637E+03</rscale>
<asrwt>0</asrwt>
<pdfrwt beam="1">  1       21 0.47610355E-01 0.17775984E+03</pdfrwt>
<pdfrwt beam="2">  1       21 0.24733665E-01 0.17775984E+03</pdfrwt>
<totfact> 0.65641368E+04</totfact>
</mgrwt>
</event>
<event>
12    1  0.1074575E-001  0.2584495E+03  0.7546771E-02  0.1108390E+00
         21   -1    0    0  501  502  0.00000000000E+00  0.00000000000E+00  0.11183652742E+04  0.11183652742E+04  0.00000000000E+00 0. -1.
         21   -1    0    0  502  503 -0.00000000000E+00 -0.00000000000E+00 -0.13304061590E+03  0.13304061590E+03  0.00000000000E+00 0. -1.
         -6    2    1    2    0  503 -0.12182141364E+03 -0.14804322426E+03  0.25812476881E+02  0.25769577413E+03  0.17024563128E+03 0.  0.
        -24    2    3    3    0    0 -0.14765877182E+03 -0.15211868344E+03  0.35119437905E+02  0.22953750769E+03  0.80690059917E+02 0.  0.
          6    2    1    2  501    0  0.12182141364E+03  0.14804322426E+03  0.95951218138E+03  0.99371011594E+03  0.17331738295E+03 0.  0.
         24    2    5    5    0    0  0.48428520735E+02  0.62751233989E+02  0.24132840716E+03  0.26674982549E+03  0.81443417844E+02 0.  0.
          5    1    5    5  501    0  0.73392892907E+02  0.85291990270E+02  0.71818377422E+03  0.72696029045E+03  0.47000000000E+01 0. -1.
        -11    1    6    6    0    0  0.69258701037E+02  0.61602032136E+02  0.19260914924E+03  0.21375187111E+03  0.00000000000E+00 0.  1.
         12    1    6    6    0    0 -0.20830180301E+02  0.11492018526E+01  0.48719257925E+02  0.52997954385E+02  0.00000000000E+00 0. -1.
         -5    1    3    3    0  503  0.25837358182E+02  0.40754591778E+01 -0.93069610234E+01  0.28158266438E+02  0.47000000000E+01 0.  1.
         11    1    4    4    0    0 -0.42001085737E+02 -0.84617011730E+02  0.43244049885E+02  0.10389503226E+03  0.00000000000E+00 0. -1.
        -12    1    4    4    0    0 -0.10565768609E+03 -0.67501671706E+02 -0.81246119804E+01  0.12564247543E+03  0.00000000000E+00 0.  1.
<mgrwt>
<rscale>  2 0.25793556E+03</rscale>
<asrwt>0</asrwt>
<pdfrwt beam="1">  1       21 0.17205619E+00 0.25844955E+03</pdfrwt>
<pdfrwt beam="2">  1       21 0.20467788E-01 0.25844955E+03</pdfrwt>
<totfact> 0.43332910E+03</totfact>
</mgrwt>
</event>
<event>
12    1  0.1074575E-001  0.1971347E+03  0.7546771E-02  0.1152288E+00
         21   -1    0    0  501  502  0.00000000000E+00  0.00000000000E+00  0.10992276610E+03  0.10992276610E+03  0.00000000000E+00 0. -1.
         21   -1    0    0  502  503 -0.00000000000E+00 -0.00000000000E+00 -0.75617811448E+03  0.75617811448E+03  0.00000000000E+00 0. -1.
         -6    2    1    2    0  503  0.89979382415E+02  0.22175487230E+02 -0.63967352572E+03  0.66936110950E+03  0.17399435023E+03 0.  0.
        -24    2    3    3    0    0  0.30067477211E+02  0.82743193476E+01 -0.56885570934E+03  0.57544661663E+03  0.81052285606E+02 0.  0.
          6    2    1    2  501    0 -0.89979382415E+02 -0.22175487230E+02 -0.65818226688E+01  0.19673977108E+03  0.17342195836E+03 0.  0.
         24    2    5    5    0    0 -0.83777893399E+02 -0.71446895644E+02 -0.32963755099E+02  0.14031082007E+03  0.80480573803E+02 0.  0.
          5    1    5    5  501    0 -0.62014890158E+01  0.49271408414E+02  0.26381932431E+02  0.56428951008E+02  0.47000000000E+01 0. -1.
        -13    1    6    6    0    0 -0.52136123511E+02 -0.43566910887E+02  0.21650619750E+02  0.71309188991E+02  0.00000000000E+00 0.  1.
         14    1    6    6    0    0 -0.31641769888E+02 -0.27879984757E+02 -0.54614374850E+02  0.69001631082E+02  0.00000000000E+00 0. -1.
         -5    1    3    3    0  503  0.59911905203E+02  0.13901167883E+02 -0.70817816380E+02  0.93914492867E+02  0.47000000000E+01 0.  1.
         11    1    4    4    0    0 -0.22935168634E+02 -0.80539208486E+01 -0.29689677262E+03  0.29789021668E+03  0.00000000000E+00 0. -1.
        -12    1    4    4    0    0  0.53002645845E+02  0.16328240196E+02 -0.27195893671E+03  0.27755639995E+03  0.00000000000E+00 0.  1.
<mgrwt>
<rscale>  2 0.19700829E+03</rscale>
<asrwt>0</asrwt>
<pdfrwt beam="1">  1       21 0.16911195E-01 0.19713466E+03</pdfrwt>
<pdfrwt beam="2">  1       21 0.11633509E+00 0.19713466E+03</pdfrwt>
<totfact> 0.17901600E+04</totfact>
</mgrwt>
</event>
<event>
12    1  0.1074575E-001  0.1823686E+03  0.7546771E-02  0.1165687E+00
         21   -1    0    0  501  502  0.00000000000E+00  0.00000000000E+00  0.20057322249E+02  0.20057322249E+02  0.00000000000E+00 0. -1.
         21   -1    0    0  502  503 -0.00000000000E+00 -0.00000000000E+00 -0.16966686193E+04  0.16966686193E+04  0.00000000000E+00 0. -1.
         -6    2    1    2    0  503 -0.26959232409E+02  0.51338935801E+02 -0.97878006437E+03  0.99562479631E+03  0.17290411814E+03 0.  0.
        -24    2    3    3    0    0  0.61166906758E+00  0.32688156859E+02 -0.94142425222E+03  0.94536991729E+03  0.79848407100E+02 0.  0.
          6    2    1    2  501    0  0.26959232409E+02 -0.51338935801E+02 -0.69783123264E+03  0.72110114520E+03  0.17220901783E+03 0.  0.
         24    2    5    5    0    0 -0.68933364651E+01 -0.26196525418E+02 -0.15823867447E+03  0.17984302189E+03  0.81057130425E+02 0.  0.
          5    1    5    5  501    0  0.33852568874E+02 -0.25142410382E+02 -0.53959255817E+03  0.54125812331E+03  0.47000000000E+01 0. -1.
        -13    1    6    6    0    0  0.94607275368E+01  0.26820510594E+02 -0.70663827157E+02  0.76172315329E+02  0.00000000000E+00 0.  1.
         14    1    6    6    0    0 -0.16354064002E+02 -0.53017036013E+02 -0.87574847309E+02  0.10367070656E+03  0.00000000000E+00 0. -1.
         -5    1    3    3    0  503 -0.27570901476E+02  0.18650778942E+02 -0.37355812153E+02  0.50254879017E+02  0.47000000000E+01 0.  1.
         11    1    4    4    0    0  0.66264082608E+01  0.53909183420E+02 -0.42247758881E+03  0.42595471871E+03  0.00000000000E+00 0. -1.
        -12    1    4    4    0    0 -0.60147391933E+01 -0.21221026562E+02 -0.51894666340E+03  0.51941519858E+03  0.00000000000E+00 0.  1.
<mgrwt>
<rscale>  2 0.18220369E+03</rscale>
<asrwt>0</asrwt>
<pdfrwt beam="1">  1       21 0.30857410E-02 0.18236864E+03</pdfrwt>
<pdfrwt beam="2">  1       21 0.26102602E+00 0.18236864E+03</pdfrwt>
<totfact> 0.34917019E+04</totfact>
</mgrwt>
</event>
<event>
12    1  0.1074575E-001  0.2189996E+03  0.7546771E-02  0.1134978E+00
         21   -1    0    0  503  502  0.00000000000E+00  0.00000000000E+00  0.89952139495E+03  0.89952139495E+03  0.00000000000E+00 0.  1.
         21   -1    0    0  501  503 -0.00000000000E+00 -0.00000000000E+00 -0.21574909046E+03  0.21574909046E+03  0.00000000000E+00 0.  1.
          6    2    1    2  501    0  0.10126400065E+03 -0.90081912222E+02 -0.14227466291E+03  0.26115683920E+03  0.17202228407E+03 0.  0.
         24    2    3    3    0    0  0.62344043878E+02 -0.61802266140E+02 -0.16886429741E+03  0.20598800669E+03  0.78801066327E+02 0.  0.
         -6    2    1    2    0  502 -0.10126400065E+03  0.90081912222E+02  0.82604696740E+03  0.85411364622E+03  0.16966844011E+03 0.  0.
        -24    2    5    5    0    0 -0.11591372850E+03  0.11882451885E+03  0.67457553386E+03  0.69917353798E+03  0.78969782783E+02 0.  0.
          5    1    3    3  501    0  0.38919956770E+02 -0.28279646082E+02  0.26589634494E+02  0.55168832506E+02  0.47000000000E+01 0. -1.
        -13    1    4    4    0    0  0.75081533484E+02 -0.62085323147E+02 -0.11539914894E+03  0.15102578454E+03  0.00000000000E+00 0.  1.
         14    1    4    4    0    0 -0.12737489606E+02  0.28305700754E+00 -0.53465148469E+02  0.54962222149E+02  0.00000000000E+00 0. -1.
         -5    1    5    5    0  502  0.14649727855E+02 -0.28742606629E+02  0.15147143355E+03  0.15494010824E+03  0.47000000000E+01 0.  1.
         11    1    6    6    0    0 -0.12168945767E+02  0.44976273036E+02  0.29869993499E+03  0.30231208964E+03  0.00000000000E+00 0. -1.
        -12    1    6    6    0    0 -0.10374478274E+03  0.73848245815E+02  0.37587559886E+03  0.39686144834E+03  0.00000000000E+00 0.  1.
<mgrwt>
<rscale>  2 0.21853711E+03</rscale>
<asrwt>0</asrwt>
<pdfrwt beam="1">  1       21 0.13838790E+00 0.21899958E+03</pdfrwt>
<pdfrwt beam="2">  1       21 0.33192168E-01 0.21899958E+03</pdfrwt>
<totfact> 0.31507484E+03</totfact>
</mgrwt>
</event>
<event>
12    1  0.1074575E-001  0.1748650E+03  0.7546771E-02  0.1172909E+00
         21   -1    0    0  501  502  0.00000000000E+00  0.00000000000E+00  0.20214625507E+02  0.20214625507E+02  0.00000000000E+00 0.  1.
         21   -1    0    0  502  503 -0.00000000000E+00 -0.00000000000E+00 -0.15184581723E+04  0.15184581723E+04  0.00000000000E+00 0.  1.
         -6    2    1    2    0  503  0.13326636427E+02 -0.17542517514E+02 -0.69641522840E+03  0.71803337148E+03  0.17347164912E+03 0.  0.
        -24    2    3    3    0    0 -0.53217822367E+01  0.25856845410E+01 -0.16098449031E+03  0.18187940727E+03  0.84434030700E+02 0.  0.
          6    2    1    2  501    0 -0.13326636427E+02  0.17542517514E+02 -0.80182831844E+03  0.82063942637E+03  0.17330630892E+03 0.  0.
         24    2    5    5    0    0  0.26834673052E+02 -0.37105450038E+02 -0.61305456445E+03  0.61999807637E+03  0.80403990018E+02 0.  0.
          5    1    5    5  501    0 -0.40161309479E+02  0.54647967552E+02 -0.18877375399E+03  0.20064135000E+03  0.47000000000E+01 0. -1.
        -11    1    6    6    0    0  0.43791542361E+02 -0.51607208869E+02 -0.38991555593E+03  0.39574631261E+03  0.00000000000E+00 0.  1.
         12    1    6    6    0    0 -0.16956869309E+02  0.14501758831E+02 -0.22313900852E+03  0.22425176376E+03  0.00000000000E+00 0. -1.
         -5    1    3    3    0  503  0.18648418664E+02 -0.20128202055E+02 -0.53543073809E+03  0.53615396420E+03  0.47000000000E+01 0.  1.
         11    1    4    4    0    0  0.24533840341E+02 -0.24557224186E+02 -0.33808723128E+02  0.48456128004E+02  0.00000000000E+00 0. -1.
        -12    1    4    4    0    0 -0.29855622577E+02  0.27142908727E+02 -0.12717576718E+03  0.13342327927E+03  0.00000000000E+00 0.  1.
<mgrwt>
<rscale>  2 0.17482393E+03</rscale>
<asrwt>0</asrwt>
<pdfrwt beam="1">  1       21 0.31099408E-02 0.17486495E+03</pdfrwt>
<pdfrwt beam="2">  1       21 0.23360907E+00 0.17486495E+03</pdfrwt>
<totfact> 0.50255116E+04</totfact>
</mgrwt>
</event>
<event>
12    1  0.1074575E-001  0.1847747E+03  0.7546771E-02  0.1163474E+00
         21   -1    0    0  501  502  0.00000000000E+00  0.00000000000E+00  0.17824227415E+03  0.17824227415E+03  0.00000000000E+00 0. -1.
         21   -1    0    0  502  503 -0.00000000000E+00 -0.00000000000E+00 -0.68756977789E+03  0.68756977789E+03  0.00000000000E+00 0. -1.
         -6    2    1    2    0  503 -0.62062231793E+02  0.19898940226E+02 -0.62288182351E+03  0.64971027923E+03  0.17289879247E+03 0.  0.
        -24    2    3    3    0    0  0.10919908742E+02  0.21489574456E+02 -0.15985593096E+03  0.18094169013E+03  0.81270722566E+02 0.  0.
          6    2    1    2  501    0  0.62062231793E+02 -0.19898940226E+02  0.11355431977E+03  0.21610177281E+03  0.17192354184E+03 0.  0.
         24    2    5    5    0    0  0.10021209557E+03  0.29405491285E+02  0.66898093556E+02  0.13809387246E+03  0.60724094666E+02 0.  0.
          5    1    5    5  501    0 -0.38149863779E+02 -0.49304431511E+02  0.46656226212E+02  0.78007900352E+02  0.47000000000E+01 0. -1.
        -11    1    6    6    0    0  0.76983525389E+02 -0.71091792037E+01  0.38858785258E+02  0.86527503153E+02  0.00000000000E+00 0.  1.
         12    1    6    6    0    0  0.23228570183E+02  0.36514670489E+02  0.28039308298E+02  0.51566369307E+02  0.00000000000E+00 0. -1.
         -5    1    3    3    0  503 -0.72982140535E+02 -0.15906342302E+01 -0.46302589255E+03  0.46876858910E+03  0.47000000000E+01 0.  1.
         11    1    4    4    0    0  0.21571080565E+02  0.39510688149E+02 -0.15209352912E+03  0.15861540781E+03  0.00000000000E+00 0. -1.
        -12    1    4    4    0    0 -0.10651171823E+02 -0.18021113693E+02 -0.77624018451E+01  0.22326282323E+02  0.00000000000E+00 0.  1.
<mgrwt>
<rscale>  2 0.18454619E+03</rscale>
<asrwt>0</asrwt>
<pdfrwt beam="1">  1       21 0.27421888E-01 0.18477468E+03</pdfrwt>
<pdfrwt beam="2">  1       21 0.10577997E+00 0.18477468E+03</pdfrwt>
<totfact> 0.91561126E+03</totfact>
</mgrwt>
</event>
<event>
12    1  0.1074575E-001  0.2078066E+03  0.7546771E-02  0.1143435E+00
         21   -1    0    0  503  502  0.00000000000E+00  0.00000000000E+00  0.25799776423E+03  0.25799776423E+03  0.00000000000E+00 0. -1.
         21   -1    0    0  501  503 -0.00000000000E+00 -0.00000000000E+00 -0.19040924485E+03  0.19040924485E+03  0.00000000000E+00 0.  1.
          6    2    1    2  501    0  0.70974757268E+02 -0.89587818752E+02 -0.44945971434E+02  0.21261166772E+03  0.17355168528E+03 0.  0.
         24    2    3    3    0    0  0.10368824995E+03 -0.42130452369E+02  0.27736782832E+01  0.13763414311E+03  0.80057703335E+02 0.  0.
         -6    2    1    2    0  502 -0.70974757268E+02  0.89587818752E+02  0.11253449081E+03  0.23579534136E+03  0.17283529139E+03 0.  0.
        -24    2    5    5    0    0  0.26486402442E+02  0.34465704911E+02  0.78902391848E+02  0.11878964421E+03  0.77433699396E+02 0.  0.
          5    1    3    3  501    0 -0.32713492684E+02 -0.47457366382E+02 -0.47719649717E+02  0.74977524610E+02  0.47000000000E+01 0. -1.
        -11    1    4    4    0    0 -0.86867065501E+01 -0.19350153050E+02 -0.75392335156E+01  0.22510604962E+02  0.00000000000E+00 0.  1.
         12    1    4    4    0    0  0.11237495650E+03 -0.22780299320E+02  0.10312911799E+02  0.11512353815E+03  0.00000000000E+00 0. -1.
         -5    1    5    5    0  502 -0.97461159710E+02  0.55122113841E+02  0.33632098961E+02  0.11700569716E+03  0.47000000000E+01 0.  1.
         11    1    6    6    0    0  0.18549782751E+01  0.23130666594E+01  0.78224727150E+02  0.78280899072E+02  0.00000000000E+00 0. -1.
        -12    1    6    6    0    0  0.24631424167E+02  0.32152638252E+02  0.67766469840E+00  0.40508745136E+02  0.00000000000E+00 0.  1.
<mgrwt>
<rscale>  2 0.20765695E+03</rscale>
<asrwt>0</asrwt>
<pdfrwt beam="1">  1       21 0.39691964E-01 0.20780659E+03</pdfrwt>
<pdfrwt beam="2">  1       21 0.29293730E-01 0.20780659E+03</pdfrwt>
<totfact> 0.67830722E+04</totfact>
</mgrwt>
</event>
<event>
12    1  0.1074575E-001  0.2429487E+03  0.7546771E-02  0.1118005E+00
         21   -1    0    0  501  502  0.00000000000E+00  0.00000000000E+00  0.14123266710E+03  0.14123266710E+03  0.00000000000E+00 0.  1.
         21   -1    0    0  502  503 -0.00000000000E+00 -0.00000000000E+00 -0.93253417132E+03  0.93253417132E+03  0.00000000000E+00 0.  1.
         -6    2    1    2    0  503  0.94698823184E+02 -0.14141312485E+03 -0.79548776094E+03  0.83176008018E+03  0.17337391436E+03 0.  0.
        -24    2    3    3    0    0  0.74879074862E+02 -0.81641811441E+02 -0.71396029257E+03  0.72863757813E+03  0.94345957353E+02 0.  0.
          6    2    1    2  501    0 -0.94698823184E+02  0.14141312485E+03  0.41862567143E+01  0.24200675824E+03  0.17200060261E+03 0.  0.
         24    2    5    5    0    0 -0.10459925678E+03  0.16552364904E+03  0.17439889767E+02  0.21239114157E+03  0.80416194579E+02 0.  0.
          5    1    5    5  501    0  0.99004335969E+01 -0.24110524191E+02 -0.13253633052E+02  0.29615616678E+02  0.47000000000E+01 0. -1.
        -13    1    6    6    0    0 -0.91125066935E+02  0.16477587888E+03 -0.25032116753E+01  0.18831126932E+03  0.00000000000E+00 0.  1.
         14    1    6    6    0    0 -0.13474189846E+02  0.74777015787E+00  0.19943101442E+02  0.24079872245E+02  0.00000000000E+00 0. -1.
         -5    1    3    3    0  503  0.19819748322E+02 -0.59771313406E+02 -0.81527468366E+02  0.10312250205E+03  0.47000000000E+01 0.  1.
         13    1    4    4    0    0 -0.80435576626E+01 -0.56731693930E+02 -0.23270089955E+03  0.23965160664E+03  0.00000000000E+00 0. -1.
        -14    1    4    4    0    0  0.82922632524E+02 -0.24910117510E+02 -0.48125939302E+03  0.48898597149E+03  0.00000000000E+00 0.  1.
<mgrwt>
<rscale>  2 0.24270376E+03</rscale>
<asrwt>0</asrwt>
<pdfrwt beam="1">  1       21 0.21728103E-01 0.24294866E+03</pdfrwt>
<pdfrwt beam="2">  1       21 0.14346679E+00 0.24294866E+03</pdfrwt>
<totfact> 0.63955129E+03</totfact>
</mgrwt>
</event>
<event>
12    1  0.1074575E-001  0.2231517E+03  0.7546771E-02  0.1131797E+00
         21   -1    0    0  501  502  0.00000000000E+00  0.00000000000E+00  0.29743070709E+03  0.29743070709E+03  0.00000000000E+00 0. -1.
         21   -1    0    0  502  503 -0.00000000000E+00 -0.00000000000E+00 -0.21272251373E+03  0.21272251373E+03  0.00000000000E+00 0. -1.
         -6    2    1    2    0  503 -0.12833904128E+03  0.53529904525E+02  0.16143923786E+03  0.27542565444E+03  0.17452880394E+03 0.  0.
        -24    2    3    3    0    0 -0.91596805271E+01  0.31166125763E+02  0.20786443659E+02  0.89659249646E+02  0.80941198809E+02 0.  0.
          6    2    1    2  501    0  0.12833904128E+03 -0.53529904525E+02 -0.76731044505E+02  0.23472756638E+03  0.17283812378E+03 0.  0.
         24    2    5    5    0    0  0.10258577807E+03 -0.94067882771E+02 -0.22861177563E+02  0.16240460453E+03  0.80498532295E+02 0.  0.
          5    1    5    5  501    0  0.25753263210E+02  0.40537978246E+02 -0.53869866942E+02  0.72322961849E+02  0.47000000000E+01 0. -1.
        -11    1    6    6    0    0  0.49047869072E+02 -0.15076522315E+01  0.10911272047E+02  0.50269497048E+02  0.00000000000E+00 0.  1.
         12    1    6    6    0    0  0.53537908999E+02 -0.92560230539E+02 -0.33772449610E+02  0.11213510748E+03  0.00000000000E+00 0. -1.
         -5    1    3    3    0  503 -0.11917936075E+03  0.22363778762E+02  0.14065279421E+03  0.18576640479E+03  0.47000000000E+01 0.  1.
         13    1    4    4    0    0 -0.23772771327E+02 -0.23705665806E+01 -0.22615200284E+02  0.32896983545E+02  0.00000000000E+00 0. -1.
        -14    1    4    4    0    0  0.14613090800E+02  0.33536692344E+02  0.43401643943E+02  0.56762266102E+02  0.00000000000E+00 0.  1.
<mgrwt>
<rscale>  2 0.22282098E+03</rscale>
<asrwt>0</asrwt>
<pdfrwt beam="1">  1       21 0.45758570E-01 0.22315166E+03</pdfrwt>
<pdfrwt beam="2">  1       21 0.32726541E-01 0.22315166E+03</pdfrwt>
<totfact> 0.40529437E+04</totfact>
</mgrwt>
</event>
<event>
12    1  0.1074575E-001  0.2414374E+03  0.7546771E-02  0.1118976E+00
         21   -1    0    0  501  502  0.00000000000E+00  0.00000000000E+00  0.34689996187E+03  0.34689996187E+03  0.00000000000E+00 0. -1.
         21   -1    0    0  502  503 -0.00000000000E+00 -0.00000000000E+00 -0.22771089379E+03  0.22771089379E+03  0.00000000000E+00 0. -1.
         -6    2    1    2    0  503 -0.56240662380E+02 -0.15634216347E+03 -0.88112940249E+02  0.25701345503E+03  0.17517460330E+03 0.  0.
        -24    2    3    3    0    0 -0.23027142034E+01 -0.16303879358E+03 -0.48076651004E+02  0.18934410033E+03  0.83383890849E+02 0.  0.
          6    2    1    2  501    0  0.56240662380E+02  0.15634216347E+03  0.20730200833E+03  0.31759740064E+03  0.17403477254E+03 0.  0.
         24    2    5    5    0    0  0.69346884431E+02  0.18228151420E+03  0.17913591724E+03  0.27685379181E+03  0.80763880508E+02 0.  0.
          5    1    5    5  501    0 -0.13106222051E+02 -0.25939350736E+02  0.28166091088E+02  0.40743608827E+02  0.47000000000E+01 0. -1.
        -13    1    6    6    0    0  0.34418904251E+02  0.10922853170E+02  0.27568950653E+02  0.45431450905E+02  0.00000000000E+00 0.  1.
         14    1    6    6    0    0  0.34927980180E+02  0.17135866103E+03  0.15156696659E+03  0.23142234091E+03  0.00000000000E+00 0. -1.
         -5    1    3    3    0  503 -0.53937948176E+02  0.66966301133E+01 -0.40036289245E+02  0.67669354695E+02  0.47000000000E+01 0.  1.
         11    1    4    4    0    0 -0.22510023467E+02 -0.70196547653E+02  0.15091897684E+02  0.75246407453E+02  0.00000000000E+00 0. -1.
        -12    1    4    4    0    0  0.20207309263E+02 -0.92842245928E+02 -0.63168548688E+02  0.11409769288E+03  0.00000000000E+00 0.  1.
<mgrwt>
<rscale>  2 0.24123072E+03</rscale>
<asrwt>0</asrwt>
<pdfrwt beam="1">  1       21 0.53369225E-01 0.24143742E+03</pdfrwt>
<pdfrwt beam="2">  1       21 0.35032445E-01 0.24143742E+03</pdfrwt>
<totfact> 0.25443152E+04</totfact>
</mgrwt>
</event>
<event>
12    1  0.1074575E-001  0.1900953E+03  0.7546771E-02  0.1158382E+00
         21   -1    0    0  501  502  0.00000000000E+00  0.00000000000E+00  0.42036018924E+02  0.42036018924E+02  0.00000000000E+00 0.  1.
         21   -1    0    0  502  503 -0.00000000000E+00 -0.00000000000E+00 -0.96921087720E+03  0.96921087720E+03  0.00000000000E+00 0. -1.
         -6    2    1    2    0  503 -0.65473897980E+02  0.42482890231E+02 -0.63365634017E+03  0.66154798337E+03  0.17330248005E+03 0.  0.
        -24    2    3    3    0    0 -0.10088943764E+03  0.68682813284E+02 -0.49536883948E+03  0.51633703591E+03  0.79483583545E+02 0.  0.
          6    2    1    2  501    0  0.65473897980E+02 -0.42482890231E+02 -0.29351851811E+03  0.34969891275E+03  0.17333372963E+03 0.  0.
         24    2    5    5    0    0  0.80105441430E+01 -0.62433159669E+02 -0.84160991371E+02  0.13163306424E+03  0.79259844114E+02 0.  0.
          5    1    5    5  501    0  0.57463353836E+02  0.19950269438E+02 -0.20935752674E+03  0.21806584851E+03  0.47000000000E+01 0. -1.
        -13    1    6    6    0    0  0.13693635888E+02  0.12026937361E+02  0.11420154044E+01  0.18261081165E+02  0.00000000000E+00 0.  1.
         14    1    6    6    0    0 -0.56830917448E+01 -0.74460097030E+02 -0.85303006776E+02  0.11337198308E+03  0.00000000000E+00 0. -1.
         -5    1    3    3    0  503  0.35415539665E+02 -0.26199923053E+02 -0.13828750069E+03  0.14521094747E+03  0.47000000000E+01 0.  1.
         13    1    4    4    0    0 -0.30542744637E+02  0.32696351708E+02 -0.33045496283E+03  0.33347022825E+03  0.00000000000E+00 0. -1.
        -14    1    4    4    0    0 -0.70346693007E+02  0.35986461576E+02 -0.16491387665E+03  0.18286680766E+03  0.00000000000E+00 0.  1.
<mgrwt>
<rscale>  2 0.19008814E+03</rscale>
<asrwt>0</asrwt>
<pdfrwt beam="1">  1       21 0.64670807E-02 0.19009526E+03</pdfrwt>
<pdfrwt beam="2">  1       21 0.14910935E+00 0.19009526E+03</pdfrwt>
<totfact> 0.52717083E+04</totfact>
</mgrwt>
</event>
<event>
12    1  0.1074575E-001  0.2089686E+03  0.7546771E-02  0.1142493E+00
         21   -1    0    0  503  502  0.00000000000E+00  0.00000000000E+00  0.74276595650E+03  0.74276595650E+03  0.00000000000E+00 0.  1.
         21   -1    0    0  501  503 -0.00000000000E+00 -0.00000000000E+00 -0.71334184069E+02  0.71334184069E+02  0.00000000000E+00 0.  1.
          6    2    1    2  501    0 -0.64504434182E+01 -0.11574819428E+03  0.16435647085E+03  0.26585888095E+03  0.17386386160E+03 0.  0.
         24    2    3    3    0    0  0.52245354610E+02 -0.83662022524E+02  0.58227374333E+02  0.14031926867E+03  0.81056516997E+02 0.  0.
         -6    2    1    2    0  502  0.64504434182E+01  0.11574819428E+03  0.50707530158E+03  0.54824125961E+03  0.17321623645E+03 0.  0.
        -24    2    5    5    0    0 -0.86011587854E+00 -0.11024781451E+02  0.16969734291E+03  0.18772661546E+03  0.79509800377E+02 0.  0.
          5    1    3    3  501    0 -0.58695798028E+02 -0.32086171758E+02  0.10612909652E+03  0.12553961228E+03  0.47000000000E+01 0. -1.
        -11    1    4    4    0    0  0.13935727827E+02 -0.65489915653E+02 -0.16175901574E+01  0.66975743073E+02  0.00000000000E+00 0.  1.
         12    1    4    4    0    0  0.38309626783E+02 -0.18172106871E+02  0.59844964490E+02  0.73343525598E+02  0.00000000000E+00 0. -1.
         -5    1    5    5    0  502  0.73105592967E+01  0.12677297573E+03  0.33737795867E+03  0.36051464415E+03  0.47000000000E+01 0.  1.
         11    1    6    6    0    0  0.28006003509E+01  0.71347055098E+01 -0.68081033435E+01  0.10251714792E+02  0.00000000000E+00 0. -1.
        -12    1    6    6    0    0 -0.36607162295E+01 -0.18159486961E+02  0.17650544625E+03  0.17747490067E+03  0.00000000000E+00 0.  1.
<mgrwt>
<rscale>  2 0.20883389E+03</rscale>
<asrwt>0</asrwt>
<pdfrwt beam="1">  1       21 0.11427168E+00 0.20896865E+03</pdfrwt>
<pdfrwt beam="2">  1       21 0.10974490E-01 0.20896865E+03</pdfrwt>
<totfact> 0.40611129E+04</totfact>
</mgrwt>
</event>
<event>
12    1  0.1074575E-001  0.1759773E+03  0.7546771E-02  0.1171863E+00
         21   -1    0    0  501  502  0.00000000000E+00  0.00000000000E+00  0.30949637551E+02  0.30949637551E+02  0.00000000000E+00 0. -1.
         21   -1    0    0  502  503 -0.00000000000E+00 -0.00000000000E+00 -0.18472127405E+04  0.18472127405E+04  0.00000000000E+00 0. -1.
         -6    2    1    2    0  503 -0.11445267985E+02 -0.32211651863E+02 -0.15442048738E+04  0.15541505317E+04  0.17218187629E+03 0.  0.
        -24    2    3    3    0    0  0.25696348675E+02 -0.58457316242E+02 -0.58170976062E+03  0.59057009017E+03  0.79430634147E+02 0.  0.
          6    2    1    2  501    0  0.11445267985E+02  0.32211651863E+02 -0.27205822921E+03  0.32401184632E+03  0.17262506133E+03 0.  0.
         24    2    5    5    0    0  0.47086408256E+02  0.65529334064E+02 -0.12485069808E+03  0.16885867668E+03  0.80089527495E+02 0.  0.
          5    1    5    5  501    0 -0.35641140271E+02 -0.33317682202E+02 -0.14720753113E+03  0.15515316964E+03  0.47000000000E+01 0. -1.
        -13    1    6    6    0    0  0.26677799117E+02  0.75629087545E+02 -0.12187554921E+03  0.14589418543E+03  0.00000000000E+00 0.  1.
         14    1    6    6    0    0  0.20408609139E+02 -0.10099753481E+02 -0.29751488689E+01  0.22964491246E+02  0.00000000000E+00 0. -1.
         -5    1    3    3    0  503 -0.37141616660E+02  0.26245664379E+02 -0.96249511313E+03  0.96358044158E+03  0.47000000000E+01 0.  1.
         13    1    4    4    0    0 -0.27095147057E+02 -0.19531853362E+02 -0.26825193996E+03  0.27032340554E+03  0.00000000000E+00 0. -1.
        -14    1    4    4    0    0  0.52791495732E+02 -0.38925462880E+02 -0.31345782066E+03  0.32024668463E+03  0.00000000000E+00 0.  1.
<mgrwt>
<rscale>  2 0.17586848E+03</rscale>
<asrwt>0</asrwt>
<pdfrwt beam="1">  1       21 0.47614816E-02 0.17597726E+03</pdfrwt>
<pdfrwt beam="2">  1       21 0.28418664E+00 0.17597726E+03</pdfrwt>
<totfact> 0.12518481E+04</totfact>
</mgrwt>
</event>
<event>
12    1  0.1074575E-001  0.1941003E+03  0.7546771E-02  0.1155729E+00
         21   -1    0    0  501  502  0.00000000000E+00  0.00000000000E+00  0.11295571470E+03  0.11295571470E+03  0.00000000000E+00 0. -1.
         21   -1    0    0  502  503 -0.00000000000E+00 -0.00000000000E+00 -0.33211299931E+03  0.33211299931E+03  0.00000000000E+00 0. -1.
         -6    2    1    2    0  503  0.84159774661E+02  0.22280359258E+02 -0.13969620997E+03  0.23914423677E+03  0.17348098691E+03 0.  0.
        -24    2    3    3    0    0  0.86683460984E+02  0.61233672919E+02 -0.14783021480E+03  0.19899474521E+03  0.80508080996E+02 0.  0.
          6    2    1    2  501    0 -0.84159774661E+02 -0.22280359258E+02 -0.79461074642E+02  0.20592447724E+03  0.16885362260E+03 0.  0.
         24    2    5    5    0    0 -0.10600970779E+03 -0.58388560696E+02 -0.47087815263E+02  0.15252653991E+03  0.79998755395E+02 0.  0.
          5    1    5    5  501    0  0.21849933127E+02  0.36108201438E+02 -0.32373259378E+02  0.53397937333E+02  0.47000000000E+01 0. -1.
        -11    1    6    6    0    0 -0.61118883687E+02 -0.34425502139E+02 -0.67827003371E+02  0.97576306176E+02  0.00000000000E+00 0.  1.
         12    1    6    6    0    0 -0.44890824101E+02 -0.23963058557E+02  0.20739188108E+02  0.54950233732E+02  0.00000000000E+00 0. -1.
         -5    1    3    3    0  503 -0.25236863230E+01 -0.38953313661E+02  0.81340048257E+01  0.40149491558E+02  0.47000000000E+01 0.  1.
         11    1    4    4    0    0  0.74589643945E+02  0.10466220967E+02 -0.57838920027E+02  0.94965769807E+02  0.00000000000E+00 0. -1.
        -12    1    4    4    0    0  0.12093817040E+02  0.50767451953E+02 -0.89991294773E+02  0.10402897540E+03  0.00000000000E+00 0.  1.
<mgrwt>
<rscale>  2 0.19306089E+03</rscale>
<asrwt>0</asrwt>
<pdfrwt beam="1">  1       21 0.17377803E-01 0.19410032E+03</pdfrwt>
<pdfrwt beam="2">  1       21 0.51094306E-01 0.19410032E+03</pdfrwt>
<totfact> 0.10905590E+05</totfact>
</mgrwt>
</event>
<event>
12    1  0.1074575E-001  0.1866596E+03  0.7546771E-02  0.1161586E+00
         21   -1    0    0  501  502  0.00000000000E+00  0.00000000000E+00  0.88615212065E+02  0.88615212065E+02  0.00000000000E+00 0. -1.
         21   -1    0    0  502  503 -0.00000000000E+00 -0.00000000000E+00 -0.43622839009E+03  0.43622839009E+03  0.00000000000E+00 0.  1.
         -6    2    1    2    0  503  0.69745798882E+02 -0.69646742049E+01 -0.25677302828E+03  0.31725330316E+03  0.17263918202E+03 0.  0.
        -24    2    3    3    0    0 -0.59325658598E+01 -0.30986024753E+02 -0.60273061280E+02  0.10526611675E+03  0.80329224774E+02 0.  0.
          6    2    1    2  501    0 -0.69745798882E+02  0.69646742049E+01 -0.90840149748E+02  0.20759029899E+03  0.17299946902E+03 0.  0.
         24    2    5    5    0    0  0.24054695159E+02  0.25705095497E+02 -0.62151870126E+02  0.10761608501E+03  0.80492151790E+02 0.  0.
          5    1    5    5  501    0 -0.93800494041E+02 -0.18740421292E+02 -0.28688279622E+02  0.99974213977E+02  0.47000000000E+01 0. -1.
        -11    1    6    6    0    0 -0.16338041227E+02 -0.17957961675E+02 -0.43285155073E+01  0.24660819637E+02  0.00000000000E+00 0.  1.
         12    1    6    6    0    0  0.40392736386E+02  0.43663057173E+02 -0.57823354619E+02  0.82955265377E+02  0.00000000000E+00 0. -1.
         -5    1    3    3    0  503  0.75678364742E+02  0.24021350548E+02 -0.19649996700E+03  0.21198718641E+03  0.47000000000E+01 0.  1.
         11    1    4    4    0    0  0.68359232893E+01  0.49546136740E+01  0.17062207767E+02  0.19036727076E+02  0.00000000000E+00 0. -1.
        -12    1    4    4    0    0 -0.12768489149E+02 -0.35940638427E+02 -0.77335269047E+02  0.86229389678E+02  0.00000000000E+00 0.  1.
<mgrwt>
<rscale>  2 0.18657606E+03</rscale>
<asrwt>0</asrwt>
<pdfrwt beam="1">  1       21 0.13633109E-01 0.18665958E+03</pdfrwt>
<pdfrwt beam="2">  1       21 0.67112061E-01 0.18665958E+03</pdfrwt>
<totfact> 0.95047538E+04</totfact>
</mgrwt>
</event>
<event>
12    1  0.1074575E-001  0.1932387E+03  0.7546771E-02  0.1155835E+00
         21   -1    0    0  501  502  0.00000000000E+00  0.00000000000E+00  0.50147937144E+03  0.50147937144E+03  0.00000000000E+00 0.  1.
         21   -1    0    0  502  503 -0.00000000000E+00 -0.00000000000E+00 -0.76841757193E+02  0.76841757193E+02  0.00000000000E+00 0.  1.
         -6    2    1    2    0  503  0.74699040441E+02  0.36453949443E+02  0.15613107704E+03  0.24750855013E+03  0.17313212324E+03 0.  0.
        -24    2    3    3    0    0  0.69007102149E+02 -0.41176185883E+02  0.83614048798E+02  0.14102077874E+03  0.80237724593E+02 0.  0.
          6    2    1    2  501    0 -0.74699040441E+02 -0.36453949443E+02  0.26850653721E+03  0.33081257850E+03  0.17444874461E+03 0.  0.
         24    2    5    5    0    0 -0.70389690171E+02 -0.32879991919E+02  0.68872366331E+02  0.13104462348E+03  0.79959290562E+02 0.  0.
          5    1    5    5  501    0 -0.43093502698E+01 -0.35739575237E+01  0.19963417088E+03  0.19976795502E+03  0.47000000000E+01 0. -1.
        -11    1    6    6    0    0  0.11051616028E+02 -0.12452083496E+02  0.38170241792E+02  0.41643246255E+02  0.00000000000E+00 0.  1.
         12    1    6    6    0    0 -0.81441306199E+02 -0.20427908423E+02  0.30702124539E+02  0.89401377221E+02  0.00000000000E+00 0. -1.
         -5    1    3    3    0  503  0.56919382915E+01  0.77630135326E+02  0.72517028238E+02  0.10648777140E+03  0.47000000000E+01 0.  1.
         13    1    4    4    0    0  0.59869665007E+02 -0.50477029449E+02  0.95414609237E+02  0.12343522571E+03  0.00000000000E+00 0. -1.
        -14    1    4    4    0    0  0.91374371424E+01  0.93008435656E+01 -0.11800560439E+02  0.17585553026E+02  0.00000000000E+00 0.  1.
<mgrwt>
<rscale>  2 0.19294109E+03</rscale>
<asrwt>0</asrwt>
<pdfrwt beam="1">  1       21 0.77150670E-01 0.19323872E+03</pdfrwt>
<pdfrwt beam="2">  1       21 0.11821809E-01 0.19323872E+03</pdfrwt>
<totfact> 0.89936166E+04</totfact>
</mgrwt>
</event>
<event>
12    1  0.1074575E-001  0.2337356E+03  0.7546771E-02  0.1124093E+00
         21   -1    0    0  501  502  0.00000000000E+00  0.00000000000E+00  0.51617049360E+02  0.51617049360E+02  0.00000000000E+00 0. -1.
         21   -1    0    0  502  503 -0.00000000000E+00 -0.00000000000E+00 -0.14717927085E+04  0.14717927085E+04  0.00000000000E+00 0. -1.
         -6    2    1    2    0  503 -0.88827730834E+02 -0.12962877452E+03 -0.11141252843E+04  0.11383134779E+04  0.17259327930E+03 0.  0.
        -24    2    3    3    0    0 -0.86339401927E+02 -0.11636293438E+03 -0.11115821127E+04  0.11237968662E+04  0.79434113603E+02 0.  0.
          6    2    1    2  501    0  0.88827730834E+02  0.12962877452E+03 -0.30605037484E+03  0.38509627989E+03  0.17302695714E+03 0.  0.
         24    2    5    5    0    0  0.90246731488E+01  0.12810284115E+03 -0.17214000798E+03  0.22913175559E+03  0.79858602761E+02 0.  0.
          5    1    5    5  501    0  0.79803057686E+02  0.15259333665E+01 -0.13391036686E+03  0.15596452430E+03  0.47000000000E+01 0. -1.
        -13    1    6    6    0    0 -0.49862511822E+01  0.47371791879E+02 -0.11807183011E+02  0.49075033747E+02  0.00000000000E+00 0.  1.
         14    1    6    6    0    0  0.14010924331E+02  0.80731049273E+02 -0.16033282497E+03  0.18005672184E+03  0.00000000000E+00 0. -1.
         -5    1    3    3    0  503 -0.24883289072E+01 -0.13265840139E+02 -0.25431716066E+01  0.14516611766E+02  0.47000000000E+01 0.  1.
         11    1    4    4    0    0 -0.32069137664E+02 -0.54903686323E+02 -0.76545447297E+03  0.76809074630E+03  0.00000000000E+00 0. -1.
        -12    1    4    4    0    0 -0.54270264263E+02 -0.61459248056E+02 -0.34612763968E+03  0.35570611986E+03  0.00000000000E+00 0.  1.
<mgrwt>
<rscale>  2 0.23365531E+03</rscale>
<asrwt>0</asrwt>
<pdfrwt beam="1">  1       21 0.79410859E-02 0.23373556E+03</pdfrwt>
<pdfrwt beam="2">  1       21 0.22642961E+00 0.23373556E+03</pdfrwt>
<totfact> 0.10797810E+04</totfact>
</mgrwt>
</event>
<event>
12    1  0.1074575E-001  0.1736968E+03  0.7546771E-02  0.1174084E+00
         21   -1    0    0  503  502  0.00000000000E+00  0.00000000000E+00  0.14643470557E+03  0.14643470557E+03  0.00000000000E+00 0. -1.
         21   -1    0    0  501  503 -0.00000000000E+00 -0.00000000000E+00 -0.95874626328E+03  0.95874626328E+03  0.00000000000E+00 0. -1.
          6    2    1    2  501    0 -0.14369914239E+02 -0.15884138932E+02 -0.89580321946E+03  0.91245983513E+03  0.17222294399E+03 0.  0.
         24    2    3    3    0    0 -0.46648142545E+02 -0.33429849829E+02 -0.83839952680E+03  0.84414431769E+03  0.79826427201E+02 0.  0.
         -6    2    1    2    0  502  0.14369914239E+02  0.15884138932E+02  0.83491661746E+02  0.19272113372E+03  0.17237104599E+03 0.  0.
        -24    2    5    5    0    0  0.76406041999E+02  0.15816813505E+02  0.54983559697E+02  0.12428658424E+03  0.79598419216E+02 0.  0.
          5    1    3    3  501    0  0.32278228305E+02  0.17545710897E+02 -0.57403692654E+02  0.68315517445E+02  0.47000000000E+01 0. -1.
        -13    1    4    4    0    0 -0.36858527644E+02  0.19855324366E+02 -0.45742251747E+03  0.45933445816E+03  0.00000000000E+00 0.  1.
         14    1    4    4    0    0 -0.97896149007E+01 -0.53285174195E+02 -0.38097700934E+03  0.38480985953E+03  0.00000000000E+00 0. -1.
         -5    1    5    5    0  502 -0.62036127760E+02  0.67325427466E-01  0.28508102049E+02  0.68434549480E+02  0.47000000000E+01 0.  1.
         11    1    6    6    0    0  0.25543255789E+02 -0.30381340822E+01  0.64293446550E+02  0.69248360589E+02  0.00000000000E+00 0. -1.
        -12    1    6    6    0    0  0.50862786210E+02  0.18854947587E+02 -0.93098868521E+01  0.55038223651E+02  0.00000000000E+00 0.  1.
<mgrwt>
<rscale>  2 0.17366004E+03</rscale>
<asrwt>0</asrwt>
<pdfrwt beam="1">  1       21 0.22528415E-01 0.17369680E+03</pdfrwt>
<pdfrwt beam="2">  1       21 0.14749943E+00 0.17369680E+03</pdfrwt>
<totfact> 0.58594121E+03</totfact>
</mgrwt>
</event>
<event>
12    1  0.1074575E-001  0.1887040E+03  0.7546771E-02  0.1159970E+00
         21   -1    0    0  501  502  0.00000000000E+00  0.00000000000E+00  0.22364399608E+03  0.22364399608E+03  0.00000000000E+00 0. -1.
         21   -1    0    0  502  503 -0.00000000000E+00 -0.00000000000E+00 -0.15875106200E+03  0.15875106200E+03  0.00000000000E+00 0.  1.
         -6    2    1    2    0  503  0.12543694017E+02  0.74279242000E+02  0.19071812288E+02  0.18820759678E+03  0.17141649690E+03 0.  0.
        -24    2    3    3    0    0 -0.91664936291E+01  0.93864763710E+02 -0.33357542090E+02  0.12799254792E+03  0.79842020495E+02 0.  0.
          6    2    1    2  501    0 -0.12543694017E+02 -0.74279242000E+02  0.45821121799E+02  0.19418746130E+03  0.17301573591E+03 0.  0.
         24    2    5    5    0    0  0.60002697604E+02 -0.27072371392E+02  0.37941689520E+02  0.10714929138E+03  0.75552378043E+02 0.  0.
          5    1    5    5  501    0 -0.72546391621E+02 -0.47206870608E+02  0.78794322781E+01  0.87038169919E+02  0.47000000000E+01 0. -1.
        -13    1    6    6    0    0  0.29814898916E+02  0.24325836055E+02  0.25769807967E+02  0.46311526641E+02  0.00000000000E+00 0.  1.
         14    1    6    6    0    0  0.30187798688E+02 -0.51398207447E+02  0.12171881553E+02  0.60837764743E+02  0.00000000000E+00 0. -1.
         -5    1    3    3    0  503  0.21710187646E+02 -0.19585521711E+02  0.52429354379E+02  0.60215048857E+02  0.47000000000E+01 0.  1.
         11    1    4    4    0    0 -0.99849631771E+01 -0.70653132859E+01  0.12180304496E+02  0.17262038092E+02  0.00000000000E+00 0. -1.
        -12    1    4    4    0    0  0.81846954803E+00  0.10093007700E+03 -0.45537846587E+02  0.11073050983E+03  0.00000000000E+00 0.  1.
<mgrwt>
<rscale>  2 0.18833662E+03</rscale>
<asrwt>0</asrwt>
<pdfrwt beam="1">  1       21 0.34406769E-01 0.18870399E+03</pdfrwt>
<pdfrwt beam="2">  1       21 0.24423240E-01 0.18870399E+03</pdfrwt>
<totfact> 0.12909250E+05</totfact>
</mgrwt>
</event>
<event>
12    1  0.1074575E-001  0.2002771E+03  0.7546771E-02  0.1150141E+00
         21   -1    0    0  503  502  0.00000000000E+00  0.00000000000E+00  0.18077869358E+03  0.18077869358E+03  0.00000000000E+00 0. -1.
         21   -1    0    0  501  503 -0.00000000000E+00 -0.00000000000E+00 -0.49094384648E+03  0.49094384648E+03  0.00000000000E+00 0. -1.
          6    2    1    2  501    0  0.21695931800E+02  0.92451591529E+02 -0.40472218183E+03  0.45024576795E+03  0.17292540838E+03 0.  0.
         24    2    3    3    0    0  0.32632377972E+02 -0.98958412704E+01 -0.10906493780E+03  0.13714850064E+03  0.75840298015E+02 0.  0.
         -6    2    1    2    0  502 -0.21695931800E+02 -0.92451591529E+02  0.94557028934E+02  0.22147677211E+03  0.17633184236E+03 0.  0.
        -24    2    5    5    0    0 -0.39477908844E+01 -0.75168912980E+01  0.10602788767E+03  0.13382649881E+03  0.81212869125E+02 0.  0.
          5    1    3    3  501    0 -0.10936446172E+02  0.10234743280E+03 -0.29565724403E+03  0.31309726732E+03  0.47000000000E+01 0. -1.
        -13    1    4    4    0    0  0.12029549065E+02  0.24544743086E+01  0.99068658415E+01  0.15775946426E+02  0.00000000000E+00 0.  1.
         14    1    4    4    0    0  0.20602828907E+02 -0.12350315579E+02 -0.11897180364E+03  0.12137255421E+03  0.00000000000E+00 0. -1.
         -5    1    5    5    0  502 -0.17748140916E+02 -0.84934700231E+02 -0.11470858740E+02  0.87650273299E+02  0.47000000000E+01 0.  1.
         13    1    6    6    0    0 -0.34222633365E+02 -0.21894387196E+02  0.85135893878E+02  0.94332779306E+02  0.00000000000E+00 0. -1.
        -14    1    6    6    0    0  0.30274842480E+02  0.14377495898E+02  0.20891993796E+02  0.39493719504E+02  0.00000000000E+00 0.  1.
<mgrwt>
<rscale>  2 0.19952476E+03</rscale>
<asrwt>0</asrwt>
<pdfrwt beam="1">  1       21 0.27812107E-01 0.20027713E+03</pdfrwt>
<pdfrwt beam="2">  1       21 0.75529821E-01 0.20027713E+03</pdfrwt>
<totfact> 0.19228273E+04</totfact>
</mgrwt>
</event>
<event>
12    1  0.1074575E-001  0.2015960E+03  0.7546771E-02  0.1148677E+00
         21   -1    0    0  501  502  0.00000000000E+00  0.00000000000E+00  0.43672599473E+03  0.43672599473E+03  0.00000000000E+00 0.  1.
         21   -1    0    0  502  503 -0.00000000000E+00 -0.00000000000E+00 -0.12744234207E+03  0.12744234207E+03  0.00000000000E+00 0. -1.
         -6    2    1    2    0  503  0.10327004068E+03 -0.73264794695E+00  0.30208775519E+03  0.36244398719E+03  0.17159077465E+03 0.  0.
        -24    2    3    3    0    0 -0.11379817202E+02  0.14385791996E+02  0.38389723654E+02  0.74464996687E+02  0.61113121328E+02 0.  0.
          6    2    1    2  501    0 -0.10327004068E+03  0.73264794695E+00  0.71958974730E+01  0.20172434961E+03  0.17313490176E+03 0.  0.
         24    2    5    5    0    0 -0.14013835619E+03 -0.14387671317E+01  0.18375879935E+02  0.16285186912E+03  0.80884049027E+02 0.  0.
          5    1    5    5  501    0  0.36868315503E+02  0.21714150787E+01 -0.11179982462E+02  0.38872480488E+02  0.47000000000E+01 0. -1.
        -11    1    6    6    0    0 -0.46237993502E+01  0.11956184203E+01  0.26635495053E+02  0.27060277541E+02  0.00000000000E+00 0.  1.
         12    1    6    6    0    0 -0.13551455684E+03 -0.26343855521E+01 -0.82596151178E+01  0.13579159158E+03  0.00000000000E+00 0. -1.
         -5    1    3    3    0  503  0.11464985789E+03 -0.15118439943E+02  0.26369803153E+03  0.28797899051E+03  0.47000000000E+01 0.  1.
         11    1    4    4    0    0  0.63813465136E+01  0.35566764993E+02  0.20625678659E+02  0.41606910190E+02  0.00000000000E+00 0. -1.
        -12    1    4    4    0    0 -0.17761163716E+02 -0.21180972998E+02  0.17764044995E+02  0.32858086497E+02  0.00000000000E+00 0.  1.
<mgrwt>
<rscale>  2 0.20126400E+03</rscale>
<asrwt>0</asrwt>
<pdfrwt beam="1">  1       21 0.67188614E-01 0.20159596E+03</pdfrwt>
<pdfrwt beam="2">  1       21 0.19606514E-01 0.20159596E+03</pdfrwt>
<totfact> 0.48353307E+04</totfact>
</mgrwt>
</event>
<event>
12    1  0.1074575E-001  0.3466303E+03  0.7546771E-02  0.1064057E+00
         21   -1    0    0  503  502  0.00000000000E+00  0.00000000000E+00  0.30374798075E+03  0.30374798075E+03  0.00000000000E+00 0. -1.
         21   -1    0    0  501  503 -0.00000000000E+00 -0.00000000000E+00 -0.43574666944E+03  0.43574666944E+03  0.00000000000E+00 0. -1.
          6    2    1    2  501    0  0.21486016983E+03  0.20994563345E+03 -0.17900787298E+03  0.38969122349E+03  0.17196909458E+03 0.  0.
         24    2    3    3    0    0  0.13566591229E+03  0.17632680694E+03 -0.18898974817E+03  0.30295205267E+03  0.81033565237E+02 0.  0.
         -6    2    1    2    0  502 -0.21486016983E+03 -0.20994563345E+03  0.47009184299E+02  0.34980342671E+03  0.17294655922E+03 0.  0.
        -24    2    5    5    0    0 -0.20456538044E+03 -0.17242127979E+03  0.88589810034E+02  0.29266238854E+03  0.78911511380E+02 0.  0.
          5    1    3    3  501    0  0.79194257536E+02  0.33618826504E+02  0.99818751920E+01  0.86739170820E+02  0.47000000000E+01 0. -1.
        -11    1    4    4    0    0  0.89174373263E+01  0.48382827096E+02 -0.12426217778E+02  0.50742778152E+02  0.00000000000E+00 0.  1.
         12    1    4    4    0    0  0.12674847496E+03  0.12794397985E+03 -0.17656353040E+03  0.25220927451E+03  0.00000000000E+00 0. -1.
         -5    1    5    5    0  502 -0.10294789391E+02 -0.37524353655E+02 -0.41580625735E+02  0.57141038163E+02  0.47000000000E+01 0.  1.
         13    1    6    6    0    0 -0.57002913586E+02 -0.70297273887E+02 -0.42711570225E+01  0.90605086257E+02  0.00000000000E+00 0. -1.
        -14    1    6    6    0    0 -0.14756246685E+03 -0.10212400591E+03  0.92860967057E+02  0.20205730229E+03  0.00000000000E+00 0.  1.
<mgrwt>
<rscale>  2 0.34650858E+03</rscale>
<asrwt>0</asrwt>
<pdfrwt beam="1">  1       21 0.46730459E-01 0.34663031E+03</pdfrwt>
<pdfrwt beam="2">  1       21 0.67037949E-01 0.34663031E+03</pdfrwt>
<totfact> 0.82258072E+03</totfact>
</mgrwt>
</event>
<event>
12    1  0.1074575E-001  0.1833866E+03  0.7546771E-02  0.1164907E+00
         21   -1    0    0  501  502  0.00000000000E+00  0.00000000000E+00  0.36123529912E+03  0.36123529912E+03  0.00000000000E+00 0.  1.
         21   -1    0    0  502  503 -0.00000000000E+00 -0.00000000000E+00 -0.95908742955E+02  0.95908742955E+02  0.00000000000E+00 0.  1.
         -6    2    1    2    0  503 -0.37277366338E+02  0.43122665043E+02  0.17607704277E+03  0.25319280478E+03  0.17278398399E+03 0.  0.
        -24    2    3    3    0    0  0.46010195132E+02  0.23133655680E+02  0.10729945379E+03  0.14324361135E+03  0.79708564962E+02 0.  0.
          6    2    1    2  501    0  0.37277366338E+02 -0.43122665043E+02  0.89249513397E+02  0.20395123729E+03  0.17430279765E+03 0.  0.
         24    2    5    5    0    0  0.54974132084E+02  0.33946451859E+02  0.72258574501E+02  0.12293515060E+03  0.75612385707E+02 0.  0.
          5    1    5    5  501    0 -0.17696765746E+02 -0.77069116902E+02  0.16990938896E+02  0.81016086690E+02  0.47000000000E+01 0. -1.
        -11    1    6    6    0    0  0.49561903277E+02 -0.56379238102E+01  0.13141491353E+02  0.51583594643E+02  0.00000000000E+00 0.  1.
         12    1    6    6    0    0  0.54122288071E+01  0.39584375669E+02  0.59117083148E+02  0.71351555958E+02  0.00000000000E+00 0. -1.
         -5    1    3    3    0  503 -0.83287561469E+02  0.19989009363E+02  0.68777588978E+02  0.10994919343E+03  0.47000000000E+01 0.  1.
         11    1    4    4    0    0  0.11237901363E+02 -0.28684851614E+02  0.23430764230E+02  0.38705449895E+02  0.00000000000E+00 0. -1.
        -12    1    4    4    0    0  0.34772293768E+02  0.51818507295E+02  0.83868689561E+02  0.10453816146E+03  0.00000000000E+00 0.  1.
<mgrwt>
<rscale>  2 0.18302475E+03</rscale>
<asrwt>0</asrwt>
<pdfrwt beam="1">  1       21 0.55574661E-01 0.18338656E+03</pdfrwt>
<pdfrwt beam="2">  1       21 0.14755191E-01 0.18338656E+03</pdfrwt>
<totfact> 0.12373752E+05</totfact>
</mgrwt>
</event>
<event>
12    1  0.1074575E-001  0.2273997E+03  0.7546771E-02  0.1129410E+00
         21   -1    0    0  501  502  0.00000000000E+00  0.00000000000E+00  0.49926729966E+03  0.49926729966E+03  0.00000000000E+00 0. -1.
         21   -1    0    0  502  503 -0.00000000000E+00 -0.00000000000E+00 -0.10171773440E+03  0.10171773440E+03  0.00000000000E+00 0. -1.
         -6    2    1    2    0  503 -0.11961216233E+03 -0.71781168779E+02  0.21685659354E+03  0.31053615043E+03  0.17305003031E+03 0.  0.
        -24    2    3    3    0    0 -0.14938217652E+02 -0.53409949232E+02  0.16572988339E+03  0.19251002242E+03  0.80733769021E+02 0.  0.
          6    2    1    2  501    0  0.11961216233E+03  0.71781168779E+02  0.18069297172E+03  0.29044888364E+03  0.17958562974E+03 0.  0.
         24    2    5    5    0    0  0.21711031499E+02  0.73551310902E+00  0.13260702485E+02  0.83838691761E+02  0.79882226669E+02 0.  0.
          5    1    5    5  501    0  0.97901130828E+02  0.71045655670E+02  0.16743226923E+03  0.20661019188E+03  0.47000000000E+01 0. -1.
        -13    1    6    6    0    0  0.30707439552E+02 -0.30945515645E+02  0.23270507591E+02  0.49417489878E+02  0.00000000000E+00 0.  1.
         14    1    6    6    0    0 -0.89964080535E+01  0.31681028754E+02 -0.10009805106E+02  0.34421201882E+02  0.00000000000E+00 0. -1.
         -5    1    3    3    0  503 -0.10467394467E+03 -0.18371219546E+02  0.51126710155E+02  0.11802612801E+03  0.47000000000E+01 0.  1.
         13    1    4    4    0    0 -0.13678894376E+02 -0.30793390054E+02  0.10008653632E+02  0.35149938405E+02  0.00000000000E+00 0. -1.
        -14    1    4    4    0    0 -0.12593232760E+01 -0.22616559178E+02  0.15572122975E+03  0.15736008401E+03  0.00000000000E+00 0.  1.
<mgrwt>
<rscale>  2 0.22610737E+03</rscale>
<asrwt>0</asrwt>
<pdfrwt beam="1">  1       21 0.76810352E-01 0.22739966E+03</pdfrwt>
<pdfrwt beam="2">  1       21 0.15648883E-01 0.22739966E+03</pdfrwt>
<totfact> 0.53849865E+04</totfact>
</mgrwt>
</event>
<event>
12    1  0.1074575E-001  0.2099969E+03  0.7546771E-02  0.1141770E+00
         21   -1    0    0  503  502  0.00000000000E+00  0.00000000000E+00  0.55225583824E+03  0.55225583824E+03  0.00000000000E+00 0. -1.
         21   -1    0    0  501  503 -0.00000000000E+00 -0.00000000000E+00 -0.11560074074E+03  0.11560074074E+03  0.00000000000E+00 0.  1.
          6    2    1    2  501    0 -0.11076614502E+03  0.36285638127E+02  0.40538836288E+03  0.45655054818E+03  0.17467939736E+03 0.  0.
         24    2    3    3    0    0 -0.18789970649E+02 -0.10555845805E+01  0.74011505461E+02  0.11059289875E+03  0.79993181313E+02 0.  0.
         -6    2    1    2    0  502  0.11076614502E+03 -0.36285638127E+02  0.31266734613E+02  0.21130603080E+03  0.17345559531E+03 0.  0.
        -24    2    5    5    0    0  0.29342013466E+02 -0.47212395570E+01 -0.44253885044E+02  0.95756671439E+02  0.79546778227E+02 0.  0.
          5    1    3    3  501    0 -0.91976174370E+02  0.37341222707E+02  0.33137685742E+03  0.34595764943E+03  0.47000000000E+01 0. -1.
        -11    1    4    4    0    0  0.23798599693E+02  0.35016885417E+01  0.61398788662E+02  0.65942751074E+02  0.00000000000E+00 0.  1.
         12    1    4    4    0    0 -0.42588570342E+02 -0.45572731223E+01  0.12612716799E+02  0.44650147672E+02  0.00000000000E+00 0. -1.
         -5    1    5    5    0  502  0.81424131553E+02 -0.31564398570E+02  0.75520619657E+02  0.11554935936E+03  0.47000000000E+01 0.  1.
         11    1    6    6    0    0 -0.21296090758E+02 -0.21696553155E+02 -0.23630750798E+02  0.38505535753E+02  0.00000000000E+00 0. -1.
        -12    1    6    6    0    0  0.50638104224E+02  0.16975313598E+02 -0.20623134246E+02  0.57251135685E+02  0.00000000000E+00 0.  1.
<mgrwt>
<rscale>  2 0.20974217E+03</rscale>
<asrwt>0</asrwt>
<pdfrwt beam="1">  1       21 0.84962435E-01 0.20999685E+03</pdfrwt>
<pdfrwt beam="2">  1       21 0.17784730E-01 0.20999685E+03</pdfrwt>
<totfact> 0.34110742E+04</totfact>
</mgrwt>
</event>
<event>
12    1  0.1074575E-001  0.1755149E+03  0.7546771E-02  0.1172720E+00
         21   -1    0    0  503  502  0.00000000000E+00  0.00000000000E+00  0.13696861919E+03  0.13696861919E+03  0.00000000000E+00 0. -1.
         21   -1    0    0  501  503 -0.00000000000E+00 -0.00000000000E+00 -0.22335375201E+03  0.22335375201E+03  0.00000000000E+00 0. -1.
          6    2    1    2  501    0 -0.45422063218E+01 -0.16438841000E+02 -0.55526077887E+02  0.18408864942E+03  0.17468433928E+03 0.  0.
         24    2    3    3    0    0 -0.41910296517E+02  0.37595759422E+02  0.30160136853E+01  0.95967263292E+02  0.77657615238E+02 0.  0.
         -6    2    1    2    0  502  0.45422063218E+01  0.16438841000E+02 -0.30859054934E+02  0.17623372177E+03  0.17267071636E+03 0.  0.
        -24    2    5    5    0    0 -0.36884703141E+02  0.28161211429E+02  0.33581502626E+02  0.98591734070E+02  0.80243863026E+02 0.  0.
          5    1    3    3  501    0  0.37368090196E+02 -0.54034600422E+02 -0.58542091573E+02  0.88121386129E+02  0.47000000000E+01 0. -1.
        -11    1    4    4    0    0 -0.18717644131E+02 -0.88047642646E+01  0.30815209989E+02  0.37114030261E+02  0.00000000000E+00 0.  1.
         12    1    4    4    0    0 -0.23192652387E+02  0.46400523687E+02 -0.27799196303E+02  0.58853233031E+02  0.00000000000E+00 0. -1.
         -5    1    5    5    0  502  0.41426909463E+02 -0.11722370430E+02 -0.64440557560E+02  0.77641987705E+02  0.47000000000E+01 0.  1.
         13    1    6    6    0    0 -0.42191650919E+02  0.51225721434E+02  0.34718701485E+02  0.74897250794E+02  0.00000000000E+00 0. -1.
        -14    1    6    6    0    0  0.53069477777E+01 -0.23064510005E+02 -0.11371988591E+01  0.23694483276E+02  0.00000000000E+00 0.  1.
<mgrwt>
<rscale>  2 0.17501176E+03</rscale>
<asrwt>0</asrwt>
<pdfrwt beam="1">  1       21 0.21072095E-01 0.17551492E+03</pdfrwt>
<pdfrwt beam="2">  1       21 0.34362116E-01 0.17551492E+03</pdfrwt>
<totfact> 0.17174435E+05</totfact>
</mgrwt>
</event>
<event>
12    1  0.1074575E-001  0.1915596E+03  0.7546771E-02  0.1157154E+00
         21   -1    0    0  501  502  0.00000000000E+00  0.00000000000E+00  0.11869532728E+03  0.11869532728E+03  0.00000000000E+00 0. -1.
         21   -1    0    0  502  503 -0.00000000000E+00 -0.00000000000E+00 -0.32051258179E+03  0.32051258179E+03  0.00000000000E+00 0.  1.
         -6    2    1    2    0  503 -0.78688054640E+02 -0.22775166690E+02 -0.58275530264E+02  0.19983520620E+03  0.17270655473E+03 0.  0.
        -24    2    3    3    0    0 -0.12015005961E+03  0.44172121451E+01 -0.48004361483E+02  0.14898139384E+03  0.73725764838E+02 0.  0.
          6    2    1    2  501    0  0.78688054640E+02  0.22775166690E+02 -0.14354172424E+03  0.23937270287E+03  0.17316046351E+03 0.  0.
         24    2    5    5    0    0  0.31889238951E+02 -0.22276031958E+02 -0.32828854897E+01  0.84729980779E+02  0.75201377282E+02 0.  0.
          5    1    5    5  501    0  0.46798815690E+02  0.45051198647E+02 -0.14025883875E+03  0.15464272209E+03  0.47000000000E+01 0. -1.
        -11    1    6    6    0    0  0.15869085708E+02  0.15252440961E+02 -0.29067836238E+02  0.36460992033E+02  0.00000000000E+00 0.  1.
         12    1    6    6    0    0  0.16020153243E+02 -0.37528472919E+02  0.25784950748E+02  0.48268988746E+02  0.00000000000E+00 0. -1.
         -5    1    3    3    0  503  0.41462004974E+02 -0.27192378835E+02 -0.10271168782E+02  0.50853812357E+02  0.47000000000E+01 0.  1.
         13    1    4    4    0    0 -0.25421282111E+02  0.32811695019E+02 -0.78273279692E+01  0.42238797063E+02  0.00000000000E+00 0. -1.
        -14    1    4    4    0    0 -0.94728777503E+02 -0.28394482874E+02 -0.40177033513E+02  0.10674259678E+03  0.00000000000E+00 0.  1.
<mgrwt>
<rscale>  2 0.19145692E+03</rscale>
<asrwt>0</asrwt>
<pdfrwt beam="1">  1       21 0.18260820E-01 0.19155956E+03</pdfrwt>
<pdfrwt beam="2">  1       21 0.49309627E-01 0.19155956E+03</pdfrwt>
<totfact> 0.10727981E+05</totfact>
</mgrwt>
</event>
<event>
12    1  0.1074575E-001  0.2808364E+03  0.7546771E-02  0.1096317E+00
         21   -1    0    0  501  502  0.00000000000E+00  0.00000000000E+00  0.76066062814E+02  0.76066062814E+02  0.00000000000E+00 0. -1.
         21   -1    0    0  502  503 -0.00000000000E+00 -0.00000000000E+00 -0.15158350808E+04  0.15158350808E+04  0.00000000000E+00 0.  1.
         -6    2    1    2    0  503  0.10282993867E+03  0.18239634223E+03 -0.11873054803E+04  0.12200669636E+04  0.18715413490E+03 0.  0.
        -24    2    3    3    0    0 -0.35097281442E+02  0.90451003214E+02 -0.46400637033E+03  0.47800122805E+03  0.61400807529E+02 0.  0.
          6    2    1    2  501    0 -0.10282993867E+03 -0.18239634223E+03 -0.25246353766E+03  0.37183417997E+03  0.17515820734E+03 0.  0.
         24    2    5    5    0    0 -0.51992846180E+01 -0.52373215809E+02 -0.36490158662E+02  0.10145602173E+03  0.78688031951E+02 0.  0.
          5    1    5    5  501    0 -0.97630654057E+02 -0.13002312642E+03 -0.21597337900E+03  0.27037815824E+03  0.47000000000E+01 0. -1.
        -11    1    6    6    0    0  0.31269276569E+02 -0.32161669360E+02 -0.39340009730E+02  0.59663866777E+02  0.00000000000E+00 0.  1.
         12    1    6    6    0    0 -0.36468561187E+02 -0.20211546449E+02  0.28498510677E+01  0.41792154958E+02  0.00000000000E+00 0. -1.
         -5    1    3    3    0  503  0.13792722012E+03  0.91945339017E+02 -0.72329911000E+03  0.74206573559E+03  0.47000000000E+01 0.  1.
         13    1    4    4    0    0 -0.39722023451E+02  0.42079924685E+02 -0.33861524912E+03  0.34352415657E+03  0.00000000000E+00 0. -1.
        -14    1    4    4    0    0  0.46247420084E+01  0.48371078529E+02 -0.12539112120E+03  0.13447707148E+03  0.00000000000E+00 0.  1.
<mgrwt>
<rscale>  2 0.27885358E+03</rscale>
<asrwt>0</asrwt>
<pdfrwt beam="1">  1       21 0.11702472E-01 0.28083642E+03</pdfrwt>
<pdfrwt beam="2">  1       21 0.23320539E+00 0.28083642E+03</pdfrwt>
<totfact> 0.47682571E+03</totfact>
</mgrwt>
</event>
<event>
12    1  0.1074575E-001  0.3066384E+03  0.7546771E-02  0.1081984E+00
         21   -1    0    0  501  502  0.00000000000E+00  0.00000000000E+00  0.13934805883E+03  0.13934805883E+03  0.00000000000E+00 0.  1.
         21   -1    0    0  502  503 -0.00000000000E+00 -0.00000000000E+00 -0.98980937408E+03  0.98980937408E+03  0.00000000000E+00 0. -1.
         -6    2    1    2    0  503 -0.23396411463E+03 -0.96860171621E+02 -0.74383358610E+03  0.80450904517E+03  0.17270002945E+03 0.  0.
        -24    2    3    3    0    0 -0.95449063166E+02 -0.64512383679E+02 -0.52660696682E+03  0.54481250497E+03  0.78951863603E+02 0.  0.
          6    2    1    2  501    0  0.23396411463E+03  0.96860171621E+02 -0.10662772915E+03  0.32464838773E+03  0.17293352264E+03 0.  0.
         24    2    5    5    0    0  0.45827882767E+02  0.39847133515E+02 -0.17113372782E+00  0.10103974532E+03  0.80752782978E+02 0.  0.
          5    1    5    5  501    0  0.18813623186E+03  0.57013038105E+02 -0.10645659542E+03  0.22360864242E+03  0.47000000000E+01 0. -1.
        -13    1    6    6    0    0  0.69145084099E+02  0.33488286441E+02  0.11291301369E+01  0.76836078236E+02  0.00000000000E+00 0.  1.
         14    1    6    6    0    0 -0.23317201332E+02  0.63588470740E+01 -0.13002638647E+01  0.24203667081E+02  0.00000000000E+00 0. -1.
         -5    1    3    3    0  503 -0.13851505147E+03 -0.32347787942E+02 -0.21722661928E+03  0.25969654020E+03  0.47000000000E+01 0.  1.
         11    1    4    4    0    0 -0.59319081029E+02 -0.79749211390E+02 -0.34566972364E+03  0.35967519783E+03  0.00000000000E+00 0. -1.
        -12    1    4    4    0    0 -0.36129982137E+02  0.15236827711E+02 -0.18093724318E+03  0.18513730714E+03  0.00000000000E+00 0.  1.
<mgrwt>
<rscale>  2 0.30660548E+03</rscale>
<asrwt>0</asrwt>
<pdfrwt beam="1">  1       21 0.21438164E-01 0.30663839E+03</pdfrwt>
<pdfrwt beam="2">  1       21 0.15227836E+00 0.30663839E+03</pdfrwt>
<totfact> 0.53939249E+03</totfact>
</mgrwt>
</event>
<event>
12    1  0.1074575E-001  0.1940908E+03  0.7546771E-02  0.1154890E+00
         21   -1    0    0  501  502  0.00000000000E+00  0.00000000000E+00  0.16266670106E+03  0.16266670106E+03  0.00000000000E+00 0.  1.
         21   -1    0    0  502  503 -0.00000000000E+00 -0.00000000000E+00 -0.23293405437E+03  0.23293405437E+03  0.00000000000E+00 0. -1.
         -6    2    1    2    0  503 -0.18784519922E+02  0.85032897337E+02 -0.52127691821E+02  0.20096899492E+03  0.17345832020E+03 0.  0.
        -24    2    3    3    0    0 -0.32708617424E+02  0.12167004637E+03 -0.19356648038E+02  0.14966409758E+03  0.78429640084E+02 0.  0.
          6    2    1    2  501    0  0.18784519922E+02 -0.85032897337E+02 -0.18139661493E+02  0.19463176051E+03  0.17311563494E+03 0.  0.
         24    2    5    5    0    0 -0.48450374265E+01 -0.59934202693E+02  0.53655902164E+02  0.11485085167E+03  0.81830185465E+02 0.  0.
          5    1    5    5  501    0  0.23629557349E+02 -0.25098694645E+02 -0.71795563657E+02  0.79780908833E+02  0.47000000000E+01 0. -1.
        -13    1    6    6    0    0 -0.12261774607E+02 -0.70822435213E+02  0.14215519318E+02  0.73268338561E+02  0.00000000000E+00 0.  1.
         14    1    6    6    0    0  0.74167371810E+01  0.10888232520E+02  0.39440382845E+02  0.41582513113E+02  0.00000000000E+00 0. -1.
         -5    1    3    3    0  503  0.13924097502E+02 -0.36637149035E+02 -0.32771043783E+02  0.51304897342E+02  0.47000000000E+01 0.  1.
         13    1    4    4    0    0  0.16094187698E+02  0.83402825073E+02 -0.85343300331E+00  0.84945761847E+02  0.00000000000E+00 0. -1.
        -14    1    4    4    0    0 -0.48802805122E+02  0.38267221298E+02 -0.18503215035E+02  0.64718335735E+02  0.00000000000E+00 0.  1.
<mgrwt>
<rscale>  2 0.19401421E+03</rscale>
<asrwt>0</asrwt>
<pdfrwt beam="1">  1       21 0.25025646E-01 0.19409081E+03</pdfrwt>
<pdfrwt beam="2">  1       21 0.35836008E-01 0.19409081E+03</pdfrwt>
<totfact> 0.11345391E+05</totfact>
</mgrwt>
</event>
<event>
12    1  0.1074575E-001  0.1865397E+03  0.7546771E-02  0.1163411E+00
         21   -1    0    0  501  502  0.00000000000E+00  0.00000000000E+00  0.30810509557E+03  0.30810509557E+03  0.00000000000E+00 0.  1.
         21   -1    0    0  502  503 -0.00000000000E+00 -0.00000000000E+00 -0.11427451475E+03  0.11427451475E+03  0.00000000000E+00 0.  1.
         -6    2    1    2    0  503  0.49619650435E+02 -0.10493719406E+02  0.50921176804E+02  0.19336498968E+03  0.17951274364E+03 0.  0.
        -24    2    3    3    0    0  0.29496128620E+02  0.13442503590E+02  0.10114259868E+03  0.13401703169E+03  0.81731371022E+02 0.  0.
          6    2    1    2  501    0 -0.49619650435E+02  0.10493719406E+02  0.14290940402E+03  0.22901462064E+03  0.17161693055E+03 0.  0.
         24    2    5    5    0    0 -0.97312383593E+02  0.21681215426E+02  0.88077810515E+02  0.15533728009E+03  0.80200964952E+02 0.  0.
          5    1    5    5  501    0  0.47692733158E+02 -0.11187496020E+02  0.54831593507E+02  0.73677340545E+02  0.47000000000E+01 0. -1.
        -11    1    6    6    0    0 -0.63367070643E+02  0.81575410617E+01  0.44142032463E+01  0.64042300929E+02  0.00000000000E+00 0.  1.
         12    1    6    6    0    0 -0.33945312950E+02  0.13523674365E+02  0.83663607269E+02  0.91294979165E+02  0.00000000000E+00 0. -1.
         -5    1    3    3    0  503  0.20123521815E+02 -0.23936222997E+02 -0.50221421878E+02  0.59347957985E+02  0.47000000000E+01 0.  1.
         11    1    4    4    0    0 -0.15776407260E+02  0.66670632495E+01 -0.54803295775E+01  0.17982735351E+02  0.00000000000E+00 0. -1.
        -12    1    4    4    0    0  0.45272535880E+02  0.67754403406E+01  0.10662292826E+03  0.11603429634E+03  0.00000000000E+00 0.  1.
<mgrwt>
<rscale>  2 0.18461368E+03</rscale>
<asrwt>0</asrwt>
<pdfrwt beam="1">  1       21 0.47400784E-01 0.18653968E+03</pdfrwt>
<pdfrwt beam="2">  1       21 0.17580695E-01 0.18653968E+03</pdfrwt>
<totfact> 0.12510862E+05</totfact>
</mgrwt>
</event>
<event>
12    1  0.1074575E-001  0.2168429E+03  0.7546771E-02  0.1136388E+00
         21   -1    0    0  503  502  0.00000000000E+00  0.00000000000E+00  0.84981925051E+02  0.84981925051E+02  0.00000000000E+00 0.  1.
         21   -1    0    0  501  503 -0.00000000000E+00 -0.00000000000E+00 -0.12952545216E+04  0.12952545216E+04  0.00000000000E+00 0.  1.
          6    2    1    2  501    0 -0.12936586903E+03 -0.30703640114E+02 -0.11276573004E+04  0.11481887827E+04  0.17043547747E+03 0.  0.
         24    2    3    3    0    0 -0.50394868367E+02 -0.44234277029E+02 -0.91220752847E+03  0.91827533962E+03  0.81306274931E+02 0.  0.
         -6    2    1    2    0  502  0.12936586903E+03  0.30703640114E+02 -0.82615296170E+02  0.23204766398E+03  0.17129678808E+03 0.  0.
        -24    2    5    5    0    0  0.12080147146E+03 -0.35553061246E+02 -0.50876366496E+02  0.15793458120E+03  0.80609624744E+02 0.  0.
          5    1    3    3  501    0 -0.78971000667E+02  0.13530636915E+02 -0.21544977196E+03  0.22991344310E+03  0.47000000000E+01 0. -1.
        -11    1    4    4    0    0 -0.41227218156E+02 -0.80993218316E+01 -0.77365656291E+03  0.77479659257E+03  0.00000000000E+00 0.  1.
         12    1    4    4    0    0 -0.91676502115E+01 -0.36134955197E+02 -0.13855096556E+03  0.14347874705E+03  0.00000000000E+00 0. -1.
         -5    1    5    5    0  502  0.85643975725E+01  0.66256701360E+02 -0.31738929675E+02  0.74113082771E+02  0.47000000000E+01 0.  1.
         11    1    6    6    0    0 -0.11051923736E+02 -0.98383842623E+01 -0.17653133436E+01  0.14901515170E+02  0.00000000000E+00 0. -1.
        -12    1    6    6    0    0  0.13185339520E+03 -0.25714676984E+02 -0.49111053152E+02  0.14303306603E+03  0.00000000000E+00 0.  1.
<mgrwt>
<rscale>  2 0.21667273E+03</rscale>
<asrwt>0</asrwt>
<pdfrwt beam="1">  1       21 0.13074141E-01 0.21684287E+03</pdfrwt>
<pdfrwt beam="2">  1       21 0.19926994E+00 0.21684287E+03</pdfrwt>
<totfact> 0.66884911E+03</totfact>
</mgrwt>
</event>
<event>
12    1  0.1074575E-001  0.3319639E+03  0.7546771E-02  0.1070327E+00
         21   -1    0    0  501  502  0.00000000000E+00  0.00000000000E+00  0.34952710852E+03  0.34952710852E+03  0.00000000000E+00 0.  1.
         21   -1    0    0  502  503 -0.00000000000E+00 -0.00000000000E+00 -0.40200871803E+03  0.40200871803E+03  0.00000000000E+00 0. -1.
         -6    2    1    2    0  503 -0.11813456853E+03 -0.25685034909E+03 -0.20127320032E+03  0.38821507063E+03  0.17398897030E+03 0.  0.
        -24    2    3    3    0    0 -0.11621104966E+03 -0.12683320594E+03 -0.67841629530E+02  0.20184385096E+03  0.80912194891E+02 0.  0.
          6    2    1    2  501    0  0.11813456853E+03  0.25685034909E+03  0.14879159082E+03  0.36332075592E+03  0.17301779120E+03 0.  0.
         24    2    5    5    0    0  0.85975041947E+02  0.16701154266E+03  0.16968538479E+03  0.26552562864E+03  0.80163373417E+02 0.  0.
          5    1    5    5  501    0  0.32159526587E+02  0.89838806438E+02 -0.20893793970E+02  0.97795127276E+02  0.47000000000E+01 0. -1.
        -11    1    6    6    0    0  0.47788188409E+02  0.98579583913E+02  0.45377787312E+02  0.11857819739E+03  0.00000000000E+00 0.  1.
         12    1    6    6    0    0  0.38186853538E+02  0.68431958744E+02  0.12430759748E+03  0.14694743125E+03  0.00000000000E+00 0. -1.
         -5    1    3    3    0  503 -0.19235188762E+01 -0.13001714315E+03 -0.13343157079E+03  0.18637121967E+03  0.47000000000E+01 0.  1.
         11    1    4    4    0    0 -0.12095953793E+03 -0.12249947713E+03 -0.78648443598E+02  0.18926940956E+03  0.00000000000E+00 0. -1.
        -12    1    4    4    0    0  0.47484882752E+01 -0.43337288085E+01  0.10806814068E+02  0.12574441402E+02  0.00000000000E+00 0.  1.
<mgrwt>
<rscale>  2 0.33183684E+03</rscale>
<asrwt>0</asrwt>
<pdfrwt beam="1">  1       21 0.53773401E-01 0.33196391E+03</pdfrwt>
<pdfrwt beam="2">  1       21 0.61847495E-01 0.33196391E+03</pdfrwt>
<totfact> 0.73454592E+03</totfact>
</mgrwt>
</event>
<event>
12    1  0.1074575E-001  0.1935663E+03  0.7546771E-02  0.1156290E+00
         21   -1    0    0  501  502  0.00000000000E+00  0.00000000000E+00  0.13117631545E+03  0.13117631545E+03  0.00000000000E+00 0. -1.
         21   -1    0    0  502  503 -0.00000000000E+00 -0.00000000000E+00 -0.38734426977E+03  0.38734426977E+03  0.00000000000E+00 0.  1.
         -6    2    1    2    0  503 -0.76566537329E+02 -0.19226624413E+02 -0.26627789867E+03  0.32919877348E+03  0.17673657068E+03 0.  0.
        -24    2    3    3    0    0  0.24712457425E+02 -0.85164594237E+01 -0.79084515758E+02  0.11604250447E+03  0.80797689185E+02 0.  0.
          6    2    1    2  501    0  0.76566537329E+02  0.19226624413E+02  0.10109944354E+02  0.18932181175E+03  0.17178020754E+03 0.  0.
         24    2    5    5    0    0  0.60120657835E+02  0.77931352267E+02 -0.13406953188E+02  0.12380962590E+03  0.73900527104E+02 0.  0.
          5    1    5    5  501    0  0.16445879495E+02 -0.58704727854E+02  0.23516897542E+02  0.65512185850E+02  0.47000000000E+01 0. -1.
        -11    1    6    6    0    0  0.41279717749E+02  0.84248372291E+01 -0.27658352921E+02  0.50398189115E+02  0.00000000000E+00 0.  1.
         12    1    6    6    0    0  0.18840940086E+02  0.69506515038E+02  0.14251399733E+02  0.73411436782E+02  0.00000000000E+00 0. -1.
         -5    1    3    3    0  503 -0.10127899475E+03 -0.10710164989E+02 -0.18719338292E+03  0.21315626901E+03  0.47000000000E+01 0.  1.
         11    1    4    4    0    0  0.27317797212E+02 -0.16119902246E+02  0.45312726274E+01  0.32041312778E+02  0.00000000000E+00 0. -1.
        -12    1    4    4    0    0 -0.26053397875E+01  0.76034428218E+01 -0.83615788386E+02  0.84001191691E+02  0.00000000000E+00 0.  1.
<mgrwt>
<rscale>  2 0.19242764E+03</rscale>
<asrwt>0</asrwt>
<pdfrwt beam="1">  1       21 0.20180972E-01 0.19356630E+03</pdfrwt>
<pdfrwt beam="2">  1       21 0.59591425E-01 0.19356630E+03</pdfrwt>
<totfact> 0.59661847E+04</totfact>
</mgrwt>
</event>
<event>
12    1  0.1074575E-001  0.1832470E+03  0.7546771E-02  0.1165871E+00
         21   -1    0    0  503  502  0.00000000000E+00  0.00000000000E+00  0.17314993498E+04  0.17314993498E+04  0.00000000000E+00 0.  1.
         21   -1    0    0  501  503 -0.00000000000E+00 -0.00000000000E+00 -0.19312569871E+02  0.19312569871E+02  0.00000000000E+00 0.  1.
          6    2    1    2  501    0  0.55400033596E+02 -0.21866098556E+02  0.73621916935E+03  0.75868183332E+03  0.17329791949E+03 0.  0.
         24    2    3    3    0    0  0.52456319378E+01 -0.60197091440E+01  0.10711098540E+03  0.12736117852E+03  0.68442333740E+02 0.  0.
         -6    2    1    2    0  502 -0.55400033596E+02  0.21866098556E+02  0.97596761059E+03  0.99213008637E+03  0.16811318021E+03 0.  0.
        -24    2    5    5    0    0 -0.61416204939E+02 -0.41590566797E+02  0.50288859154E+03  0.51475309596E+03  0.81068420674E+02 0.  0.
          5    1    3    3  501    0  0.50154401658E+02 -0.15846389412E+02  0.62910818395E+03  0.63132065480E+03  0.47000000000E+01 0. -1.
        -11    1    4    4    0    0  0.41763057390E+01 -0.35576043534E+02  0.78145711205E+02  0.85964228508E+02  0.00000000000E+00 0.  1.
         12    1    4    4    0    0  0.10693261988E+01  0.29556334390E+02  0.28965274199E+02  0.41396950015E+02  0.00000000000E+00 0. -1.
         -5    1    5    5    0  502  0.60161713434E+01  0.63456665353E+02  0.47307901906E+03  0.47737699040E+03  0.47000000000E+01 0.  1.
         13    1    6    6    0    0 -0.74639504795E+02 -0.53654081453E+02  0.42696383548E+03  0.43674698961E+03  0.00000000000E+00 0. -1.
        -14    1    6    6    0    0  0.13223299855E+02  0.12063514656E+02  0.75924756060E+02  0.78006106349E+02  0.00000000000E+00 0.  1.
<mgrwt>
<rscale>  2 0.18201071E+03</rscale>
<asrwt>0</asrwt>
<pdfrwt beam="1">  1       21 0.26638439E+00 0.18324699E+03</pdfrwt>
<pdfrwt beam="2">  1       21 0.29711660E-02 0.18324699E+03</pdfrwt>
<totfact> 0.34581092E+04</totfact>
</mgrwt>
</event>
<event>
12    1  0.1074575E-001  0.1786080E+03  0.7546771E-02  0.1170264E+00
         21   -1    0    0  501  502  0.00000000000E+00  0.00000000000E+00  0.57008198071E+02  0.57008198071E+02  0.00000000000E+00 0. -1.
         21   -1    0    0  502  503 -0.00000000000E+00 -0.00000000000E+00 -0.61483908536E+03  0.61483908536E+03  0.00000000000E+00 0. -1.
         -6    2    1    2    0  503  0.88642925796E+01 -0.53283502425E+02 -0.16939156710E+03  0.24615910624E+03  0.17024422242E+03 0.  0.
        -24    2    3    3    0    0  0.63830383896E+01  0.12048622467E+02 -0.23948477222E+02  0.86627837961E+02  0.82127585293E+02 0.  0.
          6    2    1    2  501    0 -0.88642925796E+01  0.53283502425E+02 -0.38843932019E+03  0.42568817720E+03  0.16555244311E+03 0.  0.
         24    2    5    5    0    0  0.52123329407E+02  0.35114082030E+02 -0.19336619390E+03  0.22044385334E+03  0.85177269895E+02 0.  0.
          5    1    5    5  501    0 -0.60987621987E+02  0.18169420396E+02 -0.19507312629E+03  0.20524432386E+03  0.47000000000E+01 0. -1.
        -11    1    6    6    0    0  0.26652948833E+02 -0.19073449911E+02 -0.12655008897E+03  0.13072528903E+03  0.00000000000E+00 0.  1.
         12    1    6    6    0    0  0.25470380574E+02  0.54187531940E+02 -0.66816104931E+02  0.89718564314E+02  0.00000000000E+00 0. -1.
         -5    1    3    3    0  503  0.24812541900E+01 -0.65332124892E+02 -0.14544308988E+03  0.15953126828E+03  0.47000000000E+01 0.  1.
         11    1    4    4    0    0  0.37626076466E+02  0.26912714743E+02 -0.23811535399E+02  0.52028886814E+02  0.00000000000E+00 0. -1.
        -12    1    4    4    0    0 -0.31243038076E+02 -0.14864092276E+02 -0.13694182286E+00  0.34598951147E+02  0.00000000000E+00 0.  1.
<mgrwt>
<rscale>  2 0.17748076E+03</rscale>
<asrwt>0</asrwt>
<pdfrwt beam="1">  1       21 0.87704917E-02 0.17860796E+03</pdfrwt>
<pdfrwt beam="2">  1       21 0.94590632E-01 0.17860796E+03</pdfrwt>
<totfact> 0.96195074E+04</totfact>
</mgrwt>
</event>
<event>
12    1  0.1074575E-001  0.1781485E+03  0.7546771E-02  0.1169611E+00
         21   -1    0    0  501  502  0.00000000000E+00  0.00000000000E+00  0.72701255426E+02  0.72701255426E+02  0.00000000000E+00 0.  1.
         21   -1    0    0  502  503 -0.00000000000E+00 -0.00000000000E+00 -0.44688117975E+03  0.44688117975E+03  0.00000000000E+00 0.  1.
         -6    2    1    2    0  503  0.44541879403E+02 -0.11276724643E+02 -0.22668866022E+03  0.28831340994E+03  0.17212126581E+03 0.  0.
        -24    2    3    3    0    0  0.58574578006E+02 -0.30303607934E+02 -0.58199616428E+02  0.11810886596E+03  0.78823974923E+02 0.  0.
          6    2    1    2  501    0 -0.44541879403E+02  0.11276724643E+02 -0.14749126411E+03  0.23126902523E+03  0.17210620414E+03 0.  0.
         24    2    5    5    0    0 -0.55085792337E+02  0.26410600135E+02 -0.17283549557E+03  0.19957315238E+03  0.78901015869E+02 0.  0.
          5    1    5    5  501    0  0.10543912934E+02 -0.15133875492E+02  0.25344231462E+02  0.31695872851E+02  0.47000000000E+01 0. -1.
        -13    1    6    6    0    0 -0.27921942229E+02  0.53993867330E+02 -0.98103709075E+02  0.11540931635E+03  0.00000000000E+00 0.  1.
         14    1    6    6    0    0 -0.27163850107E+02 -0.27583267195E+02 -0.74731786495E+02  0.84163836026E+02  0.00000000000E+00 0. -1.
         -5    1    3    3    0  503 -0.14032698603E+02  0.19026883291E+02 -0.16848904379E+03  0.17020454399E+03  0.47000000000E+01 0.  1.
         13    1    4    4    0    0  0.58451571074E+01  0.98459624306E+01  0.15320182668E+02  0.19126338771E+02  0.00000000000E+00 0. -1.
        -14    1    4    4    0    0  0.52729420899E+02 -0.40149570365E+02 -0.73519799097E+02  0.98982527185E+02  0.00000000000E+00 0.  1.
<mgrwt>
<rscale>  2 0.17814482E+03</rscale>
<asrwt>0</asrwt>
<pdfrwt beam="1">  1       21 0.11184809E-01 0.17814846E+03</pdfrwt>
<pdfrwt beam="2">  1       21 0.68750950E-01 0.17814846E+03</pdfrwt>
<totfact> 0.12892447E+05</totfact>
</mgrwt>
</event>
<event>
12    1  0.1074575E-001  0.2570331E+03  0.7546771E-02  0.1108980E+00
         21   -1    0    0  503  502  0.00000000000E+00  0.00000000000E+00  0.22212292768E+03  0.22212292768E+03  0.00000000000E+00 0.  1.
         21   -1    0    0  501  503 -0.00000000000E+00 -0.00000000000E+00 -0.12094839088E+04  0.12094839088E+04  0.00000000000E+00 0. -1.
          6    2    1    2  501    0  0.73506101795E+02  0.17508120849E+03 -0.11153124324E+04  0.11444873896E+04  0.17283803595E+03 0.  0.
         24    2    3    3    0    0  0.40410853689E+02  0.21321018199E+02 -0.58851487278E+03  0.59469174546E+03  0.72255752178E+02 0.  0.
         -6    2    1    2    0  502 -0.73506101795E+02 -0.17508120849E+03  0.12795145119E+03  0.28711944691E+03  0.17323229019E+03 0.  0.
        -24    2    5    5    0    0 -0.95169857291E+02 -0.89549840963E+02  0.12443236910E+03  0.19869203559E+03  0.83178331166E+02 0.  0.
          5    1    3    3  501    0  0.33095248106E+02  0.15376019029E+03 -0.52679755957E+03  0.54979564416E+03  0.47000000000E+01 0. -1.
        -13    1    4    4    0    0  0.43111610758E+02  0.38334952432E+02 -0.54248372669E+03  0.54554264112E+03  0.00000000000E+00 0.  1.
         14    1    4    4    0    0 -0.27007570690E+01 -0.17013934233E+02 -0.46031146091E+02  0.49149104338E+02  0.00000000000E+00 0. -1.
         -5    1    5    5    0  502  0.21663755495E+02 -0.85531367526E+02  0.35190820889E+01  0.88427411314E+02  0.47000000000E+01 0.  1.
         13    1    6    6    0    0 -0.65909440275E+02 -0.57751983461E+01  0.52445467592E+02  0.84427094609E+02  0.00000000000E+00 0. -1.
        -14    1    6    6    0    0 -0.29260417016E+02 -0.83774642617E+02  0.71986901509E+02  0.11426494099E+03  0.00000000000E+00 0.  1.
<mgrwt>
<rscale>  2 0.25696666E+03</rscale>
<asrwt>0</asrwt>
<pdfrwt beam="1">  1       21 0.34172759E-01 0.25703308E+03</pdfrwt>
<pdfrwt beam="2">  1       21 0.18607444E+00 0.25703308E+03</pdfrwt>
<totfact> 0.12864606E+03</totfact>
</mgrwt>
</event>
<event>
12    1  0.1074575E-001  0.2907877E+03  0.7546771E-02  0.1090101E+00
         21   -1    0    0  503  502  0.00000000000E+00  0.00000000000E+00  0.68422533692E+03  0.68422533692E+03  0.00000000000E+00 0.  1.
         21   -1    0    0  501  503 -0.00000000000E+00 -0.00000000000E+00 -0.13858486134E+03  0.13858486134E+03  0.00000000000E+00 0.  1.
          6    2    1    2  501    0  0.16772845434E+03 -0.16193740295E+03  0.13560883309E+03  0.32085395704E+03  0.17378420315E+03 0.  0.
         24    2    3    3    0    0  0.12420473207E+03 -0.14779916384E+03  0.16470721004E+03  0.26642042192E+03  0.81117001154E+02 0.  0.
         -6    2    1    2    0  502 -0.16772845434E+03  0.16193740295E+03  0.41003164248E+03  0.50195624122E+03  0.17169031248E+03 0.  0.
        -24    2    5    5    0    0 -0.20505893672E+02  0.71135352229E+02  0.21273481425E+03  0.23952982637E+03  0.81472121082E+02 0.  0.
          5    1    3    3  501    0  0.43523722264E+02 -0.14138239113E+02 -0.29098376943E+02  0.54433535120E+02  0.47000000000E+01 0. -1.
        -11    1    4    4    0    0 -0.39260152506E+01 -0.26253382991E+02  0.47634301445E+02  0.54531462371E+02  0.00000000000E+00 0.  1.
         12    1    4    4    0    0  0.12813074732E+03 -0.12154578085E+03  0.11707290859E+03  0.21188895954E+03  0.00000000000E+00 0. -1.
         -5    1    5    5    0  502 -0.14722256066E+03  0.90802050722E+02  0.19729682824E+03  0.26242641486E+03  0.47000000000E+01 0.  1.
         11    1    6    6    0    0  0.22740292649E+02  0.56632554481E+02  0.91369831698E+02  0.10987635451E+03  0.00000000000E+00 0. -1.
        -12    1    6    6    0    0 -0.43246186321E+02  0.14502797748E+02  0.12136498255E+03  0.12965347185E+03  0.00000000000E+00 0.  1.
<mgrwt>
<rscale>  2 0.29047560E+03</rscale>
<asrwt>0</asrwt>
<pdfrwt beam="1">  1       21 0.10526543E+00 0.29078773E+03</pdfrwt>
<pdfrwt beam="2">  1       21 0.21320748E-01 0.29078773E+03</pdfrwt>
<totfact> 0.14079741E+04</totfact>
</mgrwt>
</event>
<event>
12    1  0.1074575E-001  0.2143006E+03  0.7546771E-02  0.1138449E+00
         21   -1    0    0  501  502  0.00000000000E+00  0.00000000000E+00  0.92156025733E+02  0.92156025733E+02  0.00000000000E+00 0.  1.
         21   -1    0    0  502  503 -0.00000000000E+00 -0.00000000000E+00 -0.76486322380E+03  0.76486322380E+03  0.00000000000E+00 0. -1.
         -6    2    1    2    0  503  0.48694458725E+02 -0.11562743129E+03 -0.82659530334E+02  0.22968970696E+03  0.17373517304E+03 0.  0.
        -24    2    3    3    0    0  0.52291914195E+02  0.25900581169E+01 -0.33242485673E+02  0.10142259975E+03  0.80251655407E+02 0.  0.
          6    2    1    2  501    0 -0.48694458725E+02  0.11562743129E+03 -0.59004766773E+03  0.62732954257E+03  0.17217796494E+03 0.  0.
         24    2    5    5    0    0 -0.46756722268E+01  0.14002503240E+03 -0.42434520457E+03  0.45408897919E+03  0.80616851630E+02 0.  0.
          5    1    5    5  501    0 -0.44018786499E+02 -0.24397601106E+02 -0.16570246316E+03  0.17324056339E+03  0.47000000000E+01 0. -1.
        -11    1    6    6    0    0  0.64234883339E+00  0.63243038978E+01  0.24481445207E+01  0.68119632566E+01  0.00000000000E+00 0.  1.
         12    1    6    6    0    0 -0.53180210602E+01  0.13370072850E+03 -0.42679334909E+03  0.44727701593E+03  0.00000000000E+00 0. -1.
         -5    1    3    3    0  503 -0.35974554692E+01 -0.11821748941E+03 -0.49417044660E+02  0.12826710721E+03  0.47000000000E+01 0.  1.
         13    1    4    4    0    0  0.81698231461E+01  0.93562956804E+01  0.25074683965E+02  0.27982602721E+02  0.00000000000E+00 0. -1.
        -14    1    4    4    0    0  0.44122091049E+02 -0.67662375635E+01 -0.58317169638E+02  0.73439997031E+02  0.00000000000E+00 0.  1.
<mgrwt>
<rscale>  2 0.21398482E+03</rscale>
<asrwt>0</asrwt>
<pdfrwt beam="1">  1       21 0.14177850E-01 0.21430064E+03</pdfrwt>
<pdfrwt beam="2">  1       21 0.11767127E+00 0.21430064E+03</pdfrwt>
<totfact> 0.23775291E+04</totfact>
</mgrwt>
</event>
<event>
12    1  0.1074575E-001  0.2733819E+03  0.7546771E-02  0.1100953E+00
         21   -1    0    0  501  502  0.00000000000E+00  0.00000000000E+00  0.10424812598E+03  0.10424812598E+03  0.00000000000E+00 0. -1.
         21   -1    0    0  502  503 -0.00000000000E+00 -0.00000000000E+00 -0.97138950155E+03  0.97138950155E+03  0.00000000000E+00 0.  1.
         -6    2    1    2    0  503  0.19700110613E+03 -0.75636348096E+01 -0.73026709264E+03  0.77976131753E+03  0.18939651879E+03 0.  0.
        -24    2    3    3    0    0  0.61023182815E+02 -0.30300578852E+02 -0.50585664764E+03  0.51634320486E+03  0.77957702182E+02 0.  0.
          6    2    1    2  501    0 -0.19700110613E+03  0.75636348096E+01 -0.13687428293E+03  0.29587631001E+03  0.17303634620E+03 0.  0.
         24    2    5    5    0    0 -0.99430102849E+02  0.48215411222E+02 -0.18633310157E+02  0.13720783409E+03  0.79168922292E+02 0.  0.
          5    1    5    5  501    0 -0.97571003282E+02 -0.40651776413E+02 -0.11824097278E+03  0.15866847592E+03  0.47000000000E+01 0. -1.
        -13    1    6    6    0    0 -0.94383621868E+01 -0.13648173596E+02  0.15587848575E+02  0.22767001262E+02  0.00000000000E+00 0.  1.
         14    1    6    6    0    0 -0.89991740662E+02  0.61863584818E+02 -0.34221158731E+02  0.11444083283E+03  0.00000000000E+00 0. -1.
         -5    1    3    3    0  503  0.13597792332E+03  0.22736944043E+02 -0.22441044500E+03  0.26341811267E+03  0.47000000000E+01 0.  1.
         13    1    4    4    0    0 -0.69657179722E+01 -0.11632518167E+02 -0.14112664377E+02  0.19570488026E+02  0.00000000000E+00 0. -1.
        -14    1    4    4    0    0  0.67988900787E+02 -0.18668060685E+02 -0.49174398326E+03  0.49677271684E+03  0.00000000000E+00 0.  1.
<mgrwt>
<rscale>  2 0.27057172E+03</rscale>
<asrwt>0</asrwt>
<pdfrwt beam="1">  1       21 0.16038173E-01 0.27338194E+03</pdfrwt>
<pdfrwt beam="2">  1       21 0.14944454E+00 0.27338194E+03</pdfrwt>
<totfact> 0.99420897E+03</totfact>
</mgrwt>
</event>
<event>
12    1  0.1074575E-001  0.3319833E+03  0.7546771E-02  0.1070341E+00
         21   -1    0    0  501  502  0.00000000000E+00  0.00000000000E+00  0.73609220313E+02  0.73609220313E+02  0.00000000000E+00 0.  1.
         21   -1    0    0  502  503 -0.00000000000E+00 -0.00000000000E+00 -0.15827409812E+04  0.15827409812E+04  0.00000000000E+00 0. -1.
         -6    2    1    2    0  503  0.20933080949E+03 -0.18966184194E+03 -0.94985101425E+03  0.10059596676E+04  0.17305173042E+03 0.  0.
        -24    2    3    3    0    0  0.86361249214E+02 -0.34399617005E+02 -0.48660349286E+03  0.50212613620E+03  0.81890771032E+02 0.  0.
          6    2    1    2  501    0 -0.20933080949E+03  0.18966184194E+03 -0.55928074664E+03  0.65039053395E+03  0.17441872321E+03 0.  0.
         24    2    5    5    0    0 -0.21051022021E+03  0.11920371743E+03 -0.37892971081E+03  0.45670438461E+03  0.80418220149E+02 0.  0.
          5    1    5    5  501    0  0.11794107263E+01  0.70458124515E+02 -0.18035103583E+03  0.19368614934E+03  0.47000000000E+01 0. -1.
        -11    1    6    6    0    0 -0.16451587726E+03  0.53192413927E+02 -0.28138254766E+03  0.33025905726E+03  0.00000000000E+00 0.  1.
         12    1    6    6    0    0 -0.45994342947E+02  0.66011303500E+02 -0.97547163144E+02  0.12644532736E+03  0.00000000000E+00 0. -1.
         -5    1    3    3    0  503  0.12296956027E+03 -0.15526222494E+03 -0.46324752139E+03  0.50383353136E+03  0.47000000000E+01 0.  1.
         13    1    4    4    0    0 -0.27817488272E+01 -0.33742829213E+02 -0.16227304484E+03  0.16576748092E+03  0.00000000000E+00 0. -1.
        -14    1    4    4    0    0  0.89142998041E+02 -0.65678779179E+00 -0.32433044801E+03  0.33635865528E+03  0.00000000000E+00 0.  1.
<mgrwt>
<rscale>  2 0.33180409E+03</rscale>
<asrwt>0</asrwt>
<pdfrwt beam="1">  1       21 0.11324495E-01 0.33198327E+03</pdfrwt>
<pdfrwt beam="2">  1       21 0.24349862E+00 0.33198327E+03</pdfrwt>
<totfact> 0.42363577E+03</totfact>
</mgrwt>
</event>
<event>
12    1  0.1074575E-001  0.2057290E+03  0.7546771E-02  0.1145014E+00
         21   -1    0    0  503  502  0.00000000000E+00  0.00000000000E+00  0.12317695059E+03  0.12317695059E+03  0.00000000000E+00 0. -1.
         21   -1    0    0  501  503 -0.00000000000E+00 -0.00000000000E+00 -0.12770158501E+04  0.12770158501E+04  0.00000000000E+00 0. -1.
          6    2    1    2  501    0  0.91076161548E+02 -0.65790908633E+02 -0.11755560942E+04  0.11934222028E+04  0.17234010771E+03 0.  0.
         24    2    3    3    0    0  0.57305233109E+02  0.26648888449E+02 -0.72470841986E+03  0.73193405872E+03  0.80815341991E+02 0.  0.
         -6    2    1    2    0  502 -0.91076161548E+02  0.65790908633E+02  0.21717194678E+02  0.20677059787E+03  0.17221827063E+03 0.  0.
        -24    2    5    5    0    0 -0.78109991950E+02 -0.12888918590E+02  0.48955624725E+02  0.12237475178E+03  0.79445777837E+02 0.  0.
          5    1    3    3  501    0  0.33770928439E+02 -0.92439797082E+02 -0.45084767433E+03  0.46148814410E+03  0.47000000000E+01 0. -1.
        -11    1    4    4    0    0  0.53419004730E+01  0.35498247683E+02 -0.12911003722E+03  0.13400769829E+03  0.00000000000E+00 0.  1.
         12    1    4    4    0    0  0.51963332636E+02 -0.88493592337E+01 -0.59559838264E+03  0.59792636043E+03  0.00000000000E+00 0. -1.
         -5    1    5    5    0  502 -0.12966169598E+02  0.78679827223E+02 -0.27238430048E+02  0.84395846090E+02  0.47000000000E+01 0.  1.
         13    1    6    6    0    0 -0.31915511577E+02  0.32366073707E+02  0.89353070046E+01  0.46324964303E+02  0.00000000000E+00 0. -1.
        -14    1    6    6    0    0 -0.46194480373E+02 -0.45254992297E+02  0.40020317721E+02  0.76049787477E+02  0.00000000000E+00 0.  1.
<mgrwt>
<rscale>  2 0.20570349E+03</rscale>
<asrwt>0</asrwt>
<pdfrwt beam="1">  1       21 0.18950300E-01 0.20572901E+03</pdfrwt>
<pdfrwt beam="2">  1       21 0.19646398E+00 0.20572901E+03</pdfrwt>
<totfact> 0.35672256E+03</totfact>
</mgrwt>
</event>
<event>
11    1  0.1074575E-001  0.2348975E+03  0.7546771E-02  0.1123316E+00
         21   -1    0    0  501  502  0.00000000000E+00  0.00000000000E+00  0.46915125246E+02  0.46915125246E+02  0.00000000000E+00 0. -1.
         21   -1    0    0  502  503 -0.00000000000E+00 -0.00000000000E+00 -0.13776270917E+04  0.13776270917E+04  0.00000000000E+00 0. -1.
         -6    2    1    2    0  503  0.98042796753E+02 -0.12487958016E+03 -0.93982183611E+03  0.96873212429E+03  0.17311714376E+03 0.  0.
        -24    2    3    3    0    0  0.45278741380E+02 -0.19774765115E+02 -0.22683998744E+03  0.24610063161E+03  0.81657425984E+02 0.  0.
          6    2    1    2  501    0 -0.98042796753E+02  0.12487958016E+03 -0.39089013034E+03  0.45581009265E+03  0.17251216487E+03 0.  0.
          5    1    5    5  501    0 -0.50695099607E+02  0.13687669556E+03 -0.34491356256E+03  0.37455664265E+03  0.47000000000E+01 0. -1.
        -13    1    5    5    0    0 -0.46116986867E+02 -0.10897337333E+02 -0.54702219239E+02  0.72373069773E+02  0.00000000000E+00 0.  1.
         14    1    5    5    0    0 -0.12307102793E+01 -0.10997780590E+01  0.87256514643E+01  0.88803802310E+01  0.00000000000E+00 0. -1.
         -5    1    3    3    0  503  0.52764055374E+02 -0.10510481505E+03 -0.71298184867E+03  0.72263149268E+03  0.47000000000E+01 0.  1.
         13    1    4    4    0    0 -0.62307905424E+01 -0.39709324586E+02 -0.93454951032E+02  0.10173239937E+03  0.00000000000E+00 0. -1.
        -14    1    4    4    0    0  0.51509531922E+02  0.19934559471E+02 -0.13338503641E+03  0.14436823224E+03  0.00000000000E+00 0.  1.
<mgrwt>
<rscale>  2 0.23478606E+03</rscale>
<asrwt>0</asrwt>
<pdfrwt beam="1">  1       21 0.72177114E-02 0.23489752E+03</pdfrwt>
<pdfrwt beam="2">  1       21 0.21194263E+00 0.23489752E+03</pdfrwt>
<totfact> 0.15677132E+04</totfact>
</mgrwt>
</event>
<event>
12    1  0.1074575E-001  0.1744192E+03  0.7546771E-02  0.1173662E+00
         21   -1    0    0  501  502  0.00000000000E+00  0.00000000000E+00  0.13567135461E+03  0.13567135461E+03  0.00000000000E+00 0.  1.
         21   -1    0    0  502  503 -0.00000000000E+00 -0.00000000000E+00 -0.64921260791E+03  0.64921260791E+03  0.00000000000E+00 0.  1.
         -6    2    1    2    0  503  0.79402346338E+01 -0.44749561215E+01 -0.57528578938E+03  0.60114539733E+03  0.17418087356E+03 0.  0.
        -24    2    3    3    0    0  0.29826217243E+02  0.18757650675E+01 -0.13324460091E+03  0.15849222588E+03  0.80452099181E+02 0.  0.
          6    2    1    2  501    0 -0.79402346338E+01  0.44749561215E+01  0.61744536075E+02  0.18373856519E+03  0.17281319407E+03 0.  0.
         24    2    5    5    0    0 -0.75020020339E+02  0.35714446824E+01  0.50916587696E+02  0.11562213215E+03  0.71660448451E+02 0.  0.
          5    1    5    5  501    0  0.67079785705E+02  0.90351143909E+00  0.10827948380E+02  0.68116433034E+02  0.47000000000E+01 0. -1.
        -13    1    6    6    0    0 -0.52755131347E+02  0.10334216723E+02 -0.60395831974E+01  0.54095993233E+02  0.00000000000E+00 0.  1.
         14    1    6    6    0    0 -0.22264888992E+02 -0.67627720402E+01  0.56956170893E+02  0.61526138919E+02  0.00000000000E+00 0. -1.
         -5    1    3    3    0  503 -0.21885982609E+02 -0.63507211890E+01 -0.44204118847E+03  0.44265317146E+03  0.47000000000E+01 0.  1.
         13    1    4    4    0    0  0.57576556747E+02  0.44467104119E+01 -0.94907752360E+02  0.11109597013E+03  0.00000000000E+00 0. -1.
        -14    1    4    4    0    0 -0.27750339504E+02 -0.25709453444E+01 -0.38336848548E+02  0.47396255750E+02  0.00000000000E+00 0.  1.
<mgrwt>
<rscale>  2 0.17407672E+03</rscale>
<asrwt>0</asrwt>
<pdfrwt beam="1">  1       21 0.20872516E-01 0.17441918E+03</pdfrwt>
<pdfrwt beam="2">  1       21 0.99878862E-01 0.17441918E+03</pdfrwt>
<totfact> 0.17752151E+04</totfact>
</mgrwt>
</event>
<event>
12    1  0.1074575E-001  0.1795357E+03  0.7546771E-02  0.1168354E+00
         21   -1    0    0  503  502  0.00000000000E+00  0.00000000000E+00  0.56293401332E+02  0.56293401332E+02  0.00000000000E+00 0.  1.
         21   -1    0    0  501  503 -0.00000000000E+00 -0.00000000000E+00 -0.60598022373E+03  0.60598022373E+03  0.00000000000E+00 0.  1.
          6    2    1    2  501    0  0.29226195222E+02  0.10235350800E+02 -0.35379827591E+03  0.39655690739E+03  0.17642343345E+03 0.  0.
         24    2    3    3    0    0  0.60501589065E+02  0.85082758046E+01 -0.34965735910E+03  0.36461367274E+03  0.83366831169E+02 0.  0.
         -6    2    1    2    0  502 -0.29226195222E+02 -0.10235350800E+02 -0.19588854649E+03  0.26571671767E+03  0.17684489959E+03 0.  0.
        -24    2    5    5    0    0  0.50196209010E+02  0.14291777492E+02 -0.11085372251E+03  0.14671037496E+03  0.80693692585E+02 0.  0.
          5    1    3    3  501    0 -0.31275393843E+02  0.17270749954E+01 -0.41409168083E+01  0.31943234653E+02  0.47000000000E+01 0. -1.
        -13    1    4    4    0    0  0.59918689661E+02 -0.27933394249E+02 -0.20290654993E+03  0.21340476070E+03  0.00000000000E+00 0.  1.
         14    1    4    4    0    0  0.58289940354E+00  0.36441670054E+02 -0.14675080917E+03  0.15120891204E+03  0.00000000000E+00 0. -1.
         -5    1    5    5    0  502 -0.79422404232E+02 -0.24527128292E+02 -0.85034823977E+02  0.11900634271E+03  0.47000000000E+01 0.  1.
         13    1    6    6    0    0  0.45857316438E+02 -0.14844775028E+02 -0.21781204571E+02  0.52893115706E+02  0.00000000000E+00 0. -1.
        -14    1    6    6    0    0  0.43388925725E+01  0.29136552520E+02 -0.89072517940E+02  0.93817259252E+02  0.00000000000E+00 0.  1.
<mgrwt>
<rscale>  2 0.17943178E+03</rscale>
<asrwt>0</asrwt>
<pdfrwt beam="1">  1       21 0.86605239E-02 0.17953565E+03</pdfrwt>
<pdfrwt beam="2">  1       21 0.93227721E-01 0.17953565E+03</pdfrwt>
<totfact> 0.10168226E+05</totfact>
</mgrwt>
</event>
<event>
11    1  0.1074575E-001  0.2117925E+03  0.7546771E-02  0.1140543E+00
         21   -1    0    0  501  502  0.00000000000E+00  0.00000000000E+00  0.82352590231E+02  0.82352590231E+02  0.00000000000E+00 0. -1.
         21   -1    0    0  502  503 -0.00000000000E+00 -0.00000000000E+00 -0.65856759036E+03  0.65856759036E+03  0.00000000000E+00 0.  1.
         -6    2    1    2    0  503  0.11003525850E+03  0.51655591849E+02 -0.44444706087E+03  0.49148313382E+03  0.17101585492E+03 0.  0.
          6    2    1    2  501    0 -0.11003525850E+03 -0.51655591849E+02 -0.13176793926E+03  0.24943704677E+03  0.17343584463E+03 0.  0.
         24    2    4    4    0    0 -0.46274864653E+02 -0.93189188009E+01 -0.14444674835E+03  0.17171559601E+03  0.79957347746E+02 0.  0.
          5    1    4    4  501    0 -0.63760393843E+02 -0.42336673048E+02  0.12678809091E+02  0.77721450757E+02  0.47000000000E+01 0. -1.
        -11    1    5    5    0    0 -0.57169009028E+02 -0.28809627833E+02 -0.13058814163E+03  0.14543573489E+03  0.00000000000E+00 0.  1.
         12    1    5    5    0    0  0.10894144375E+02  0.19490709032E+02 -0.13858606719E+02  0.26279861119E+02  0.00000000000E+00 0. -1.
         -5    1    3    3    0  503  0.54221184012E+02 -0.44344847035E+02 -0.30003898449E+03  0.30814263656E+03  0.47000000000E+01 0.  1.
         13    1    3    3    0    0  0.26057350901E+02  0.64465273208E+02 -0.92058727235E+02  0.11536709343E+03  0.00000000000E+00 0. -1.
        -14    1    3    3    0    0  0.29756723583E+02  0.31535165676E+02 -0.52349349143E+02  0.67973403830E+02  0.00000000000E+00 0.  1.
<mgrwt>
<rscale>  2 0.21129645E+03</rscale>
<asrwt>0</asrwt>
<pdfrwt beam="1">  1       21 0.12669629E-01 0.21179247E+03</pdfrwt>
<pdfrwt beam="2">  1       21 0.10131809E+00 0.21179247E+03</pdfrwt>
<totfact> 0.41940087E+04</totfact>
</mgrwt>
</event>
<event>
12    1  0.1074575E-001  0.2334314E+03  0.7546771E-02  0.1124369E+00
         21   -1    0    0  503  502  0.00000000000E+00  0.00000000000E+00  0.77670050755E+03  0.77670050755E+03  0.00000000000E+00 0.  1.
         21   -1    0    0  501  503 -0.00000000000E+00 -0.00000000000E+00 -0.71219821036E+02  0.71219821036E+02  0.00000000000E+00 0. -1.
          6    2    1    2  501    0 -0.74493773471E+02  0.13800325280E+03  0.40892421423E+03  0.47051341403E+03  0.17195824996E+03 0.  0.
         24    2    3    3    0    0 -0.71645479668E+02  0.53332134808E+02  0.34050532069E+03  0.36151549665E+03  0.82293314069E+02 0.  0.
         -6    2    1    2    0  502  0.74493773471E+02 -0.13800325280E+03  0.29655647228E+03  0.37740691455E+03  0.17290464954E+03 0.  0.
        -24    2    5    5    0    0 -0.18470438998E+02 -0.92847725254E+02  0.20480063115E+03  0.23912245827E+03  0.79211074531E+02 0.  0.
          5    1    3    3  501    0 -0.28482938030E+01  0.84671117992E+02  0.68418893543E+02  0.10899791738E+03  0.47000000000E+01 0. -1.
        -11    1    4    4    0    0 -0.63864273256E+02 -0.32813543516E+01  0.16599951066E+03  0.17789111901E+03  0.00000000000E+00 0.  1.
         12    1    4    4    0    0 -0.77812064119E+01  0.56613489160E+02  0.17450581003E+03  0.18362437764E+03  0.00000000000E+00 0. -1.
         -5    1    5    5    0  502  0.92964212469E+02 -0.45155527546E+02  0.91755841127E+02  0.13828445628E+03  0.47000000000E+01 0.  1.
         11    1    6    6    0    0 -0.97549409781E+01 -0.29134116344E+02  0.75275484763E+01  0.31632571737E+02  0.00000000000E+00 0. -1.
        -12    1    6    6    0    0 -0.87154980198E+01 -0.63713608910E+02  0.19727308268E+03  0.20748988654E+03  0.00000000000E+00 0.  1.
<mgrwt>
<rscale>  2 0.23325621E+03</rscale>
<asrwt>0</asrwt>
<pdfrwt beam="1">  1       21 0.11949238E+00 0.23343144E+03</pdfrwt>
<pdfrwt beam="2">  1       21 0.10956896E-01 0.23343144E+03</pdfrwt>
<totfact> 0.36032680E+04</totfact>
</mgrwt>
</event>
<event>
12    1  0.1074575E-001  0.1988958E+03  0.7546771E-02  0.1152468E+00
         21   -1    0    0  503  502  0.00000000000E+00  0.00000000000E+00  0.33607555545E+02  0.33607555545E+02  0.00000000000E+00 0. -1.
         21   -1    0    0  501  503 -0.00000000000E+00 -0.00000000000E+00 -0.12203000601E+04  0.12203000601E+04  0.00000000000E+00 0. -1.
          6    2    1    2  501    0 -0.24336915521E+02  0.75362878766E+02 -0.77665297443E+03  0.80171653244E+03  0.18244918949E+03 0.  0.
         24    2    3    3    0    0  0.12858697363E+02 -0.28289443451E+02 -0.42024409524E+03  0.42865260134E+03  0.78564077977E+02 0.  0.
         -6    2    1    2    0  502  0.24336915521E+02 -0.75362878766E+02 -0.41003953016E+03  0.45219108324E+03  0.17341427425E+03 0.  0.
        -24    2    5    5    0    0  0.73971070798E+02 -0.78443163139E+02 -0.33013552710E+03  0.35795851335E+03  0.86716675859E+02 0.  0.
          5    1    3    3  501    0 -0.37195612883E+02  0.10365232222E+03 -0.35640887919E+03  0.37306393110E+03  0.47000000000E+01 0. -1.
        -11    1    4    4    0    0  0.12406194542E+02 -0.29569152224E+02 -0.56958807192E+02  0.65364777541E+02  0.00000000000E+00 0.  1.
         12    1    4    4    0    0  0.45250282078E+00  0.12797087729E+01 -0.36328528804E+03  0.36328782380E+03  0.00000000000E+00 0. -1.
         -5    1    5    5    0  502 -0.49634155277E+02  0.30802843728E+01 -0.79904003062E+02  0.94232569885E+02  0.47000000000E+01 0.  1.
         11    1    6    6    0    0  0.14865910694E+02 -0.71941956425E+02 -0.13166912567E+03  0.15077598963E+03  0.00000000000E+00 0. -1.
        -12    1    6    6    0    0  0.59105160103E+02 -0.65012067138E+01 -0.19846640143E+03  0.20718252372E+03  0.00000000000E+00 0.  1.
<mgrwt>
<rscale>  2 0.19679946E+03</rscale>
<asrwt>0</asrwt>
<pdfrwt beam="1">  1       21 0.51703936E-02 0.19889584E+03</pdfrwt>
<pdfrwt beam="2">  1       21 0.18773845E+00 0.19889584E+03</pdfrwt>
<totfact> 0.40855673E+04</totfact>
</mgrwt>
</event>
<event>
12    1  0.1074575E-001  0.1815359E+03  0.7546771E-02  0.1166709E+00
         21   -1    0    0  503  502  0.00000000000E+00  0.00000000000E+00  0.12821993966E+03  0.12821993966E+03  0.00000000000E+00 0.  1.
         21   -1    0    0  501  503 -0.00000000000E+00 -0.00000000000E+00 -0.40336256888E+03  0.40336256888E+03  0.00000000000E+00 0.  1.
          6    2    1    2  501    0 -0.52485362840E+02 -0.12493635385E+02 -0.29927794670E+03  0.35003223712E+03  0.17333341688E+03 0.  0.
         24    2    3    3    0    0  0.13443454636E+02 -0.54262643644E+02 -0.20682666363E+03  0.22895131887E+03  0.80723457894E+02 0.  0.
         -6    2    1    2    0  502  0.52485362840E+02  0.12493635385E+02  0.24135317480E+02  0.18155027141E+03  0.17166008057E+03 0.  0.
        -24    2    5    5    0    0  0.80722562982E+02 -0.27704820829E+02 -0.15233330406E+02  0.11842154744E+03  0.80671675772E+02 0.  0.
          5    1    3    3  501    0 -0.65928817475E+02  0.41769008260E+02 -0.92451283068E+02  0.12108091826E+03  0.47000000000E+01 0. -1.
        -11    1    4    4    0    0 -0.33930720358E+02 -0.23598077878E+02 -0.98131350952E+02  0.10647969338E+03  0.00000000000E+00 0.  1.
         12    1    4    4    0    0  0.47374174994E+02 -0.30664565767E+02 -0.10869531268E+03  0.12247162548E+03  0.00000000000E+00 0. -1.
         -5    1    5    5    0  502 -0.28237200142E+02  0.40198456214E+02  0.39368647886E+02  0.63128723971E+02  0.47000000000E+01 0.  1.
         13    1    6    6    0    0 -0.11120125038E+02 -0.21210701304E+02  0.42174100710E+01  0.24317433630E+02  0.00000000000E+00 0. -1.
        -14    1    6    6    0    0  0.91842688021E+02 -0.64941195253E+01 -0.19450740477E+02  0.94104113812E+02  0.00000000000E+00 0.  1.
<mgrwt>
<rscale>  2 0.18113530E+03</rscale>
<asrwt>0</asrwt>
<pdfrwt beam="1">  1       21 0.19726145E-01 0.18153589E+03</pdfrwt>
<pdfrwt beam="2">  1       21 0.62055778E-01 0.18153589E+03</pdfrwt>
<totfact> 0.57367695E+04</totfact>
</mgrwt>
</event>
<event>
12    1  0.1074575E-001  0.3263758E+03  0.7546771E-02  0.1072853E+00
         21   -1    0    0  503  502  0.00000000000E+00  0.00000000000E+00  0.22362384659E+03  0.22362384659E+03  0.00000000000E+00 0.  1.
         21   -1    0    0  501  503 -0.00000000000E+00 -0.00000000000E+00 -0.56159444836E+03  0.56159444836E+03  0.00000000000E+00 0.  1.
          6    2    1    2  501    0  0.27098705027E+03 -0.56383783630E+02 -0.32293103073E+03  0.45849621131E+03  0.17123437947E+03 0.  0.
         24    2    3    3    0    0  0.18317918962E+03 -0.10268480886E+03 -0.20325123935E+03  0.30293481575E+03  0.79747418837E+02 0.  0.
         -6    2    1    2    0  502 -0.27098705027E+03  0.56383783630E+02 -0.15039571045E+02  0.32672208363E+03  0.17293934996E+03 0.  0.
        -24    2    5    5    0    0 -0.15674462971E+03  0.98671162621E+02  0.99657422094E+01  0.20227567441E+03  0.80692348857E+02 0.  0.
          5    1    3    3  501    0  0.87807860646E+02  0.46301025227E+02 -0.11967979137E+03  0.15556139557E+03  0.47000000000E+01 0. -1.
        -11    1    4    4    0    0  0.91861085272E+02 -0.14405933419E+02 -0.56296128559E+02  0.10869794844E+03  0.00000000000E+00 0.  1.
         12    1    4    4    0    0  0.91318104350E+02 -0.88278875438E+02 -0.14695511080E+03  0.19423686730E+03  0.00000000000E+00 0. -1.
         -5    1    5    5    0  502 -0.11424242056E+03 -0.42287378990E+02 -0.25005313254E+02  0.12444640922E+03  0.47000000000E+01 0.  1.
         11    1    6    6    0    0  0.18571767712E+01 -0.49886249793E+01 -0.10428595284E+02  0.11708590194E+02  0.00000000000E+00 0. -1.
        -12    1    6    6    0    0 -0.15860180648E+03  0.10365978760E+03  0.20394337493E+02  0.19056708422E+03  0.00000000000E+00 0.  1.
<mgrwt>
<rscale>  2 0.32615046E+03</rscale>
<asrwt>0</asrwt>
<pdfrwt beam="1">  1       21 0.34403669E-01 0.32637575E+03</pdfrwt>
<pdfrwt beam="2">  1       21 0.86399146E-01 0.32637575E+03</pdfrwt>
<totfact> 0.87260672E+03</totfact>
</mgrwt>
</event>
<event>
12    1  0.1074575E-001  0.1851093E+03  0.7546771E-02  0.1162994E+00
         21   -1    0    0  501  502  0.00000000000E+00  0.00000000000E+00  0.13710914054E+03  0.13710914054E+03  0.00000000000E+00 0.  1.
         21   -1    0    0  502  503 -0.00000000000E+00 -0.00000000000E+00 -0.30540036542E+03  0.30540036542E+03  0.00000000000E+00 0.  1.
         -6    2    1    2    0  503 -0.33324196048E+02 -0.56085882611E+02 -0.17864342108E+03  0.25711092201E+03  0.17302146124E+03 0.  0.
        -24    2    3    3    0    0 -0.71965175422E+01  0.29017731629E+02 -0.45562431618E+02  0.96930022721E+02  0.80160311352E+02 0.  0.
          6    2    1    2  501    0  0.33324196048E+02  0.56085882611E+02  0.10352196204E+02  0.18539858395E+03  0.17323203715E+03 0.  0.
         24    2    5    5    0    0  0.42452367535E+02  0.39881404379E+02  0.70857161549E+02  0.12192536549E+03  0.80326380994E+02 0.  0.
          5    1    5    5  501    0 -0.91281714872E+01  0.16204478232E+02 -0.60504965345E+02  0.63473218454E+02  0.47000000000E+01 0. -1.
        -13    1    6    6    0    0  0.61512879505E+02  0.30262406513E+02  0.28013585440E+02  0.74056792816E+02  0.00000000000E+00 0.  1.
         14    1    6    6    0    0 -0.19060511970E+02  0.96189978661E+01  0.42843576109E+02  0.47868572679E+02  0.00000000000E+00 0. -1.
         -5    1    3    3    0  503 -0.26127678506E+02 -0.85103614240E+02 -0.13308098946E+03  0.16018089929E+03  0.47000000000E+01 0.  1.
         11    1    4    4    0    0 -0.13261215773E+02  0.50893522081E+02 -0.51348949113E+02  0.73503231280E+02  0.00000000000E+00 0. -1.
        -12    1    4    4    0    0  0.60646982306E+01 -0.21875790451E+02  0.57865174950E+01  0.23426791441E+02  0.00000000000E+00 0.  1.
<mgrwt>
<rscale>  2 0.18506006E+03</rscale>
<asrwt>0</asrwt>
<pdfrwt beam="1">  1       21 0.21093714E-01 0.18510934E+03</pdfrwt>
<pdfrwt beam="2">  1       21 0.46984671E-01 0.18510934E+03</pdfrwt>
<totfact> 0.90847311E+04</totfact>
</mgrwt>
</event>
<event>
12    1  0.1074575E-001  0.2291276E+03  0.7546771E-02  0.1127332E+00
         21   -1    0    0  501  502  0.00000000000E+00  0.00000000000E+00  0.14004402869E+03  0.14004402869E+03  0.00000000000E+00 0. -1.
         21   -1    0    0  502  503 -0.00000000000E+00 -0.00000000000E+00 -0.56095007083E+03  0.56095007083E+03  0.00000000000E+00 0.  1.
         -6    2    1    2    0  503 -0.88670628924E+02 -0.12181950514E+03 -0.41257104021E+03  0.47171490896E+03  0.17203958804E+03 0.  0.
        -24    2    3    3    0    0  0.17209181166E+00 -0.11096107157E+03 -0.27849025456E+03  0.31043663489E+03  0.80633078675E+02 0.  0.
          6    2    1    2  501    0  0.88670628924E+02  0.12181950514E+03 -0.83350019274E+01  0.22927919056E+03  0.17261808335E+03 0.  0.
         24    2    5    5    0    0 -0.37960901462E+01  0.60758859702E+02  0.36427553267E+02  0.10967871855E+03  0.83644517652E+02 0.  0.
          5    1    5    5  501    0  0.92466719070E+02  0.61060645434E+02 -0.44762555194E+02  0.11960047201E+03  0.47000000000E+01 0. -1.
        -13    1    6    6    0    0 -0.10372949115E+02  0.29848446372E+01  0.49011047740E+02  0.50185557399E+02  0.00000000000E+00 0.  1.
         14    1    6    6    0    0  0.65768589692E+01  0.57774015065E+02 -0.12583494474E+02  0.59493161152E+02  0.00000000000E+00 0. -1.
         -5    1    3    3    0  503 -0.88842720736E+02 -0.10858433564E+02 -0.13408078565E+03  0.16127827407E+03  0.47000000000E+01 0.  1.
         11    1    4    4    0    0  0.13355037936E+02  0.72804654682E+01 -0.57239980468E+02  0.59226493900E+02  0.00000000000E+00 0. -1.
        -12    1    4    4    0    0 -0.13182946125E+02 -0.11824153704E+03 -0.22125027409E+03  0.25121014099E+03  0.00000000000E+00 0.  1.
<mgrwt>
<rscale>  2 0.22901869E+03</rscale>
<asrwt>0</asrwt>
<pdfrwt beam="1">  1       21 0.21545235E-01 0.22912764E+03</pdfrwt>
<pdfrwt beam="2">  1       21 0.86300014E-01 0.22912764E+03</pdfrwt>
<totfact> 0.22759311E+04</totfact>
</mgrwt>
</event>
<event>
12    1  0.1074575E-001  0.2467357E+03  0.7546771E-02  0.1117401E+00
         21   -1    0    0  503  502  0.00000000000E+00  0.00000000000E+00  0.15102836488E+04  0.15102836488E+04  0.00000000000E+00 0. -1.
         21   -1    0    0  501  503 -0.00000000000E+00 -0.00000000000E+00 -0.19567804066E+03  0.19567804066E+03  0.00000000000E+00 0. -1.
          6    2    1    2  501    0  0.83967155210E+02  0.15483688568E+03 -0.11078140951E+03  0.25937720617E+03  0.15485176805E+03 0.  0.
         24    2    3    3    0    0  0.70303819697E+02  0.70796126872E+02 -0.89099714529E+02  0.17139015159E+03  0.10714992435E+03 0.  0.
         -6    2    1    2    0  502 -0.83967155210E+02 -0.15483688568E+03  0.14253870176E+04  0.14465844833E+04  0.17278186495E+03 0.  0.
        -24    2    5    5    0    0  0.22742579202E+02 -0.70243169172E+02  0.55359828219E+03  0.56421225255E+03  0.80081709247E+02 0.  0.
          5    1    3    3  501    0  0.13663335512E+02  0.84040758803E+02 -0.21681694984E+02  0.87987054587E+02  0.47000000000E+01 0. -1.
        -13    1    4    4    0    0  0.71487735864E+02  0.33163509331E+02 -0.46678750758E+01  0.78943674780E+02  0.00000000000E+00 0.  1.
         14    1    4    4    0    0 -0.11839161668E+01  0.37632617542E+02 -0.84431839453E+02  0.92446476807E+02  0.00000000000E+00 0. -1.
         -5    1    5    5    0  502 -0.10670973441E+03 -0.84593716504E+02  0.87178873544E+03  0.88237223071E+03  0.47000000000E+01 0.  1.
         13    1    6    6    0    0  0.32694954954E+01 -0.80663600631E+02  0.33897905568E+03  0.34845961926E+03  0.00000000000E+00 0. -1.
        -14    1    6    6    0    0  0.19473083706E+02  0.10420431459E+02  0.21461922651E+03  0.21575263329E+03  0.00000000000E+00 0.  1.
<mgrwt>
<rscale>  2 0.24362583E+03</rscale>
<asrwt>0</asrwt>
<pdfrwt beam="1">  1       21 0.23235132E+00 0.24673572E+03</pdfrwt>
<pdfrwt beam="2">  1       21 0.30104315E-01 0.24673572E+03</pdfrwt>
<totfact> 0.84493770E+02</totfact>
</mgrwt>
</event>
<event>
12    1  0.1074575E-001  0.2170240E+03  0.7546771E-02  0.1137351E+00
         21   -1    0    0  503  502  0.00000000000E+00  0.00000000000E+00  0.18303468865E+03  0.18303468865E+03  0.00000000000E+00 0.  1.
         21   -1    0    0  501  503 -0.00000000000E+00 -0.00000000000E+00 -0.26921053192E+03  0.26921053192E+03  0.00000000000E+00 0. -1.
          6    2    1    2  501    0  0.10857835180E+03 -0.52439684726E+02 -0.10317558334E+03  0.23455643304E+03  0.17272041070E+03 0.  0.
         24    2    3    3    0    0 -0.74591999725E+01 -0.30833784324E+02 -0.15915065922E+02  0.87695899701E+02  0.80193014541E+02 0.  0.
         -6    2    1    2    0  502 -0.10857835180E+03  0.52439684726E+02  0.16999740071E+02  0.21768878752E+03  0.18044455668E+03 0.  0.
        -24    2    5    5    0    0  0.14938218999E+02  0.44219944794E+02  0.29422481432E+02  0.93188498807E+02  0.75099001270E+02 0.  0.
          5    1    3    3  501    0  0.11603755177E+03 -0.21605900402E+02 -0.87260517421E+02  0.14686053334E+03  0.47000000000E+01 0. -1.
        -13    1    4    4    0    0  0.23431410210E+02 -0.44112927583E+02  0.12052750520E+01  0.49964327799E+02  0.00000000000E+00 0.  1.
         14    1    4    4    0    0 -0.30890610183E+02  0.13279143259E+02 -0.17120340974E+02  0.37731571903E+02  0.00000000000E+00 0. -1.
         -5    1    5    5    0  502 -0.12351657080E+03  0.82197399322E+01 -0.12422741360E+02  0.12450028871E+03  0.47000000000E+01 0.  1.
         13    1    6    6    0    0  0.17972081491E+02  0.40462890511E+02 -0.16323828635E+02  0.47188013340E+02  0.00000000000E+00 0. -1.
        -14    1    6    6    0    0 -0.30338624913E+01  0.37570542827E+01  0.45746310067E+02  0.46000485467E+02  0.00000000000E+00 0.  1.
<mgrwt>
<rscale>  2 0.21541149E+03</rscale>
<asrwt>0</asrwt>
<pdfrwt beam="1">  1       21 0.28159183E-01 0.21702400E+03</pdfrwt>
<pdfrwt beam="2">  1       21 0.41417005E-01 0.21702400E+03</pdfrwt>
<totfact> 0.66921245E+04</totfact>
</mgrwt>
</event>
<event>
12    1  0.1074575E-001  0.2267805E+03  0.7546771E-02  0.1128950E+00
         21   -1    0    0  501  502  0.00000000000E+00  0.00000000000E+00  0.47028741169E+03  0.47028741169E+03  0.00000000000E+00 0. -1.
         21   -1    0    0  502  503 -0.00000000000E+00 -0.00000000000E+00 -0.30944568922E+03  0.30944568922E+03  0.00000000000E+00 0.  1.
         -6    2    1    2    0  503  0.13581624350E+03 -0.56471305449E+02 -0.23313386381E+03  0.32514959758E+03  0.17244072028E+03 0.  0.
        -24    2    3    3    0    0  0.45406714611E+02  0.62881838363E+01 -0.18405343509E+02  0.83813599764E+02  0.67710057215E+02 0.  0.
          6    2    1    2  501    0 -0.13581624350E+03  0.56471305449E+02  0.39397558629E+03  0.45458350333E+03  0.17261036633E+03 0.  0.
         24    2    5    5    0    0 -0.20311297701E+02  0.73527768619E+02  0.19615194063E+03  0.22482580439E+03  0.79070708434E+02 0.  0.
          5    1    5    5  501    0 -0.11550494580E+03 -0.17056463170E+02  0.19782364566E+03  0.22975769894E+03  0.47000000000E+01 0. -1.
        -13    1    6    6    0    0 -0.25387598722E+02  0.42988557083E+02  0.35604267486E+02  0.61320551793E+02  0.00000000000E+00 0.  1.
         14    1    6    6    0    0  0.50763010218E+01  0.30539211536E+02  0.16054767314E+03  0.16350525259E+03  0.00000000000E+00 0. -1.
         -5    1    3    3    0  503  0.90409528890E+02 -0.62759489285E+02 -0.21472852031E+03  0.24133599782E+03  0.47000000000E+01 0.  1.
         11    1    4    4    0    0  0.44599877536E+02 -0.99163014527E+01  0.13820866634E+02  0.47733619863E+02  0.00000000000E+00 0. -1.
        -12    1    4    4    0    0  0.80683707542E+00  0.16204485289E+02 -0.32226210142E+02  0.36079979901E+02  0.00000000000E+00 0.  1.
<mgrwt>
<rscale>  2 0.22674823E+03</rscale>
<asrwt>0</asrwt>
<pdfrwt beam="1">  1       21 0.72351910E-01 0.22678051E+03</pdfrwt>
<pdfrwt beam="2">  1       21 0.47607029E-01 0.22678051E+03</pdfrwt>
<totfact> 0.70952277E+03</totfact>
</mgrwt>
</event>
<event>
12    1  0.1074575E-001  0.1735535E+03  0.7546771E-02  0.1174340E+00
         21   -1    0    0  501  502  0.00000000000E+00  0.00000000000E+00  0.17583455552E+03  0.17583455552E+03  0.00000000000E+00 0. -1.
         21   -1    0    0  502  503 -0.00000000000E+00 -0.00000000000E+00 -0.20757022008E+03  0.20757022008E+03  0.00000000000E+00 0. -1.
         -6    2    1    2    0  503 -0.13454053348E+02 -0.66624016877E+01 -0.96654189312E+02  0.19865262017E+03  0.17290295556E+03 0.  0.
        -24    2    3    3    0    0 -0.15821301855E+02  0.58867857623E+02 -0.85259161677E+02  0.13193114383E+03  0.80130916683E+02 0.  0.
          6    2    1    2  501    0  0.13454053348E+02  0.66624016877E+01  0.64918524757E+02  0.18475215542E+03  0.17231815032E+03 0.  0.
         24    2    5    5    0    0 -0.56541613876E+02 -0.23595721193E+01  0.14098971861E+02  0.97657342732E+02  0.78330414921E+02 0.  0.
          5    1    5    5  501    0  0.69995667224E+02  0.90219738071E+01  0.50819552896E+02  0.87094812693E+02  0.47000000000E+01 0. -1.
        -11    1    6    6    0    0 -0.44236986455E+02  0.28389033544E+02  0.30424542180E+02  0.60733030247E+02  0.00000000000E+00 0.  1.
         12    1    6    6    0    0 -0.12304627421E+02 -0.30748605664E+02 -0.16325570319E+02  0.36924312484E+02  0.00000000000E+00 0. -1.
         -5    1    3    3    0  503  0.23672485074E+01 -0.65530259310E+02 -0.11395027635E+02  0.66721476344E+02  0.47000000000E+01 0.  1.
         13    1    4    4    0    0  0.29926937446E+02  0.69918107587E+01 -0.18899720408E+02  0.36079168977E+02  0.00000000000E+00 0. -1.
        -14    1    4    4    0    0 -0.45748239301E+02  0.51876046864E+02 -0.66359441268E+02  0.95851974851E+02  0.00000000000E+00 0.  1.
<mgrwt>
<rscale>  2 0.17340770E+03</rscale>
<asrwt>0</asrwt>
<pdfrwt beam="1">  1       21 0.27051470E-01 0.17355354E+03</pdfrwt>
<pdfrwt beam="2">  1       21 0.31933880E-01 0.17355354E+03</pdfrwt>
<totfact> 0.12362516E+05</totfact>
</mgrwt>
</event>
<event>
12    1  0.1074575E-001  0.1974250E+03  0.7546771E-02  0.1152238E+00
         21   -1    0    0  501  502  0.00000000000E+00  0.00000000000E+00  0.95037536209E+03  0.95037536209E+03  0.00000000000E+00 0. -1.
         21   -1    0    0  502  503 -0.00000000000E+00 -0.00000000000E+00 -0.72791036717E+02  0.72791036717E+02  0.00000000000E+00 0.  1.
         -6    2    1    2    0  503 -0.53350022969E+01  0.94551768194E+02  0.98304825677E+02  0.21926767709E+03  0.17159829938E+03 0.  0.
        -24    2    3    3    0    0 -0.42499965208E+02  0.77087248436E+02  0.11868874459E+03  0.17318255944E+03  0.90313287439E+02 0.  0.
          6    2    1    2  501    0  0.53350022969E+01 -0.94551768194E+02  0.77927949970E+03  0.80389872172E+03  0.17322851096E+03 0.  0.
         24    2    5    5    0    0 -0.55260534604E+02 -0.54949927746E+02  0.60333430517E+03  0.61358601500E+03  0.80014328518E+02 0.  0.
          5    1    5    5  501    0  0.60595536901E+02 -0.39601840448E+02  0.17594519453E+03  0.19031270672E+03  0.47000000000E+01 0. -1.
        -13    1    6    6    0    0 -0.54646642554E+02 -0.71805975787E+02  0.55731982937E+03  0.56457749328E+03  0.00000000000E+00 0.  1.
         14    1    6    6    0    0 -0.61389204972E+00  0.16856048041E+02  0.46014475794E+02  0.49008521724E+02  0.00000000000E+00 0. -1.
         -5    1    3    3    0  503  0.37164962911E+02  0.17464519758E+02 -0.20383918916E+02  0.46085117651E+02  0.47000000000E+01 0.  1.
         13    1    4    4    0    0 -0.42583623089E+01  0.73614082381E+02  0.11216741630E+03  0.13423373664E+03  0.00000000000E+00 0. -1.
        -14    1    4    4    0    0 -0.38241602899E+02  0.34731660543E+01  0.65213282951E+01  0.38948822799E+02  0.00000000000E+00 0.  1.
<mgrwt>
<rscale>  2 0.19706678E+03</rscale>
<asrwt>0</asrwt>
<pdfrwt beam="1">  1       21 0.14621159E+00 0.19742496E+03</pdfrwt>
<pdfrwt beam="2">  1       21 0.11198622E-01 0.19742496E+03</pdfrwt>
<totfact> 0.21152802E+04</totfact>
</mgrwt>
</event>
<event>
12    1  0.1074575E-001  0.1823041E+03  0.7546771E-02  0.1166033E+00
         21   -1    0    0  501  502  0.00000000000E+00  0.00000000000E+00  0.13115512483E+03  0.13115512483E+03  0.00000000000E+00 0.  1.
         21   -1    0    0  502  503 -0.00000000000E+00 -0.00000000000E+00 -0.45291297801E+03  0.45291297801E+03  0.00000000000E+00 0.  1.
         -6    2    1    2    0  503 -0.48695104404E+02  0.22979940146E+02 -0.35548817976E+03  0.39866983145E+03  0.17223965198E+03 0.  0.
        -24    2    3    3    0    0 -0.79975175215E+02  0.52404170446E+02 -0.18722033514E+03  0.22494480247E+03  0.80040518112E+02 0.  0.
          6    2    1    2  501    0  0.48695104404E+02 -0.22979940146E+02  0.33730326585E+02  0.18539827139E+03  0.17417087375E+03 0.  0.
         24    2    5    5    0    0  0.22063574243E+02 -0.78182207793E+02 -0.20408980473E+01  0.11427725295E+03  0.80348406046E+02 0.  0.
          5    1    5    5  501    0  0.26631530161E+02  0.55202267647E+02  0.35771224633E+02  0.71121018439E+02  0.47000000000E+01 0. -1.
        -11    1    6    6    0    0  0.31234106616E+02 -0.91095056930E+02 -0.95043779725E+01  0.96768858698E+02  0.00000000000E+00 0.  1.
         12    1    6    6    0    0 -0.91705323721E+01  0.12912849137E+02  0.74634799252E+01  0.17508394256E+02  0.00000000000E+00 0. -1.
         -5    1    3    3    0  503  0.31280070810E+02 -0.29424230300E+02 -0.16826784462E+03  0.17372502898E+03  0.47000000000E+01 0.  1.
         13    1    4    4    0    0 -0.26115714653E+02  0.18972581390E+02 -0.58373066855E+01  0.32803407533E+02  0.00000000000E+00 0. -1.
        -14    1    4    4    0    0 -0.53859460562E+02  0.33431589056E+02 -0.18138302845E+03  0.19214139494E+03  0.00000000000E+00 0.  1.
<mgrwt>
<rscale>  2 0.18184130E+03</rscale>
<asrwt>0</asrwt>
<pdfrwt beam="1">  1       21 0.20177711E-01 0.18230410E+03</pdfrwt>
<pdfrwt beam="2">  1       21 0.69678921E-01 0.18230410E+03</pdfrwt>
<totfact> 0.42717362E+04</totfact>
</mgrwt>
</event>
<event>
12    1  0.1074575E-001  0.1751257E+03  0.7546771E-02  0.1172835E+00
         21   -1    0    0  501  502  0.00000000000E+00  0.00000000000E+00  0.55960678031E+03  0.55960678031E+03  0.00000000000E+00 0.  1.
         21   -1    0    0  502  503 -0.00000000000E+00 -0.00000000000E+00 -0.55420069319E+02  0.55420069319E+02  0.00000000000E+00 0.  1.
         -6    2    1    2    0  503  0.24511880968E+02  0.13584920449E+02  0.21353581325E+03  0.27616398900E+03  0.17286880259E+03 0.  0.
        -24    2    3    3    0    0 -0.15982639772E+02  0.51001008637E+02  0.61193286914E+02  0.11408343744E+03  0.80086607354E+02 0.  0.
          6    2    1    2  501    0 -0.24511880968E+02 -0.13584920449E+02  0.29065089774E+03  0.33886286063E+03  0.17194391988E+03 0.  0.
         24    2    5    5    0    0 -0.28101318784E+02 -0.39012719475E+02  0.29748547633E+03  0.31187659576E+03  0.80359977331E+02 0.  0.
          5    1    5    5  501    0  0.35894378153E+01  0.25427799026E+02 -0.68345785901E+01  0.26986264870E+02  0.47000000000E+01 0. -1.
        -13    1    6    6    0    0 -0.32578148761E+02  0.97579889126E+00  0.23699224164E+03  0.23922293067E+03  0.00000000000E+00 0.  1.
         14    1    6    6    0    0  0.44768299774E+01 -0.39988518366E+02  0.60493234689E+02  0.72653665089E+02  0.00000000000E+00 0. -1.
         -5    1    3    3    0  503  0.40494520740E+02 -0.37416088188E+02  0.15234252634E+03  0.16208055157E+03  0.47000000000E+01 0.  1.
         13    1    4    4    0    0 -0.27466280062E+02 -0.11503085806E+02  0.33326094995E+02  0.44691678544E+02  0.00000000000E+00 0. -1.
        -14    1    4    4    0    0  0.11483640290E+02  0.62504094443E+02  0.27867191919E+02  0.69391758891E+02  0.00000000000E+00 0.  1.
<mgrwt>
<rscale>  2 0.17489701E+03</rscale>
<asrwt>0</asrwt>
<pdfrwt beam="1">  1       21 0.86093347E-01 0.17512568E+03</pdfrwt>
<pdfrwt beam="2">  1       21 0.85261649E-02 0.17512568E+03</pdfrwt>
<totfact> 0.12578052E+05</totfact>
</mgrwt>
</event>
<event>
12    1  0.1074575E-001  0.2493118E+03  0.7546771E-02  0.1114058E+00
         21   -1    0    0  501  502  0.00000000000E+00  0.00000000000E+00  0.10110948079E+03  0.10110948079E+03  0.00000000000E+00 0.  1.
         21   -1    0    0  502  503 -0.00000000000E+00 -0.00000000000E+00 -0.61404608620E+03  0.61404608620E+03  0.00000000000E+00 0. -1.
         -6    2    1    2    0  503  0.15263185224E+03  0.90421560887E+02 -0.22582317359E+03  0.33490496744E+03  0.17231567106E+03 0.  0.
        -24    2    3    3    0    0  0.14197186198E+03  0.11599467871E+03 -0.23252311483E+03  0.30601554100E+03  0.77251131502E+02 0.  0.
          6    2    1    2  501    0 -0.15263185224E+03 -0.90421560887E+02 -0.28711343183E+03  0.38025059955E+03  0.17516807565E+03 0.  0.
         24    2    5    5    0    0 -0.61924961614E+02  0.19793817166E+02 -0.87768753112E+02  0.13502506968E+03  0.79384629180E+02 0.  0.
          5    1    5    5  501    0 -0.90706890630E+02 -0.11021537805E+03 -0.19934467872E+03  0.24522552987E+03  0.47000000000E+01 0. -1.
        -13    1    6    6    0    0 -0.64874934991E+02  0.24217276637E+00 -0.94070745909E+02  0.11427213603E+03  0.00000000000E+00 0.  1.
         14    1    6    6    0    0  0.29499733772E+01  0.19551644399E+02  0.63019927976E+01  0.20752933645E+02  0.00000000000E+00 0. -1.
         -5    1    3    3    0  503  0.10659990259E+02 -0.25573117824E+02  0.66999412393E+01  0.28889426442E+02  0.47000000000E+01 0.  1.
         13    1    4    4    0    0  0.25751653291E+02  0.68302431730E+02 -0.93955016280E+02  0.11897863216E+03  0.00000000000E+00 0. -1.
        -14    1    4    4    0    0  0.11622020869E+03  0.47692246981E+02 -0.13856809855E+03  0.18703690883E+03  0.00000000000E+00 0.  1.
<mgrwt>
<rscale>  2 0.24881139E+03</rscale>
<asrwt>0</asrwt>
<pdfrwt beam="1">  1       21 0.15555305E-01 0.24931184E+03</pdfrwt>
<pdfrwt beam="2">  1       21 0.94468626E-01 0.24931184E+03</pdfrwt>
<totfact> 0.33482632E+04</totfact>
</mgrwt>
</event>
<event>
12    1  0.1074575E-001  0.2103824E+03  0.7546771E-02  0.1141271E+00
         21   -1    0    0  501  502  0.00000000000E+00  0.00000000000E+00  0.11003914634E+04  0.11003914634E+04  0.00000000000E+00 0.  1.
         21   -1    0    0  502  503 -0.00000000000E+00 -0.00000000000E+00 -0.43541190417E+02  0.43541190417E+02  0.00000000000E+00 0. -1.
         -6    2    1    2    0  503 -0.10653549817E+03 -0.54596414690E+02  0.37039969136E+03  0.42597731781E+03  0.17300336140E+03 0.  0.
        -24    2    3    3    0    0 -0.66454950882E+02 -0.40907616528E+02  0.88857689339E+02  0.14122861742E+03  0.77201941932E+02 0.  0.
          6    2    1    2  501    0  0.10653549817E+03  0.54596414690E+02  0.68645058160E+03  0.71795533599E+03  0.17295919354E+03 0.  0.
         24    2    5    5    0    0  0.24748951892E+02  0.87198597034E+02  0.37163973240E+03  0.39103041767E+03  0.81071517184E+02 0.  0.
          5    1    5    5  501    0  0.81786546277E+02 -0.32602182344E+02  0.31481084920E+03  0.32692491832E+03  0.47000000000E+01 0. -1.
        -11    1    6    6    0    0  0.21048608419E+02  0.60418704026E+02  0.35161234169E+03  0.35738592941E+03  0.00000000000E+00 0.  1.
         12    1    6    6    0    0  0.37003434729E+01  0.26779893008E+02  0.20027390709E+02  0.33644488255E+02  0.00000000000E+00 0. -1.
         -5    1    3    3    0  503 -0.40080547287E+02 -0.13688798162E+02  0.28154200202E+03  0.28474870038E+03  0.47000000000E+01 0.  1.
         11    1    4    4    0    0 -0.15690015517E+02 -0.54907282100E+02  0.45445534435E+02  0.72981386768E+02  0.00000000000E+00 0. -1.
        -12    1    4    4    0    0 -0.50764935365E+02  0.13999665572E+02  0.43412154904E+02  0.68247230656E+02  0.00000000000E+00 0.  1.
<mgrwt>
<rscale>  2 0.21037330E+03</rscale>
<asrwt>0</asrwt>
<pdfrwt beam="1">  1       21 0.16929097E+00 0.21038238E+03</pdfrwt>
<pdfrwt beam="2">  1       21 0.66986455E-02 0.21038238E+03</pdfrwt>
<totfact> 0.34833065E+04</totfact>
</mgrwt>
</event>
<event>
12    1  0.1074575E-001  0.1778948E+03  0.7546771E-02  0.1169970E+00
         21   -1    0    0  503  502  0.00000000000E+00  0.00000000000E+00  0.37883106050E+02  0.37883106050E+02  0.00000000000E+00 0. -1.
         21   -1    0    0  501  503 -0.00000000000E+00 -0.00000000000E+00 -0.90146824333E+03  0.90146824333E+03  0.00000000000E+00 0. -1.
          6    2    1    2  501    0 -0.24986617283E+02  0.30708356867E+02 -0.56051922415E+03  0.58793206627E+03  0.17295947410E+03 0.  0.
         24    2    3    3    0    0  0.41964197674E+02  0.47427396782E+02 -0.41019657958E+03  0.42246023969E+03  0.78746862612E+02 0.  0.
         -6    2    1    2    0  502  0.24986617283E+02 -0.30708356867E+02 -0.30306591313E+03  0.35141928311E+03  0.17343364903E+03 0.  0.
        -24    2    5    5    0    0  0.63585144436E+02  0.10698796439E+02 -0.25361893623E+03  0.27610997315E+03  0.88071661822E+02 0.  0.
          5    1    3    3  501    0 -0.66950814958E+02 -0.16719039915E+02 -0.15032264457E+03  0.16547182657E+03  0.47000000000E+01 0. -1.
        -13    1    4    4    0    0  0.18150404947E+02  0.65307803644E+02 -0.22858111777E+03  0.23841953322E+03  0.00000000000E+00 0.  1.
         14    1    4    4    0    0  0.23813792727E+02 -0.17880406862E+02 -0.18161546180E+03  0.18404070648E+03  0.00000000000E+00 0. -1.
         -5    1    5    5    0  502 -0.38598527153E+02 -0.41407153306E+02 -0.49446976896E+02  0.75309309965E+02  0.47000000000E+01 0.  1.
         11    1    6    6    0    0  0.47044378705E+02  0.48065195853E+02 -0.13880705582E+03  0.15424278059E+03  0.00000000000E+00 0. -1.
        -12    1    6    6    0    0  0.16540765731E+02 -0.37366399414E+02 -0.11481188042E+03  0.12186719256E+03  0.00000000000E+00 0.  1.
<mgrwt>
<rscale>  2 0.17777914E+03</rscale>
<asrwt>0</asrwt>
<pdfrwt beam="1">  1       21 0.58281710E-02 0.17789481E+03</pdfrwt>
<pdfrwt beam="2">  1       21 0.13868740E+00 0.17789481E+03</pdfrwt>
<totfact> 0.76531608E+04</totfact>
</mgrwt>
</event>
<event>
12    1  0.1074575E-001  0.1783845E+03  0.7546771E-02  0.1169808E+00
         21   -1    0    0  503  502  0.00000000000E+00  0.00000000000E+00  0.98637518373E+02  0.98637518373E+02  0.00000000000E+00 0. -1.
         21   -1    0    0  501  503 -0.00000000000E+00 -0.00000000000E+00 -0.31944828356E+03  0.31944828356E+03  0.00000000000E+00 0. -1.
          6    2    1    2  501    0  0.23015643344E+02  0.23943395425E+02 -0.10962764551E+03  0.20937821701E+03  0.17526554446E+03 0.  0.
         24    2    3    3    0    0  0.19741601194E+02  0.18952288365E+01 -0.14480914256E+03  0.16746558483E+03  0.81741737337E+02 0.  0.
         -6    2    1    2    0  502 -0.23015643344E+02 -0.23943395425E+02 -0.11118311968E+03  0.20870758493E+03  0.17347669550E+03 0.  0.
        -24    2    5    5    0    0 -0.27293509541E+02  0.16471837172E+02 -0.13788821126E+03  0.15985123343E+03  0.74316895393E+02 0.  0.
          5    1    3    3  501    0  0.32740421496E+01  0.22048166588E+02  0.35181497049E+02  0.41912632183E+02  0.47000000000E+01 0. -1.
        -13    1    4    4    0    0 -0.23707756538E+02  0.25342412085E+02 -0.57303895279E+02  0.66992775614E+02  0.00000000000E+00 0.  1.
         14    1    4    4    0    0  0.43449357732E+02 -0.23447183249E+02 -0.87505247281E+02  0.10047280921E+03  0.00000000000E+00 0. -1.
         -5    1    5    5    0  502  0.42778661971E+01 -0.40415232597E+02  0.26705091583E+02  0.48856351496E+02  0.47000000000E+01 0.  1.
         11    1    6    6    0    0  0.10350309664E+02  0.36512706988E+02 -0.58462046143E+02  0.69700197424E+02  0.00000000000E+00 0. -1.
        -12    1    6    6    0    0 -0.37643819205E+02 -0.20040869816E+02 -0.79426165119E+02  0.90151036005E+02  0.00000000000E+00 0.  1.
<mgrwt>
<rscale>  2 0.17794352E+03</rscale>
<asrwt>0</asrwt>
<pdfrwt beam="1">  1       21 0.15175003E-01 0.17838446E+03</pdfrwt>
<pdfrwt beam="2">  1       21 0.49145890E-01 0.17838446E+03</pdfrwt>
<totfact> 0.15240062E+05</totfact>
</mgrwt>
</event>
<event>
12    1  0.1074575E-001  0.2116335E+03  0.7546771E-02  0.1140399E+00
         21   -1    0    0  503  502  0.00000000000E+00  0.00000000000E+00  0.18177006271E+03  0.18177006271E+03  0.00000000000E+00 0. -1.
         21   -1    0    0  501  503 -0.00000000000E+00 -0.00000000000E+00 -0.29553677864E+03  0.29553677864E+03  0.00000000000E+00 0. -1.
          6    2    1    2  501    0 -0.41082914315E+02  0.11419927396E+03  0.41196497578E+02  0.21500488616E+03  0.17262870456E+03 0.  0.
         24    2    3    3    0    0 -0.17415934989E+02 -0.15888427106E+02  0.18844726270E+02  0.80823562719E+02  0.74977114341E+02 0.  0.
         -6    2    1    2    0  502  0.41082914315E+02 -0.11419927396E+03 -0.15496321350E+03  0.26230195519E+03  0.17337657897E+03 0.  0.
        -24    2    5    5    0    0 -0.28140180406E+02 -0.48684677737E+02 -0.13199054784E+03  0.16414986643E+03  0.79759678597E+02 0.  0.
          5    1    3    3  501    0 -0.23666979326E+02  0.13008770107E+03  0.22351771308E+02  0.13418132344E+03  0.47000000000E+01 0. -1.
        -11    1    4    4    0    0  0.25325490426E+02 -0.73063962963E+01  0.25558477654E+02  0.36715115036E+02  0.00000000000E+00 0.  1.
         12    1    4    4    0    0 -0.42741425415E+02 -0.85820308093E+01 -0.67137513834E+01  0.44108447683E+02  0.00000000000E+00 0. -1.
         -5    1    5    5    0  502  0.69223094721E+02 -0.65514596225E+02 -0.22972665664E+02  0.98152088765E+02  0.47000000000E+01 0.  1.
         11    1    6    6    0    0  0.64976711251E+01 -0.60604710712E+02 -0.83304831105E+02  0.10322231143E+03  0.00000000000E+00 0. -1.
        -12    1    6    6    0    0 -0.34637851531E+02  0.11920032974E+02 -0.48685716733E+02  0.60927555002E+02  0.00000000000E+00 0.  1.
<mgrwt>
<rscale>  2 0.21148022E+03</rscale>
<asrwt>0</asrwt>
<pdfrwt beam="1">  1       21 0.27964625E-01 0.21163345E+03</pdfrwt>
<pdfrwt beam="2">  1       21 0.45467196E-01 0.21163345E+03</pdfrwt>
<totfact> 0.56158303E+04</totfact>
</mgrwt>
</event>
<event>
12    1  0.1074575E-001  0.1927532E+03  0.7546771E-02  0.1156173E+00
         21   -1    0    0  501  502  0.00000000000E+00  0.00000000000E+00  0.24647092352E+03  0.24647092352E+03  0.00000000000E+00 0. -1.
         21   -1    0    0  502  503 -0.00000000000E+00 -0.00000000000E+00 -0.15094452282E+03  0.15094452282E+03  0.00000000000E+00 0. -1.
         -6    2    1    2    0  503  0.41907699456E+01 -0.85494153382E+02  0.33152858445E+02  0.19482158531E+03  0.17184157025E+03 0.  0.
        -24    2    3    3    0    0  0.23545204185E+02 -0.28687772552E+02 -0.42857928440E+02  0.97861342166E+02  0.79766379674E+02 0.  0.
          6    2    1    2  501    0 -0.41907699456E+01  0.85494153382E+02  0.62373542257E+02  0.20259386103E+03  0.17270495343E+03 0.  0.
         24    2    5    5    0    0  0.17499821303E+02 -0.10389634348E+02 -0.52566161658E+01  0.83178155086E+02  0.80478476765E+02 0.  0.
          5    1    5    5  501    0 -0.21690591248E+02  0.95883787730E+02  0.67630158422E+02  0.11941570595E+03  0.47000000000E+01 0. -1.
        -11    1    6    6    0    0 -0.22220907657E+02 -0.30515709062E+02  0.30859732651E+01  0.37874799902E+02  0.00000000000E+00 0.  1.
         12    1    6    6    0    0  0.39720728960E+02  0.20126074714E+02 -0.83425894309E+01  0.45303355184E+02  0.00000000000E+00 0. -1.
         -5    1    3    3    0  503 -0.19354434239E+02 -0.56806380830E+02  0.76010786885E+02  0.96960243144E+02  0.47000000000E+01 0.  1.
         11    1    4    4    0    0 -0.22065512489E+02 -0.34380235367E+02 -0.12290819876E+02  0.42660891675E+02  0.00000000000E+00 0. -1.
        -12    1    4    4    0    0  0.45610716674E+02  0.56924628149E+01 -0.30567108564E+02  0.55200450491E+02  0.00000000000E+00 0.  1.
<mgrwt>
<rscale>  2 0.19255965E+03</rscale>
<asrwt>0</asrwt>
<pdfrwt beam="1">  1       21 0.37918604E-01 0.19275325E+03</pdfrwt>
<pdfrwt beam="2">  1       21 0.23222234E-01 0.19275325E+03</pdfrwt>
<totfact> 0.11690066E+05</totfact>
</mgrwt>
</event>
<event>
12    1  0.1074575E-001  0.1949628E+03  0.7546771E-02  0.1154390E+00
         21   -1    0    0  503  502  0.00000000000E+00  0.00000000000E+00  0.88012013814E+03  0.88012013814E+03  0.00000000000E+00 0. -1.
         21   -1    0    0  501  503 -0.00000000000E+00 -0.00000000000E+00 -0.68853604527E+02  0.68853604527E+02  0.00000000000E+00 0. -1.
          6    2    1    2  501    0 -0.82851824364E+02 -0.30211547267E+02  0.11504709883E+03  0.22637653684E+03  0.17387736797E+03 0.  0.
         24    2    3    3    0    0 -0.10632769683E+03 -0.34552969212E+02  0.14007118258E+03  0.19147296539E+03  0.67397874533E+02 0.  0.
         -6    2    1    2    0  502  0.82851824364E+02  0.30211547267E+02  0.69621943479E+03  0.72259720583E+03  0.17218611474E+03 0.  0.
        -24    2    5    5    0    0 -0.11817427637E+01 -0.17009434655E+02  0.18198689061E+03  0.19938724699E+03  0.79657570418E+02 0.  0.
          5    1    3    3  501    0  0.23475872463E+02  0.43414219454E+01 -0.25024083751E+02  0.34903571451E+02  0.47000000000E+01 0. -1.
        -11    1    4    4    0    0 -0.10460512828E+03 -0.17877617175E+02  0.91608106375E+02  0.14019232223E+03  0.00000000000E+00 0.  1.
         12    1    4    4    0    0 -0.17225685506E+01 -0.16675352037E+02  0.48463076202E+02  0.51280643160E+02  0.00000000000E+00 0. -1.
         -5    1    5    5    0  502  0.84033567128E+02  0.47220981922E+02  0.51423254418E+03  0.52320995884E+03  0.47000000000E+01 0.  1.
         13    1    6    6    0    0  0.37166463354E+02  0.75527037671E+00  0.63404823583E+02  0.73498898530E+02  0.00000000000E+00 0. -1.
        -14    1    6    6    0    0 -0.38348206118E+02 -0.17764705032E+02  0.11858206703E+03  0.12588834846E+03  0.00000000000E+00 0.  1.
<mgrwt>
<rscale>  2 0.19458502E+03</rscale>
<asrwt>0</asrwt>
<pdfrwt beam="1">  1       21 0.13540309E+00 0.19496282E+03</pdfrwt>
<pdfrwt beam="2">  1       21 0.10592863E-01 0.19496282E+03</pdfrwt>
<totfact> 0.28529873E+04</totfact>
</mgrwt>
</event>
<event>
12    1  0.1074575E-001  0.1739945E+03  0.7546771E-02  0.1173803E+00
         21   -1    0    0  503  502  0.00000000000E+00  0.00000000000E+00  0.21625582070E+02  0.21625582070E+02  0.00000000000E+00 0. -1.
         21   -1    0    0  501  503 -0.00000000000E+00 -0.00000000000E+00 -0.26934363160E+04  0.26934363160E+04  0.00000000000E+00 0. -1.
          6    2    1    2  501    0 -0.12037081007E+02 -0.15010958470E+02 -0.22777905975E+04  0.22844264288E+04  0.17292739043E+03 0.  0.
         24    2    3    3    0    0 -0.55741422488E+02  0.33537565932E+02 -0.99539788621E+03  0.10003624956E+04  0.75341198174E+02 0.  0.
         -6    2    1    2    0  502  0.12037081007E+02  0.15010958470E+02 -0.39402013649E+03  0.43063546933E+03  0.17269863719E+03 0.  0.
        -24    2    5    5    0    0  0.39288672464E+02  0.16838508735E+02 -0.39160606912E+03  0.40281628713E+03  0.84133897094E+02 0.  0.
          5    1    3    3  501    0  0.43704341481E+02 -0.48548524402E+02 -0.12823927113E+04  0.12840639332E+04  0.47000000000E+01 0. -1.
        -11    1    4    4    0    0 -0.42168122458E+02  0.25695082112E+02 -0.96404725914E+03  0.96531109268E+03  0.00000000000E+00 0.  1.
         12    1    4    4    0    0 -0.13573300030E+02  0.78424838197E+01 -0.31350627070E+02  0.35051402880E+02  0.00000000000E+00 0. -1.
         -5    1    5    5    0  502 -0.27251591457E+02 -0.18275502648E+01 -0.24140673658E+01  0.27819182198E+02  0.47000000000E+01 0.  1.
         13    1    6    6    0    0  0.30004509757E+02 -0.23035500107E-01 -0.36769670485E+02  0.47458190062E+02  0.00000000000E+00 0. -1.
        -14    1    6    6    0    0  0.92841627075E+01  0.16861544235E+02 -0.35483639864E+03  0.35535809707E+03  0.00000000000E+00 0.  1.
<mgrwt>
<rscale>  2 0.17393768E+03</rscale>
<asrwt>0</asrwt>
<pdfrwt beam="1">  1       21 0.33270153E-02 0.17399455E+03</pdfrwt>
<pdfrwt beam="2">  1       21 0.41437448E+00 0.17399455E+03</pdfrwt>
<totfact> 0.38790427E+03</totfact>
</mgrwt>
</event>
<event>
12    1  0.1074575E-001  0.1765618E+03  0.7546771E-02  0.1171218E+00
         21   -1    0    0  503  502  0.00000000000E+00  0.00000000000E+00  0.10610548545E+03  0.10610548545E+03  0.00000000000E+00 0. -1.
         21   -1    0    0  501  503 -0.00000000000E+00 -0.00000000000E+00 -0.81071806030E+03  0.81071806030E+03  0.00000000000E+00 0. -1.
          6    2    1    2  501    0 -0.35582567270E+02  0.18201952683E+02 -0.71838960407E+03  0.73972505195E+03  0.17179085852E+03 0.  0.
         24    2    3    3    0    0  0.27234042943E+02  0.55882827302E+02 -0.35868597187E+03  0.37260849301E+03  0.79478796949E+02 0.  0.
         -6    2    1    2    0  502  0.35582567270E+02 -0.18201952683E+02  0.13777029222E+02  0.17709849380E+03  0.17197860273E+03 0.  0.
        -24    2    5    5    0    0  0.62742578238E+02  0.41927399189E+02  0.14008982642E+02  0.11095207322E+03  0.80122238055E+02 0.  0.
          5    1    3    3  501    0 -0.62816610213E+02 -0.37680874619E+02 -0.35970363220E+03  0.36711655894E+03  0.47000000000E+01 0. -1.
        -11    1    4    4    0    0  0.53173143853E+02  0.48278757035E+02 -0.29082782540E+03  0.29956476034E+03  0.00000000000E+00 0.  1.
         12    1    4    4    0    0 -0.25939100910E+02  0.76040702671E+01 -0.67858146471E+02  0.73043732675E+02  0.00000000000E+00 0. -1.
         -5    1    5    5    0  502 -0.27160010968E+02 -0.60129351871E+02 -0.23195342081E+00  0.66146420573E+02  0.47000000000E+01 0.  1.
         11    1    6    6    0    0  0.35927868491E+02  0.50341283661E+02  0.39189288083E+02  0.73217872650E+02  0.00000000000E+00 0. -1.
        -12    1    6    6    0    0  0.26814709747E+02 -0.84138844719E+01 -0.25180305441E+02  0.37734200572E+02  0.00000000000E+00 0.  1.
<mgrwt>
<rscale>  2 0.17651607E+03</rscale>
<asrwt>0</asrwt>
<pdfrwt beam="1">  1       21 0.16323921E-01 0.17656180E+03</pdfrwt>
<pdfrwt beam="2">  1       21 0.12472586E+00 0.17656180E+03</pdfrwt>
<totfact> 0.16297788E+04</totfact>
</mgrwt>
</event>
<event>
12    1  0.1074575E-001  0.1930646E+03  0.7546771E-02  0.1155787E+00
         21   -1    0    0  503  502  0.00000000000E+00  0.00000000000E+00  0.21482269795E+03  0.21482269795E+03  0.00000000000E+00 0.  1.
         21   -1    0    0  501  503 -0.00000000000E+00 -0.00000000000E+00 -0.17695125788E+03  0.17695125788E+03  0.00000000000E+00 0.  1.
          6    2    1    2  501    0  0.83176585305E+02 -0.16210934165E+02 -0.93330053472E+01  0.19329001627E+03  0.17347272602E+03 0.  0.
         24    2    3    3    0    0  0.99666158513E+02 -0.33502813331E+02  0.39487537815E+02  0.13873316020E+03  0.81436124927E+02 0.  0.
         -6    2    1    2    0  502 -0.83176585305E+02  0.16210934165E+02  0.47204445423E+02  0.19848393956E+03  0.17316603555E+03 0.  0.
        -24    2    5    5    0    0 -0.79162577206E+02  0.10206167648E+02  0.95508095326E+02  0.14941763671E+03  0.82661686400E+02 0.  0.
          5    1    3    3  501    0 -0.16489573207E+02  0.17291879166E+02 -0.48820543162E+02  0.54556856071E+02  0.47000000000E+01 0. -1.
        -11    1    4    4    0    0  0.57881181893E+02  0.80356577998E+00 -0.17209915967E+02  0.60390877977E+02  0.00000000000E+00 0.  1.
         12    1    4    4    0    0  0.41784976620E+02 -0.34306379111E+02  0.56697453782E+02  0.78342282224E+02  0.00000000000E+00 0. -1.
         -5    1    5    5    0  502 -0.40140080997E+01  0.60047665165E+01 -0.48303649902E+02  0.49066302854E+02  0.47000000000E+01 0.  1.
         13    1    6    6    0    0 -0.37773563197E+02 -0.26938770230E+02  0.10072439577E+02  0.47476240975E+02  0.00000000000E+00 0. -1.
        -14    1    6    6    0    0 -0.41389014009E+02  0.37144937878E+02  0.85435655749E+02  0.10194139573E+03  0.00000000000E+00 0.  1.
<mgrwt>
<rscale>  2 0.19299565E+03</rscale>
<asrwt>0</asrwt>
<pdfrwt beam="1">  1       21 0.33049646E-01 0.19306456E+03</pdfrwt>
<pdfrwt beam="2">  1       21 0.27223270E-01 0.19306456E+03</pdfrwt>
<totfact> 0.11337717E+05</totfact>
</mgrwt>
</event>
<event>
12    1  0.1074575E-001  0.1927140E+03  0.7546771E-02  0.1156373E+00
         21   -1    0    0  503  502  0.00000000000E+00  0.00000000000E+00  0.11781991594E+03  0.11781991594E+03  0.00000000000E+00 0.  1.
         21   -1    0    0  501  503 -0.00000000000E+00 -0.00000000000E+00 -0.35259152289E+03  0.35259152289E+03  0.00000000000E+00 0.  1.
          6    2    1    2  501    0 -0.82980923750E+02  0.59216943053E+01 -0.19687380153E+03  0.27549590641E+03  0.17383267975E+03 0.  0.
         24    2    3    3    0    0 -0.72769275961E+02 -0.32152485857E+02 -0.49981190383E+02  0.12333332837E+03  0.79898940068E+02 0.  0.
         -6    2    1    2    0  502  0.82980923750E+02 -0.59216943053E+01 -0.37897805427E+02  0.19491553242E+03  0.17214796238E+03 0.  0.
        -24    2    5    5    0    0  0.71103010845E+02 -0.59174542239E+01  0.41487039461E+02  0.11450951007E+03  0.79376312818E+02 0.  0.
          5    1    3    3  501    0 -0.10211647789E+02  0.38074180163E+02 -0.14689261115E+03  0.15216257804E+03  0.47000000000E+01 0. -1.
        -13    1    4    4    0    0 -0.79727224160E+02 -0.21277358384E+02 -0.12209319815E+02  0.83415968150E+02  0.00000000000E+00 0.  1.
         14    1    4    4    0    0  0.69579481992E+01 -0.10875127473E+02 -0.37771870568E+02  0.39917360220E+02  0.00000000000E+00 0. -1.
         -5    1    5    5    0  502  0.11877912905E+02 -0.42400813279E-02 -0.79384844888E+02  0.80406022354E+02  0.47000000000E+01 0.  1.
         13    1    6    6    0    0 -0.22420209789E+01  0.25840808526E+02  0.16616485750E+02  0.30803922510E+02  0.00000000000E+00 0. -1.
        -14    1    6    6    0    0  0.73345031824E+02 -0.31758262750E+02  0.24870553711E+02  0.83705587556E+02  0.00000000000E+00 0.  1.
<mgrwt>
<rscale>  2 0.19233334E+03</rscale>
<asrwt>0</asrwt>
<pdfrwt beam="1">  1       21 0.18126141E-01 0.19271404E+03</pdfrwt>
<pdfrwt beam="2">  1       21 0.54244849E-01 0.19271404E+03</pdfrwt>
<totfact> 0.89016002E+04</totfact>
</mgrwt>
</event>
<event>
12    1  0.1074575E-001  0.1970195E+03  0.7546771E-02  0.1152630E+00
         21   -1    0    0  503  502  0.00000000000E+00  0.00000000000E+00  0.35472003086E+03  0.35472003086E+03  0.00000000000E+00 0.  1.
         21   -1    0    0  501  503 -0.00000000000E+00 -0.00000000000E+00 -0.11031179151E+03  0.11031179151E+03  0.00000000000E+00 0.  1.
          6    2    1    2  501    0  0.86300146858E+02 -0.33000690868E+02  0.92127341094E+02  0.21602143925E+03  0.17216577562E+03 0.  0.
         24    2    3    3    0    0  0.31042209257E+01  0.29328892173E+02  0.18771154342E+02  0.88703886855E+02  0.81524249178E+02 0.  0.
         -6    2    1    2    0  502 -0.86300146858E+02  0.33000690868E+02  0.15228089826E+03  0.24901038312E+03  0.17401131567E+03 0.  0.
        -24    2    5    5    0    0 -0.42509024029E+02  0.26874015533E+02  0.69847264267E+01  0.97062148060E+02  0.82722695484E+02 0.  0.
          5    1    3    3  501    0  0.83195925932E+02 -0.62329583042E+02  0.73356186753E+02  0.12731755240E+03  0.47000000000E+01 0. -1.
        -11    1    4    4    0    0  0.35791021034E+02  0.32690234182E+02  0.26076983697E+02  0.55042326225E+02  0.00000000000E+00 0.  1.
         12    1    4    4    0    0 -0.32686800109E+02 -0.33613420081E+01 -0.73058293559E+01  0.33661560629E+02  0.00000000000E+00 0. -1.
         -5    1    5    5    0  502 -0.43791122829E+02  0.61266753356E+01  0.14529617183E+03  0.15194823506E+03  0.47000000000E+01 0.  1.
         11    1    6    6    0    0  0.11643329163E+02  0.33805734334E+02 -0.14241745172E+02  0.38486648248E+02  0.00000000000E+00 0. -1.
        -12    1    6    6    0    0 -0.54152353191E+02 -0.69317188012E+01  0.21226471599E+02  0.58575499812E+02  0.00000000000E+00 0.  1.
<mgrwt>
<rscale>  2 0.19661125E+03</rscale>
<asrwt>0</asrwt>
<pdfrwt beam="1">  1       21 0.54572312E-01 0.19701954E+03</pdfrwt>
<pdfrwt beam="2">  1       21 0.16971045E-01 0.19701954E+03</pdfrwt>
<totfact> 0.99064986E+04</totfact>
</mgrwt>
</event>
<event>
12    1  0.1074575E-001  0.2436158E+03  0.7546771E-02  0.1117903E+00
         21   -1    0    0  503  502  0.00000000000E+00  0.00000000000E+00  0.11669493269E+03  0.11669493269E+03  0.00000000000E+00 0. -1.
         21   -1    0    0  501  503 -0.00000000000E+00 -0.00000000000E+00 -0.51880773171E+03  0.51880773171E+03  0.00000000000E+00 0. -1.
          6    2    1    2  501    0 -0.11289510246E+03 -0.12769638803E+03 -0.25650871126E+03  0.35169074306E+03  0.16981751420E+03 0.  0.
         24    2    3    3    0    0 -0.14197016321E+03 -0.76825599515E+02 -0.20958986330E+03  0.27647994214E+03  0.80346422607E+02 0.  0.
         -6    2    1    2    0  502  0.11289510246E+03  0.12769638803E+03 -0.14560408776E+03  0.28381192134E+03  0.17406029027E+03 0.  0.
        -24    2    5    5    0    0  0.82513522426E+02  0.22992373846E+02 -0.21685698661E+02  0.11869430221E+03  0.79252364080E+02 0.  0.
          5    1    3    3  501    0  0.29075060750E+02 -0.50870788512E+02 -0.46918847960E+02  0.75210800922E+02  0.47000000000E+01 0. -1.
        -11    1    4    4    0    0 -0.11943547724E+03 -0.41219146448E+02 -0.10698240807E+03  0.16555689926E+03  0.00000000000E+00 0.  1.
         12    1    4    4    0    0 -0.22534685965E+02 -0.35606453067E+02 -0.10260745523E+03  0.11092304288E+03  0.00000000000E+00 0. -1.
         -5    1    5    5    0  502  0.30381580030E+02  0.10470401418E+03 -0.12391838910E+03  0.16511761913E+03  0.47000000000E+01 0.  1.
         13    1    6    6    0    0  0.89700946559E+02  0.39449427595E+02 -0.23107307249E+02  0.10068001192E+03  0.00000000000E+00 0. -1.
        -14    1    6    6    0    0 -0.71874241326E+01 -0.16457053750E+02  0.14216085878E+01  0.18014290293E+02  0.00000000000E+00 0.  1.
<mgrwt>
<rscale>  2 0.24285900E+03</rscale>
<asrwt>0</asrwt>
<pdfrwt beam="1">  1       21 0.17953067E-01 0.24361580E+03</pdfrwt>
<pdfrwt beam="2">  1       21 0.79816574E-01 0.24361580E+03</pdfrwt>
<totfact> 0.38039410E+04</totfact>
</mgrwt>
</event>
<event>
12    1  0.1074575E-001  0.1822475E+03  0.7546771E-02  0.1166139E+00
         21   -1    0    0  501  502  0.00000000000E+00  0.00000000000E+00  0.45388638580E+03  0.45388638580E+03  0.00000000000E+00 0.  1.
         21   -1    0    0  502  503 -0.00000000000E+00 -0.00000000000E+00 -0.74657878481E+02  0.74657878481E+02  0.00000000000E+00 0.  1.
         -6    2    1    2    0  503 -0.55410804864E+02 -0.18674942701E+02  0.14213767313E+03  0.22950212331E+03  0.17043765928E+03 0.  0.
        -24    2    3    3    0    0  0.10646764374E+02  0.40440393287E+02  0.80268542972E+02  0.12129812769E+03  0.80755295731E+02 0.  0.
          6    2    1    2  501    0  0.55410804864E+02  0.18674942701E+02  0.23709083419E+03  0.29904214097E+03  0.17261236236E+03 0.  0.
         24    2    5    5    0    0 -0.10299066597E+02  0.50296914698E+02  0.48441725306E+02  0.96734670513E+02  0.66144881342E+02 0.  0.
          5    1    5    5  501    0  0.65709871460E+02 -0.31621971997E+02  0.18864910888E+03  0.20230747046E+03  0.47000000000E+01 0. -1.
        -11    1    6    6    0    0  0.10647242826E+02  0.11448270433E+02  0.50185628208E+02  0.52564474261E+02  0.00000000000E+00 0.  1.
         12    1    6    6    0    0 -0.20946309423E+02  0.38848644264E+02 -0.17439029019E+01  0.44170196252E+02  0.00000000000E+00 0. -1.
         -5    1    3    3    0  503 -0.66057569238E+02 -0.59115335988E+02  0.61869130156E+02  0.10820399562E+03  0.47000000000E+01 0.  1.
         13    1    4    4    0    0 -0.32816927925E+02  0.21545603764E+02  0.18379400813E+02  0.43347043431E+02  0.00000000000E+00 0. -1.
        -14    1    4    4    0    0  0.43463692299E+02  0.18894789523E+02  0.61889142160E+02  0.77951084256E+02  0.00000000000E+00 0.  1.
<mgrwt>
<rscale>  2 0.18173068E+03</rscale>
<asrwt>0</asrwt>
<pdfrwt beam="1">  1       21 0.69828673E-01 0.18224746E+03</pdfrwt>
<pdfrwt beam="2">  1       21 0.11485828E-01 0.18224746E+03</pdfrwt>
<totfact> 0.11866583E+05</totfact>
</mgrwt>
</event>
<event>
12    1  0.1074575E-001  0.2368850E+03  0.7546771E-02  0.1122603E+00
         21   -1    0    0  503  502  0.00000000000E+00  0.00000000000E+00  0.31378566391E+04  0.31378566391E+04  0.00000000000E+00 0.  1.
         21   -1    0    0  501  503 -0.00000000000E+00 -0.00000000000E+00 -0.42249361760E+02  0.42249361760E+02  0.00000000000E+00 0. -1.
          6    2    1    2  501    0  0.11706287432E+03 -0.10351298092E+03  0.32675145736E+03  0.40113550132E+03  0.17240800957E+03 0.  0.
         24    2    3    3    0    0  0.18296016736E+02 -0.69702341484E+02  0.84760916104E+02  0.13754573756E+03  0.80878034016E+02 0.  0.
         -6    2    1    2    0  502 -0.11706287432E+03  0.10351298092E+03  0.27688558200E+04  0.27789704996E+04  0.17803323215E+03 0.  0.
        -24    2    5    5    0    0 -0.15671666198E+02  0.84695323544E+02  0.97107717005E+03  0.97823052791E+03  0.80778688936E+02 0.  0.
          5    1    3    3  501    0  0.98766857586E+02 -0.33810639434E+02  0.24199054126E+03  0.26358976375E+03  0.47000000000E+01 0. -1.
        -11    1    4    4    0    0 -0.20625050695E+02 -0.29589667367E+01  0.47288494892E+02  0.51675428876E+02  0.00000000000E+00 0.  1.
         12    1    4    4    0    0  0.38921067431E+02 -0.66743374748E+02  0.37472421212E+02  0.85870308688E+02  0.00000000000E+00 0. -1.
         -5    1    5    5    0  502 -0.10139120812E+03  0.18817657374E+02  0.17977786499E+04  0.18007399716E+04  0.47000000000E+01 0.  1.
         13    1    6    6    0    0  0.15380786592E+02  0.78159678648E+01  0.41232624498E+02  0.44696613662E+02  0.00000000000E+00 0. -1.
        -14    1    6    6    0    0 -0.31052452790E+02  0.76879355680E+02  0.92984454555E+03  0.93353391425E+03  0.00000000000E+00 0.  1.
<mgrwt>
<rscale>  2 0.23582839E+03</rscale>
<asrwt>0</asrwt>
<pdfrwt beam="1">  1       21 0.48274699E+00 0.23688496E+03</pdfrwt>
<pdfrwt beam="2">  1       21 0.64999043E-02 0.23688496E+03</pdfrwt>
<totfact> 0.40104122E+02</totfact>
</mgrwt>
</event>
<event>
12    1  0.1074575E-001  0.2102238E+03  0.7546771E-02  0.1141457E+00
         21   -1    0    0  503  502  0.00000000000E+00  0.00000000000E+00  0.89550142625E+03  0.89550142625E+03  0.00000000000E+00 0. -1.
         21   -1    0    0  501  503 -0.00000000000E+00 -0.00000000000E+00 -0.49746509142E+02  0.49746509142E+02  0.00000000000E+00 0. -1.
          6    2    1    2  501    0 -0.10997642058E+03 -0.48231535293E+02  0.37630441314E+03  0.43087662962E+03  0.17212949929E+03 0.  0.
         24    2    3    3    0    0  0.62578703121E+01 -0.12270156246E+02  0.20948021315E+03  0.22434325493E+03  0.79108903754E+02 0.  0.
         -6    2    1    2    0  502  0.10997642058E+03  0.48231535293E+02  0.46945050397E+03  0.51437130578E+03  0.17254845825E+03 0.  0.
        -24    2    5    5    0    0  0.63984740392E+02  0.91840759387E+02  0.37692944227E+03  0.40212498766E+03  0.84261077382E+02 0.  0.
          5    1    3    3  501    0 -0.11623429089E+03 -0.35961379048E+02  0.16682419998E+03  0.20653337469E+03  0.47000000000E+01 0. -1.
        -13    1    4    4    0    0 -0.29504610817E+01 -0.36557149915E+02  0.46091890628E+02  0.58903249589E+02  0.00000000000E+00 0.  1.
         14    1    4    4    0    0  0.92083313938E+01  0.24286993669E+02  0.16338832252E+03  0.16544000534E+03  0.00000000000E+00 0. -1.
         -5    1    5    5    0  502  0.45991680185E+02 -0.43609224094E+02  0.92521061702E+02  0.11224631812E+03  0.47000000000E+01 0.  1.
         13    1    6    6    0    0  0.66179322731E+02  0.95738392356E+02  0.37951400879E+03  0.39695897193E+03  0.00000000000E+00 0. -1.
        -14    1    6    6    0    0 -0.21945823383E+01 -0.38976329685E+01 -0.25845665210E+01  0.51660157276E+01  0.00000000000E+00 0.  1.
<mgrwt>
<rscale>  2 0.21013786E+03</rscale>
<asrwt>0</asrwt>
<pdfrwt beam="1">  1       21 0.13776944E+00 0.21022384E+03</pdfrwt>
<pdfrwt beam="2">  1       21 0.76533097E-02 0.21022384E+03</pdfrwt>
<totfact> 0.47874169E+04</totfact>
</mgrwt>
</event>
<event>
12    1  0.1074575E-001  0.3035516E+03  0.7546771E-02  0.1083504E+00
         21   -1    0    0  501  502  0.00000000000E+00  0.00000000000E+00  0.34197855336E+02  0.34197855336E+02  0.00000000000E+00 0. -1.
         21   -1    0    0  502  503 -0.00000000000E+00 -0.00000000000E+00 -0.30517371867E+04  0.30517371867E+04  0.00000000000E+00 0. -1.
         -6    2    1    2    0  503  0.20418314527E+03 -0.14266334129E+03 -0.97897235700E+03  0.10248918892E+04  0.17312689889E+03 0.  0.
        -24    2    3    3    0    0  0.18950933650E+03 -0.73729404890E+02 -0.84955451848E+03  0.87745283344E+03  0.82648540641E+02 0.  0.
          6    2    1    2  501    0 -0.20418314527E+03  0.14266334129E+03 -0.20385669744E+04  0.20610431528E+04  0.17349346650E+03 0.  0.
         24    2    5    5    0    0 -0.12003473938E+03  0.37828268487E+02 -0.14289118772E+04  0.14367253057E+04  0.80939079899E+02 0.  0.
          5    1    5    5  501    0 -0.84148405884E+02  0.10483507281E+03 -0.60965509717E+03  0.62431784710E+03  0.47000000000E+01 0. -1.
        -11    1    6    6    0    0 -0.95249940237E+02 -0.19403791076E+01 -0.72143820698E+03  0.72770145161E+03  0.00000000000E+00 0.  1.
         12    1    6    6    0    0 -0.24784799144E+02  0.39768647595E+02 -0.70747367021E+03  0.70902385407E+03  0.00000000000E+00 0. -1.
         -5    1    3    3    0  503  0.14673808765E+02 -0.68933936403E+02 -0.12941783852E+03  0.14743905581E+03  0.47000000000E+01 0.  1.
         11    1    4    4    0    0  0.15769099569E+03 -0.84663319369E+02 -0.61558313429E+03  0.64107481856E+03  0.00000000000E+00 0. -1.
        -12    1    4    4    0    0  0.31818340812E+02  0.10933914480E+02 -0.23397138419E+03  0.23637801488E+03  0.00000000000E+00 0.  1.
<mgrwt>
<rscale>  2 0.30349924E+03</rscale>
<asrwt>0</asrwt>
<pdfrwt beam="1">  1       21 0.52612087E-02 0.30355159E+03</pdfrwt>
<pdfrwt beam="2">  1       21 0.46949801E+00 0.30355159E+03</pdfrwt>
<totfact> 0.65931822E+02</totfact>
</mgrwt>
</event>
<event>
12    1  0.1074575E-001  0.1861548E+03  0.7546771E-02  0.1162208E+00
         21   -1    0    0  501  502  0.00000000000E+00  0.00000000000E+00  0.88023567734E+02  0.88023567734E+02  0.00000000000E+00 0. -1.
         21   -1    0    0  502  503 -0.00000000000E+00 -0.00000000000E+00 -0.65363125365E+03  0.65363125365E+03  0.00000000000E+00 0. -1.
         -6    2    1    2    0  503 -0.43448998239E+02  0.52309215690E+02 -0.51714967588E+03  0.54929636322E+03  0.17221683393E+03 0.  0.
        -24    2    3    3    0    0  0.11912878789E+02  0.71882926043E+02 -0.20563321545E+03  0.23225904258E+03  0.79687965358E+02 0.  0.
          6    2    1    2  501    0  0.43448998239E+02 -0.52309215690E+02 -0.48458010037E+02  0.19235845816E+03  0.17329030035E+03 0.  0.
         24    2    5    5    0    0  0.83491306233E+02 -0.51536874690E+02  0.51922007642E+01  0.12524349665E+03  0.77666767892E+02 0.  0.
          5    1    5    5  501    0 -0.40042307994E+02 -0.77234100000E+00 -0.53650210801E+02  0.67114961515E+02  0.47000000000E+01 0. -1.
        -11    1    6    6    0    0  0.36928046276E+02 -0.50042177715E+02 -0.27834591794E+02  0.68137101879E+02  0.00000000000E+00 0.  1.
         12    1    6    6    0    0  0.46563259958E+02 -0.14946969751E+01  0.33026792558E+02  0.57106394770E+02  0.00000000000E+00 0. -1.
         -5    1    3    3    0  503 -0.55361877028E+02 -0.19573710353E+02 -0.31151646042E+03  0.31703732064E+03  0.47000000000E+01 0.  1.
         13    1    4    4    0    0 -0.18605184783E+02 -0.43072376972E+01 -0.79589229579E+02  0.81848339399E+02  0.00000000000E+00 0. -1.
        -14    1    4    4    0    0  0.30518063572E+02  0.76190163740E+02 -0.12604398587E+03  0.15041070318E+03  0.00000000000E+00 0.  1.
<mgrwt>
<rscale>  2 0.18590455E+03</rscale>
<asrwt>0</asrwt>
<pdfrwt beam="1">  1       21 0.13542087E-01 0.18615477E+03</pdfrwt>
<pdfrwt beam="2">  1       21 0.10055865E+00 0.18615477E+03</pdfrwt>
<totfact> 0.38388240E+04</totfact>
</mgrwt>
</event>
<event>
12    1  0.1074575E-001  0.2319184E+03  0.7546771E-02  0.1125375E+00
         21   -1    0    0  503  502  0.00000000000E+00  0.00000000000E+00  0.20545931765E+03  0.20545931765E+03  0.00000000000E+00 0. -1.
         21   -1    0    0  501  503 -0.00000000000E+00 -0.00000000000E+00 -0.26194269870E+03  0.26194269870E+03  0.00000000000E+00 0.  1.
          6    2    1    2  501    0  0.98075101584E+02 -0.11960003476E+03 -0.16515034729E+02  0.23250565150E+03  0.17280983115E+03 0.  0.
         24    2    3    3    0    0  0.49782274731E+02 -0.14822757967E+03  0.20190566114E+01  0.17319851876E+03  0.74457773664E+02 0.  0.
         -6    2    1    2    0  502 -0.98075101584E+02  0.11960003476E+03 -0.39968346322E+02  0.23489636485E+03  0.17220899990E+03 0.  0.
        -24    2    5    5    0    0 -0.99499742731E+02  0.21736824228E+02 -0.44287212424E+01  0.13066396811E+03  0.81735981431E+02 0.  0.
          5    1    3    3  501    0  0.48292826853E+02  0.28627544904E+02 -0.18534091340E+02  0.59307132745E+02  0.47000000000E+01 0. -1.
        -11    1    4    4    0    0 -0.67564002285E+01 -0.95394184195E+02 -0.27157091793E+01  0.95671701138E+02  0.00000000000E+00 0.  1.
         12    1    4    4    0    0  0.56538674959E+02 -0.52833395474E+02  0.47347657907E+01  0.77526817622E+02  0.00000000000E+00 0. -1.
         -5    1    5    5    0  502  0.14246411472E+01  0.97863210537E+02 -0.35539625080E+02  0.10423239674E+03  0.47000000000E+01 0.  1.
         11    1    6    6    0    0 -0.88744435348E+02  0.48549889062E+02 -0.83896782571E+01  0.10150395674E+03  0.00000000000E+00 0. -1.
        -12    1    6    6    0    0 -0.10755307383E+02 -0.26813064834E+02  0.39609570147E+01  0.29160011372E+02  0.00000000000E+00 0.  1.
<mgrwt>
<rscale>  2 0.23180645E+03</rscale>
<asrwt>0</asrwt>
<pdfrwt beam="1">  1       21 0.31609126E-01 0.23191837E+03</pdfrwt>
<pdfrwt beam="2">  1       21 0.40298876E-01 0.23191837E+03</pdfrwt>
<totfact> 0.56093920E+04</totfact>
</mgrwt>
</event>
<event>
12    1  0.1074575E-001  0.2034395E+03  0.7546771E-02  0.1146909E+00
         21   -1    0    0  501  502  0.00000000000E+00  0.00000000000E+00  0.99116865323E+02  0.99116865323E+02  0.00000000000E+00 0. -1.
         21   -1    0    0  502  503 -0.00000000000E+00 -0.00000000000E+00 -0.42805275541E+03  0.42805275541E+03  0.00000000000E+00 0. -1.
         -6    2    1    2    0  503  0.68926718226E+02  0.79015532208E+02 -0.20643010703E+03  0.28969267532E+03  0.17410947771E+03 0.  0.
        -24    2    3    3    0    0  0.26439052674E+02  0.11323357800E+03 -0.18096079522E+03  0.22930350223E+03  0.79450739672E+02 0.  0.
          6    2    1    2  501    0 -0.68926718226E+02 -0.79015532208E+02 -0.12250578305E+03  0.23747694541E+03  0.17433670269E+03 0.  0.
         24    2    5    5    0    0 -0.60050496050E+01 -0.65171549969E+02 -0.57453269670E+01  0.10403824663E+03  0.80669426888E+02 0.  0.
          5    1    5    5  501    0 -0.62921668621E+02 -0.13843982239E+02 -0.11676045609E+03  0.13343869878E+03  0.47000000000E+01 0. -1.
        -11    1    6    6    0    0  0.36309422676E+02 -0.34087913664E+02 -0.11811334043E+02  0.51184642667E+02  0.00000000000E+00 0.  1.
         12    1    6    6    0    0 -0.42314472281E+02 -0.31083636305E+02  0.60660070762E+01  0.52853603967E+02  0.00000000000E+00 0. -1.
         -5    1    3    3    0  503  0.42487665552E+02 -0.34218045795E+02 -0.25469311811E+02  0.60389173088E+02  0.47000000000E+01 0.  1.
         11    1    4    4    0    0 -0.16036911638E+02  0.46408170484E+02 -0.11909131929E+03  0.12881631555E+03  0.00000000000E+00 0. -1.
        -12    1    4    4    0    0  0.42475964312E+02  0.66825407520E+02 -0.61869475932E+02  0.10048718668E+03  0.00000000000E+00 0.  1.
<mgrwt>
<rscale>  2 0.20339082E+03</rscale>
<asrwt>0</asrwt>
<pdfrwt beam="1">  1       21 0.15248748E-01 0.20343951E+03</pdfrwt>
<pdfrwt beam="2">  1       21 0.65854271E-01 0.20343951E+03</pdfrwt>
<totfact> 0.80266970E+04</totfact>
</mgrwt>
</event>
<event>
12    1  0.1074575E-001  0.1946352E+03  0.7546771E-02  0.1154714E+00
         21   -1    0    0  503  502  0.00000000000E+00  0.00000000000E+00  0.14540007585E+03  0.14540007585E+03  0.00000000000E+00 0. -1.
         21   -1    0    0  501  503 -0.00000000000E+00 -0.00000000000E+00 -0.39310490440E+03  0.39310490440E+03  0.00000000000E+00 0. -1.
          6    2    1    2  501    0 -0.69517242743E+02  0.54652148262E+02 -0.28117028654E+03  0.34101374478E+03  0.17150550939E+03 0.  0.
         24    2    3    3    0    0  0.98085098547E+01  0.45724145893E+02 -0.22442931349E+03  0.24296318500E+03  0.80471660407E+02 0.  0.
         -6    2    1    2    0  502  0.69517242743E+02 -0.54652148262E+02  0.33465457980E+02  0.19749123547E+03  0.17338785097E+03 0.  0.
        -24    2    5    5    0    0  0.56546400493E+02 -0.88913468434E+02  0.66036416091E+02  0.14824655941E+03  0.80703989047E+02 0.  0.
          5    1    3    3  501    0 -0.79325752598E+02  0.89280023685E+01 -0.56740973047E+02  0.98050559784E+02  0.47000000000E+01 0. -1.
        -13    1    4    4    0    0 -0.28724859019E+02 -0.37101423185E+01 -0.52409765959E+02  0.59880432944E+02  0.00000000000E+00 0.  1.
         14    1    4    4    0    0  0.38533368873E+02  0.49434288212E+02 -0.17201954753E+03  0.18308275205E+03  0.00000000000E+00 0. -1.
         -5    1    5    5    0  502  0.12970842251E+02  0.34261320172E+02 -0.32570958111E+02  0.49244676066E+02  0.47000000000E+01 0.  1.
         11    1    6    6    0    0  0.15044890184E+02 -0.28889257804E+02  0.67835131514E+02  0.75249870462E+02  0.00000000000E+00 0. -1.
        -12    1    6    6    0    0  0.41501510309E+02 -0.60024210630E+02 -0.17987154223E+01  0.72996688944E+02  0.00000000000E+00 0.  1.
<mgrwt>
<rscale>  2 0.19421508E+03</rscale>
<asrwt>0</asrwt>
<pdfrwt beam="1">  1       21 0.22369243E-01 0.19463517E+03</pdfrwt>
<pdfrwt beam="2">  1       21 0.60477677E-01 0.19463517E+03</pdfrwt>
<totfact> 0.47608729E+04</totfact>
</mgrwt>
</event>
<event>
12    1  0.1074575E-001  0.1759648E+03  0.7546771E-02  0.1171900E+00
         21   -1    0    0  501  502  0.00000000000E+00  0.00000000000E+00  0.48289702348E+03  0.48289702348E+03  0.00000000000E+00 0. -1.
         21   -1    0    0  502  503 -0.00000000000E+00 -0.00000000000E+00 -0.64380813923E+02  0.64380813923E+02  0.00000000000E+00 0. -1.
         -6    2    1    2    0  503 -0.72389886061E+01  0.34066480479E+02  0.18595423856E+03  0.25564677323E+03  0.17194000632E+03 0.  0.
        -24    2    3    3    0    0 -0.49664261951E+02  0.69197110493E+02  0.14715392677E+03  0.18810701324E+03  0.80468573069E+02 0.  0.
          6    2    1    2  501    0  0.72389886061E+01 -0.34066480479E+02  0.23256197100E+03  0.29163106418E+03  0.17248385197E+03 0.  0.
         24    2    5    5    0    0  0.16567156999E+02  0.22202151130E+02  0.50377737967E+02  0.10066939684E+03  0.82637792631E+02 0.  0.
          5    1    5    5  501    0 -0.93281683925E+01 -0.56268631609E+02  0.18218423303E+03  0.19096166734E+03  0.47000000000E+01 0. -1.
        -11    1    6    6    0    0  0.25515405133E+02 -0.11740425686E+02 -0.10836498755E+02  0.30104870032E+02  0.00000000000E+00 0.  1.
         12    1    6    6    0    0 -0.89482481346E+01  0.33942576816E+02  0.61214236722E+02  0.70564526804E+02  0.00000000000E+00 0. -1.
         -5    1    3    3    0  503  0.42425273345E+02 -0.35130630015E+02  0.38800311793E+02  0.67539759985E+02  0.47000000000E+01 0.  1.
         13    1    4    4    0    0 -0.18633262004E+02  0.75226044696E+02  0.13195819512E+03  0.15303307326E+03  0.00000000000E+00 0. -1.
        -14    1    4    4    0    0 -0.31030999947E+02 -0.60289342022E+01  0.15195731652E+02  0.35073939981E+02  0.00000000000E+00 0.  1.
<mgrwt>
<rscale>  2 0.17583137E+03</rscale>
<asrwt>0</asrwt>
<pdfrwt beam="1">  1       21 0.74291847E-01 0.17596479E+03</pdfrwt>
<pdfrwt beam="2">  1       21 0.99047409E-02 0.17596479E+03</pdfrwt>
<totfact> 0.13481595E+05</totfact>
</mgrwt>
</event>
<event>
12    1  0.1074575E-001  0.1852050E+03  0.7546771E-02  0.1163313E+00
         21   -1    0    0  503  502  0.00000000000E+00  0.00000000000E+00  0.58678156619E+03  0.58678156619E+03  0.00000000000E+00 0. -1.
         21   -1    0    0  501  503 -0.00000000000E+00 -0.00000000000E+00 -0.10740362473E+03  0.10740362473E+03  0.00000000000E+00 0. -1.
          6    2    1    2  501    0  0.55572417851E+02 -0.35268213554E+02  0.32384384164E+01  0.18329410276E+03  0.17103830012E+03 0.  0.
         24    2    3    3    0    0 -0.25089267429E+02 -0.53812772888E+02  0.24899489922E+01  0.10039139840E+03  0.80913207579E+02 0.  0.
         -6    2    1    2    0  502 -0.55572417851E+02  0.35268213554E+02  0.47613950305E+03  0.51089108816E+03  0.17311480898E+03 0.  0.
        -24    2    5    5    0    0 -0.36566924192E+02 -0.46355732451E+02  0.29205347441E+03  0.30857096240E+03  0.80217286430E+02 0.  0.
          5    1    3    3  501    0  0.80661685280E+02  0.18544559334E+02  0.74848942423E+00  0.82902704356E+02  0.47000000000E+01 0. -1.
        -13    1    4    4    0    0  0.41779366549E+01 -0.41925324909E+02 -0.32529678740E+02  0.53229390588E+02  0.00000000000E+00 0.  1.
         14    1    4    4    0    0 -0.29267204084E+02 -0.11887447979E+02  0.35019627732E+02  0.47162007812E+02  0.00000000000E+00 0. -1.
         -5    1    5    5    0  502 -0.19005493659E+02  0.81623946005E+02  0.18408602863E+03  0.20232012576E+03  0.47000000000E+01 0.  1.
         13    1    6    6    0    0 -0.15498361457E+02 -0.18156510434E+02  0.25959259295E+03  0.26068788309E+03  0.00000000000E+00 0. -1.
        -14    1    6    6    0    0 -0.21068562734E+02 -0.28199222018E+02  0.32460881467E+02  0.47883079305E+02  0.00000000000E+00 0.  1.
<mgrwt>
<rscale>  2 0.18471818E+03</rscale>
<asrwt>0</asrwt>
<pdfrwt beam="1">  1       21 0.90274086E-01 0.18520496E+03</pdfrwt>
<pdfrwt beam="2">  1       21 0.16523635E-01 0.18520496E+03</pdfrwt>
<totfact> 0.34427240E+04</totfact>
</mgrwt>
</event>
<event>
12    1  0.1074575E-001  0.3260395E+03  0.7546771E-02  0.1072964E+00
         21   -1    0    0  503  502  0.00000000000E+00  0.00000000000E+00  0.30271918638E+03  0.30271918638E+03  0.00000000000E+00 0.  1.
         21   -1    0    0  501  503 -0.00000000000E+00 -0.00000000000E+00 -0.40736191504E+03  0.40736191504E+03  0.00000000000E+00 0. -1.
          6    2    1    2  501    0 -0.16251020146E+03 -0.22275683733E+03  0.80202867521E+02  0.33575920134E+03  0.17398726151E+03 0.  0.
         24    2    3    3    0    0 -0.13299497626E+03 -0.21388114834E+03  0.16575497881E+02  0.26490400716E+03  0.80415026931E+02 0.  0.
         -6    2    1    2    0  502  0.16251020146E+03  0.22275683733E+03 -0.18484559618E+03  0.37432190008E+03  0.17297056484E+03 0.  0.
        -24    2    5    5    0    0  0.39414668888E+02  0.10679431535E+03 -0.14361709508E+03  0.20019063940E+03  0.80572204821E+02 0.  0.
          5    1    3    3  501    0 -0.29515225208E+02 -0.88756889861E+01  0.63627369640E+02  0.70855194173E+02  0.47000000000E+01 0. -1.
        -13    1    4    4    0    0 -0.11470737182E+03 -0.11441236294E+03 -0.22653786648E+01  0.16202808980E+03  0.00000000000E+00 0.  1.
         14    1    4    4    0    0 -0.18287604439E+02 -0.99468785398E+02  0.18840876546E+02  0.10287591736E+03  0.00000000000E+00 0. -1.
         -5    1    5    5    0  502  0.12309553258E+03  0.11596252198E+03 -0.41228501092E+02  0.17413126068E+03  0.47000000000E+01 0.  1.
         11    1    6    6    0    0  0.53448069532E+02  0.96529860936E+02 -0.14560612264E+03  0.18269059401E+03  0.00000000000E+00 0. -1.
        -12    1    6    6    0    0 -0.14033400644E+02  0.10264454410E+02  0.19890275602E+01  0.17500045389E+02  0.00000000000E+00 0.  1.
<mgrwt>
<rscale>  2 0.32590404E+03</rscale>
<asrwt>0</asrwt>
<pdfrwt beam="1">  1       21 0.46572183E-01 0.32603948E+03</pdfrwt>
<pdfrwt beam="2">  1       21 0.62671064E-01 0.32603948E+03</pdfrwt>
<totfact> 0.96929663E+03</totfact>
</mgrwt>
</event>
<event>
12    1  0.1074575E-001  0.1815607E+03  0.7546771E-02  0.1166949E+00
         21   -1    0    0  503  502  0.00000000000E+00  0.00000000000E+00  0.20932571044E+03  0.20932571044E+03  0.00000000000E+00 0. -1.
         21   -1    0    0  501  503 -0.00000000000E+00 -0.00000000000E+00 -0.15776745983E+03  0.15776745983E+03  0.00000000000E+00 0. -1.
          6    2    1    2  501    0 -0.36070191344E+02  0.29854229217E+02  0.19799110833E+01  0.17888506560E+03  0.17263722930E+03 0.  0.
         24    2    3    3    0    0 -0.70592383495E+02 -0.92914787878E+01 -0.37282115191E+02  0.11340403847E+03  0.80005647573E+02 0.  0.
         -6    2    1    2    0  502  0.36070191344E+02 -0.29854229217E+02  0.49578339528E+02  0.18820810467E+03  0.17541934103E+03 0.  0.
        -24    2    5    5    0    0  0.90643854893E+02 -0.51142888877E+01  0.32171134068E+02  0.12563454633E+03  0.80663455074E+02 0.  0.
          5    1    3    3  501    0  0.34522192151E+02  0.39145708005E+02  0.39262026274E+02  0.65481027124E+02  0.47000000000E+01 0. -1.
        -11    1    4    4    0    0 -0.39959646709E+01  0.88783449889E+01  0.20943867438E+02  0.23096283827E+02  0.00000000000E+00 0.  1.
         12    1    4    4    0    0 -0.66596418824E+02 -0.18169823777E+02 -0.58225982628E+02  0.90307754647E+02  0.00000000000E+00 0. -1.
         -5    1    5    5    0  502 -0.54573663549E+02 -0.24739940329E+02  0.17407205460E+02  0.62573558334E+02  0.47000000000E+01 0.  1.
         13    1    6    6    0    0  0.39188788069E+02 -0.18687719119E+02  0.52978465987E+02  0.68496056927E+02  0.00000000000E+00 0. -1.
        -14    1    6    6    0    0  0.51455066824E+02  0.13573430231E+02 -0.20807331919E+02  0.57138489407E+02  0.00000000000E+00 0.  1.
<mgrwt>
<rscale>  2 0.18088527E+03</rscale>
<asrwt>0</asrwt>
<pdfrwt beam="1">  1       21 0.32203956E-01 0.18156068E+03</pdfrwt>
<pdfrwt beam="2">  1       21 0.24271917E-01 0.18156068E+03</pdfrwt>
<totfact> 0.14917095E+05</totfact>
</mgrwt>
</event>
<event>
12    1  0.1074575E-001  0.2044853E+03  0.7546771E-02  0.1146496E+00
         21   -1    0    0  501  502  0.00000000000E+00  0.00000000000E+00  0.41069577533E+03  0.41069577533E+03  0.00000000000E+00 0.  1.
         21   -1    0    0  502  503 -0.00000000000E+00 -0.00000000000E+00 -0.20177589495E+03  0.20177589495E+03  0.00000000000E+00 0.  1.
         -6    2    1    2    0  503  0.10225313928E+03  0.39332056464E+02 -0.11204139990E+03  0.23316844403E+03  0.17266016576E+03 0.  0.
        -24    2    3    3    0    0  0.11853553507E+03  0.41275489609E+02 -0.13684256504E+03  0.20306726237E+03  0.82195415466E+02 0.  0.
          6    2    1    2  501    0 -0.10225313928E+03 -0.39332056464E+02  0.32096128028E+03  0.37930322626E+03  0.16985899697E+03 0.  0.
         24    2    5    5    0    0 -0.77567544161E+02  0.39774685160E+02  0.19182710168E+03  0.22579432990E+03  0.81158443753E+02 0.  0.
          5    1    5    5  501    0 -0.24685595124E+02 -0.79106741623E+02  0.12913417860E+03  0.15350889635E+03  0.47000000000E+01 0. -1.
        -11    1    6    6    0    0 -0.38115028892E+02 -0.22883442744E+02  0.83185386640E+02  0.94319753656E+02  0.00000000000E+00 0.  1.
         12    1    6    6    0    0 -0.39452515269E+02  0.62658127904E+02  0.10864171504E+03  0.13147457625E+03  0.00000000000E+00 0. -1.
         -5    1    3    3    0  503 -0.16282395786E+02 -0.19434331455E+01  0.24801165141E+02  0.30101181659E+02  0.47000000000E+01 0.  1.
         11    1    4    4    0    0 -0.86172501320E+01 -0.12148013446E+01 -0.31172777104E+02  0.32364714961E+02  0.00000000000E+00 0. -1.
        -12    1    4    4    0    0  0.12715278520E+03  0.42490290954E+02 -0.10566978793E+03  0.17070254741E+03  0.00000000000E+00 0.  1.
<mgrwt>
<rscale>  2 0.20389285E+03</rscale>
<asrwt>0</asrwt>
<pdfrwt beam="1">  1       21 0.63183966E-01 0.20448532E+03</pdfrwt>
<pdfrwt beam="2">  1       21 0.31042445E-01 0.20448532E+03</pdfrwt>
<totfact> 0.22945580E+04</totfact>
</mgrwt>
</event>
<event>
12    1  0.1074575E-001  0.3884257E+03  0.7546771E-02  0.1048082E+00
         21   -1    0    0  503  502  0.00000000000E+00  0.00000000000E+00  0.27440578415E+04  0.27440578415E+04  0.00000000000E+00 0.  1.
         21   -1    0    0  501  503 -0.00000000000E+00 -0.00000000000E+00 -0.69365651650E+02  0.69365651650E+02  0.00000000000E+00 0.  1.
          6    2    1    2  501    0  0.34320102210E+03  0.25418714351E+02  0.69248954626E+03  0.79398758999E+03  0.18011515417E+03 0.  0.
         24    2    3    3    0    0  0.27939492568E+03 -0.15990881966E+02  0.63446973762E+03  0.69820470633E+03  0.81367875609E+02 0.  0.
         -6    2    1    2    0  502 -0.34320102210E+03 -0.25418714351E+02  0.19822026436E+04  0.20194359032E+04  0.17481703045E+03 0.  0.
        -24    2    5    5    0    0 -0.14408803781E+03  0.24814798117E+02  0.63187515155E+03  0.65357507130E+03  0.80728122878E+02 0.  0.
          5    1    3    3  501    0  0.63806096415E+02  0.41409596317E+02  0.58019808643E+02  0.95782883658E+02  0.47000000000E+01 0. -1.
        -13    1    4    4    0    0  0.27327505600E+03  0.93919467546E+00  0.58932713499E+03  0.64960496485E+03  0.00000000000E+00 0.  1.
         14    1    4    4    0    0  0.61198696869E+01 -0.16930076642E+02  0.45142602628E+02  0.48599741481E+02  0.00000000000E+00 0. -1.
         -5    1    5    5    0  502 -0.19911298429E+03 -0.50233512468E+02  0.13503274921E+04  0.13658608319E+04  0.47000000000E+01 0.  1.
         11    1    6    6    0    0 -0.30190848237E+02 -0.27817769061E+02  0.13507547390E+03  0.14117612844E+03  0.00000000000E+00 0. -1.
        -12    1    6    6    0    0 -0.11389718957E+03  0.52632567179E+02  0.49679967765E+03  0.51239894285E+03  0.00000000000E+00 0.  1.
<mgrwt>
<rscale>  2 0.38781721E+03</rscale>
<asrwt>0</asrwt>
<pdfrwt beam="1">  1       21 0.42216266E+00 0.38842570E+03</pdfrwt>
<pdfrwt beam="2">  1       21 0.10671641E-01 0.38842570E+03</pdfrwt>
<totfact> 0.36658318E+02</totfact>
</mgrwt>
</event>
<event>
12    1  0.1074575E-001  0.2175543E+03  0.7546771E-02  0.1138076E+00
         21   -1    0    0  501  502  0.00000000000E+00  0.00000000000E+00  0.55788524599E+03  0.55788524599E+03  0.00000000000E+00 0. -1.
         21   -1    0    0  502  503 -0.00000000000E+00 -0.00000000000E+00 -0.12188014039E+03  0.12188014039E+03  0.00000000000E+00 0. -1.
         -6    2    1    2    0  503 -0.89640510057E+02  0.94973575384E+02  0.15174862294E+02  0.20602710784E+03  0.15862374240E+03 0.  0.
        -24    2    3    3    0    0 -0.69340124850E+02  0.96018294518E+02 -0.38753868313E+02  0.14820328003E+03  0.80217106065E+02 0.  0.
          6    2    1    2  501    0  0.89640510057E+02 -0.94973575384E+02  0.42083024331E+03  0.47373827855E+03  0.17399557987E+03 0.  0.
         24    2    5    5    0    0  0.20965931118E+02 -0.71158059507E+01  0.76324237887E+02  0.11160340973E+03  0.78356408881E+02 0.  0.
          5    1    5    5  501    0  0.68674578938E+02 -0.87857769433E+02  0.34450600542E+03  0.36213486882E+03  0.47000000000E+01 0. -1.
        -13    1    6    6    0    0  0.50334301095E+02  0.28809783376E+00  0.39893486658E+02  0.64227059288E+02  0.00000000000E+00 0.  1.
         14    1    6    6    0    0 -0.29368369976E+02 -0.74039037845E+01  0.36430751229E+02  0.47376350444E+02  0.00000000000E+00 0. -1.
         -5    1    3    3    0  503 -0.20300385207E+02 -0.10447191339E+01  0.53928730607E+02  0.57823827809E+02  0.47000000000E+01 0.  1.
         13    1    4    4    0    0 -0.59843063909E+02  0.10717271975E+03 -0.19938524967E+02  0.12435726330E+03  0.00000000000E+00 0. -1.
        -14    1    4    4    0    0 -0.94970609408E+01 -0.11154425231E+02 -0.18815343346E+02  0.23846016732E+02  0.00000000000E+00 0.  1.
<mgrwt>
<rscale>  2 0.21446751E+03</rscale>
<asrwt>0</asrwt>
<pdfrwt beam="1">  1       21 0.85828498E-01 0.21755428E+03</pdfrwt>
<pdfrwt beam="2">  1       21 0.18750791E-01 0.21755428E+03</pdfrwt>
<totfact> 0.30090073E+04</totfact>
</mgrwt>
</event>
<event>
12    1  0.1074575E-001  0.2817952E+03  0.7546771E-02  0.1094950E+00
         21   -1    0    0  501  502  0.00000000000E+00  0.00000000000E+00  0.55586767618E+03  0.55586767618E+03  0.00000000000E+00 0. -1.
         21   -1    0    0  502  503 -0.00000000000E+00 -0.00000000000E+00 -0.92322689970E+03  0.92322689970E+03  0.00000000000E+00 0. -1.
         -6    2    1    2    0  503 -0.64810520080E+02 -0.21335082643E+03 -0.86390447792E+03  0.90816049044E+03  0.16942712528E+03 0.  0.
        -24    2    3    3    0    0 -0.95245675865E+01 -0.98455023407E+02 -0.61959923512E+03  0.63254350302E+03  0.80149622782E+02 0.  0.
          6    2    1    2  501    0  0.64810520080E+02  0.21335082643E+03  0.49654525440E+03  0.57093408544E+03  0.17230659187E+03 0.  0.
         24    2    5    5    0    0  0.98499009040E+02  0.13560689976E+03  0.40695051014E+03  0.44753092252E+03  0.81141375743E+02 0.  0.
          5    1    5    5  501    0 -0.33688488960E+02  0.77743926666E+02  0.89594744257E+02  0.12340316293E+03  0.47000000000E+01 0. -1.
        -11    1    6    6    0    0 -0.38503999283E+01 -0.51577657684E+01  0.49989428199E+02  0.50402093796E+02  0.00000000000E+00 0.  1.
         12    1    6    6    0    0  0.10234940897E+03  0.14076466553E+03  0.35696108194E+03  0.39712882872E+03  0.00000000000E+00 0. -1.
         -5    1    3    3    0  503 -0.55285952494E+02 -0.11489580302E+03 -0.24430524280E+03  0.27561698742E+03  0.47000000000E+01 0.  1.
         11    1    4    4    0    0  0.72826427813E+01 -0.10074959799E+03 -0.41004063908E+03  0.42229947203E+03  0.00000000000E+00 0. -1.
        -12    1    4    4    0    0 -0.16807210368E+02  0.22945745825E+01 -0.20955859604E+03  0.21024403099E+03  0.00000000000E+00 0.  1.
<mgrwt>
<rscale>  2 0.28135633E+03</rscale>
<asrwt>0</asrwt>
<pdfrwt beam="1">  1       21 0.85518104E-01 0.28179521E+03</pdfrwt>
<pdfrwt beam="2">  1       21 0.14203491E+00 0.28179521E+03</pdfrwt>
<totfact> 0.37348044E+02</totfact>
</mgrwt>
</event>
<event>
12    1  0.1074575E-001  0.2506978E+03  0.7546771E-02  0.1113075E+00
         21   -1    0    0  501  502  0.00000000000E+00  0.00000000000E+00  0.66992918935E+02  0.66992918935E+02  0.00000000000E+00 0.  1.
         21   -1    0    0  502  503 -0.00000000000E+00 -0.00000000000E+00 -0.10034853818E+04  0.10034853818E+04  0.00000000000E+00 0. -1.
         -6    2    1    2    0  503 -0.72551618482E+02 -0.16662518255E+03 -0.32772386508E+03  0.41261644392E+03  0.17268963271E+03 0.  0.
        -24    2    3    3    0    0  0.19313713874E+02 -0.10331463716E+03 -0.13344000325E+03  0.18852768156E+03  0.81789476418E+02 0.  0.
          6    2    1    2  501    0  0.72551618482E+02  0.16662518255E+03 -0.60876859780E+03  0.65786185683E+03  0.17074931391E+03 0.  0.
         24    2    5    5    0    0  0.50023919733E+02  0.37531894096E+02 -0.38734967881E+03  0.40052744012E+03  0.80445142786E+02 0.  0.
          5    1    5    5  501    0  0.22527698749E+02  0.12909328845E+03 -0.22141891899E+03  0.25733441670E+03  0.47000000000E+01 0. -1.
        -13    1    6    6    0    0  0.17739517688E+02  0.49187286878E+02 -0.11886336103E+03  0.12985599052E+03  0.00000000000E+00 0.  1.
         14    1    6    6    0    0  0.32284402044E+02 -0.11655392782E+02 -0.26848631778E+03  0.27067144960E+03  0.00000000000E+00 0. -1.
         -5    1    3    3    0  503 -0.91865332356E+02 -0.63310545389E+02 -0.19428386183E+03  0.22408876236E+03  0.47000000000E+01 0.  1.
         11    1    4    4    0    0 -0.16945699211E+02  0.12637239359E+00 -0.43683985623E+02  0.46855771167E+02  0.00000000000E+00 0. -1.
        -12    1    4    4    0    0  0.36259413085E+02 -0.10344100955E+03 -0.89756017624E+02  0.14167191039E+03  0.00000000000E+00 0.  1.
<mgrwt>
<rscale>  2 0.25036401E+03</rscale>
<asrwt>0</asrwt>
<pdfrwt beam="1">  1       21 0.10306603E-01 0.25069782E+03</pdfrwt>
<pdfrwt beam="2">  1       21 0.15438237E+00 0.25069782E+03</pdfrwt>
<totfact> 0.20563290E+04</totfact>
</mgrwt>
</event>
<event>
12    1  0.1074575E-001  0.1981016E+03  0.7546771E-02  0.1154260E+00
         21   -1    0    0  501  502  0.00000000000E+00  0.00000000000E+00  0.21767954030E+02  0.21767954030E+02  0.00000000000E+00 0.  1.
         21   -1    0    0  502  503 -0.00000000000E+00 -0.00000000000E+00 -0.17620062797E+04  0.17620062797E+04  0.00000000000E+00 0.  1.
         -6    2    1    2    0  503  0.10306301540E+03  0.10161441588E+02 -0.10275595532E+04  0.10440747705E+04  0.15325877175E+03 0.  0.
        -24    2    3    3    0    0  0.35554459111E+02 -0.28250244977E+02 -0.75252403956E+03  0.75824355009E+03  0.81108909658E+02 0.  0.
          6    2    1    2  501    0 -0.10306301540E+03 -0.10161441588E+02 -0.71267877254E+03  0.73969946323E+03  0.16887576215E+03 0.  0.
         24    2    5    5    0    0 -0.88682290817E+02  0.30880653448E+01 -0.25694336724E+03  0.28352054624E+03  0.80560047887E+02 0.  0.
          5    1    5    5  501    0 -0.14380724586E+02 -0.13249506933E+02 -0.45573540530E+03  0.45617891700E+03  0.47000000000E+01 0. -1.
        -11    1    6    6    0    0 -0.54475545938E+02 -0.23234964691E+02 -0.70157055373E+02  0.91812096742E+02  0.00000000000E+00 0.  1.
         12    1    6    6    0    0 -0.34206744879E+02  0.26323030036E+02 -0.18678631187E+03  0.19170844950E+03  0.00000000000E+00 0. -1.
         -5    1    3    3    0  503  0.67508556291E+02  0.38411686564E+02 -0.27503551361E+03  0.28583122045E+03  0.47000000000E+01 0.  1.
         11    1    4    4    0    0 -0.90987405646E+00  0.26039358233E+02 -0.15808294097E+03  0.16021576787E+03  0.00000000000E+00 0. -1.
        -12    1    4    4    0    0  0.36464333168E+02 -0.54289603209E+02 -0.59444109859E+03  0.59802778222E+03  0.00000000000E+00 0.  1.
<mgrwt>
<rscale>  2 0.19473353E+03</rscale>
<asrwt>0</asrwt>
<pdfrwt beam="1">  1       21 0.33489172E-02 0.19810165E+03</pdfrwt>
<pdfrwt beam="2">  1       21 0.27107779E+00 0.19810165E+03</pdfrwt>
<totfact> 0.26287844E+04</totfact>
</mgrwt>
</event>
<event>
12    1  0.1074575E-001  0.2366493E+03  0.7546771E-02  0.1122296E+00
         21   -1    0    0  503  502  0.00000000000E+00  0.00000000000E+00  0.31641219193E+02  0.31641219193E+02  0.00000000000E+00 0. -1.
         21   -1    0    0  501  503 -0.00000000000E+00 -0.00000000000E+00 -0.17824903993E+04  0.17824903993E+04  0.00000000000E+00 0.  1.
          6    2    1    2  501    0  0.15970916765E+03 -0.15202494033E+01 -0.98235085701E+03  0.10104534207E+04  0.17462410994E+03 0.  0.
         24    2    3    3    0    0  0.16729087819E+03 -0.27172720874E+02 -0.63507656746E+03  0.66211873423E+03  0.79714346204E+02 0.  0.
         -6    2    1    2    0  502 -0.15970916765E+03  0.15202494033E+01 -0.76849832308E+03  0.80367819776E+03  0.17262573270E+03 0.  0.
        -24    2    5    5    0    0 -0.10355510522E+03 -0.62972756113E+02 -0.55391143932E+03  0.57263221279E+03  0.80003379242E+02 0.  0.
          5    1    3    3  501    0 -0.75817105398E+01  0.25652471470E+02 -0.34727428955E+03  0.34833468649E+03  0.47000000000E+01 0. -1.
        -11    1    4    4    0    0  0.15304882244E+02  0.10854608461E+02 -0.17697810753E+03  0.17796997637E+03  0.00000000000E+00 0.  1.
         12    1    4    4    0    0  0.15198599595E+03 -0.38027329335E+02 -0.45809845994E+03  0.48414875786E+03  0.00000000000E+00 0. -1.
         -5    1    5    5    0  502 -0.56154062437E+02  0.64493005516E+02 -0.21458688376E+03  0.23104598497E+03  0.47000000000E+01 0.  1.
         11    1    6    6    0    0 -0.56883921223E+02 -0.25507743667E+02 -0.12624597148E+03  0.14079939913E+03  0.00000000000E+00 0. -1.
        -12    1    6    6    0    0 -0.46671183994E+02 -0.37465012446E+02 -0.42766546784E+03  0.43183281366E+03  0.00000000000E+00 0.  1.
<mgrwt>
<rscale>  2 0.23628079E+03</rscale>
<asrwt>0</asrwt>
<pdfrwt beam="1">  1       21 0.48678801E-02 0.23664934E+03</pdfrwt>
<pdfrwt beam="2">  1       21 0.27422928E+00 0.23664934E+03</pdfrwt>
<totfact> 0.12996530E+04</totfact>
</mgrwt>
</event>
<event>
12    1  0.1074575E-001  0.1863756E+03  0.7546771E-02  0.1162764E+00
         21   -1    0    0  501  502  0.00000000000E+00  0.00000000000E+00  0.23232703078E+03  0.23232703078E+03  0.00000000000E+00 0.  1.
         21   -1    0    0  502  503 -0.00000000000E+00 -0.00000000000E+00 -0.14627884137E+03  0.14627884137E+03  0.00000000000E+00 0. -1.
         -6    2    1    2    0  503 -0.20591704775E+02  0.65399370049E+02  0.49563860442E+02  0.19285345225E+03  0.17330545829E+03 0.  0.
        -24    2    3    3    0    0  0.34950160953E+01  0.93159063051E+02  0.88381710682E+02  0.13919074476E+03  0.53590208786E+02 0.  0.
          6    2    1    2  501    0  0.20591704775E+02 -0.65399370049E+02  0.36484328971E+02  0.18575241990E+03  0.16873576779E+03 0.  0.
         24    2    5    5    0    0 -0.42179082007E+02 -0.18977309778E+02 -0.12070965465E+02  0.93693276027E+02  0.80582308977E+02 0.  0.
          5    1    5    5  501    0  0.62770786782E+02 -0.46422060271E+02  0.48555294436E+02  0.92059143874E+02  0.47000000000E+01 0. -1.
        -13    1    6    6    0    0 -0.90922608044E+01 -0.22244435812E+02  0.31037352785E+02  0.39253043182E+02  0.00000000000E+00 0.  1.
         14    1    6    6    0    0 -0.33086821203E+02  0.32671260348E+01 -0.43108318250E+02  0.54440232845E+02  0.00000000000E+00 0. -1.
         -5    1    3    3    0  503 -0.24086720870E+02 -0.27759693002E+02 -0.38817850240E+02  0.53662707489E+02  0.47000000000E+01 0.  1.
         13    1    4    4    0    0  0.24762176365E+01 -0.37836457762E+01 -0.34241280501E+01  0.56720615341E+01  0.00000000000E+00 0. -1.
        -14    1    4    4    0    0  0.10187984588E+01  0.96942708827E+02  0.91805838732E+02  0.13351868323E+03  0.00000000000E+00 0.  1.
<mgrwt>
<rscale>  2 0.18530610E+03</rscale>
<asrwt>0</asrwt>
<pdfrwt beam="1">  1       21 0.35742620E-01 0.18637564E+03</pdfrwt>
<pdfrwt beam="2">  1       21 0.22504437E-01 0.18637564E+03</pdfrwt>
<totfact> 0.13988409E+05</totfact>
</mgrwt>
</event>
<event>
12    1  0.1074575E-001  0.1904596E+03  0.7546771E-02  0.1158089E+00
         21   -1    0    0  503  502  0.00000000000E+00  0.00000000000E+00  0.85583681475E+02  0.85583681475E+02  0.00000000000E+00 0. -1.
         21   -1    0    0  501  503 -0.00000000000E+00 -0.00000000000E+00 -0.66113684251E+03  0.66113684251E+03  0.00000000000E+00 0. -1.
          6    2    1    2  501    0  0.73104473929E+02  0.31667207758E+02 -0.51155579101E+03  0.54579634266E+03  0.17279248882E+03 0.  0.
         24    2    3    3    0    0  0.84174640733E+02  0.45732941114E+02 -0.51284408457E+03  0.52724524705E+03  0.76168388517E+02 0.  0.
         -6    2    1    2    0  502 -0.73104473929E+02 -0.31667207758E+02 -0.63997370030E+02  0.20092418133E+03  0.17299649452E+03 0.  0.
        -24    2    5    5    0    0 -0.34435439181E+01  0.56613085494E+02 -0.39473563379E+02  0.85730594531E+02  0.50741237558E+02 0.  0.
          5    1    3    3  501    0 -0.11070166805E+02 -0.14065733357E+02  0.12882935671E+01  0.18551095608E+02  0.47000000000E+01 0. -1.
        -11    1    4    4    0    0  0.43953969027E+02  0.48522600598E+02 -0.17224251151E+03  0.18426577798E+03  0.00000000000E+00 0.  1.
         12    1    4    4    0    0  0.40220671707E+02 -0.27896594843E+01 -0.34060157306E+03  0.34297946907E+03  0.00000000000E+00 0. -1.
         -5    1    5    5    0  502 -0.69660930011E+02 -0.88280293252E+02 -0.24523806652E+02  0.11519358680E+03  0.47000000000E+01 0.  1.
         13    1    6    6    0    0 -0.17042596554E+02  0.38614169839E+01 -0.22866564629E+02  0.28779166360E+02  0.00000000000E+00 0. -1.
        -14    1    6    6    0    0  0.13599052636E+02  0.52751668510E+02 -0.16606998750E+02  0.56951428171E+02  0.00000000000E+00 0.  1.
<mgrwt>
<rscale>  2 0.19041327E+03</rscale>
<asrwt>0</asrwt>
<pdfrwt beam="1">  1       21 0.13166720E-01 0.19045961E+03</pdfrwt>
<pdfrwt beam="2">  1       21 0.10171336E+00 0.19045961E+03</pdfrwt>
<totfact> 0.39212393E+04</totfact>
</mgrwt>
</event>
<event>
12    1  0.1074575E-001  0.2108827E+03  0.7546771E-02  0.1140914E+00
         21   -1    0    0  503  502  0.00000000000E+00  0.00000000000E+00  0.11275997970E+03  0.11275997970E+03  0.00000000000E+00 0.  1.
         21   -1    0    0  501  503 -0.00000000000E+00 -0.00000000000E+00 -0.20686011563E+04  0.20686011563E+04  0.00000000000E+00 0.  1.
          6    2    1    2  501    0 -0.83480380857E+02  0.86531219885E+02 -0.19591596803E+04  0.19704523526E+04  0.17297165934E+03 0.  0.
         24    2    3    3    0    0 -0.98779695212E+02  0.11657939840E+03 -0.17505194001E+04  0.17590526871E+04  0.81240393468E+02 0.  0.
         -6    2    1    2    0  502  0.83480380857E+02 -0.86531219885E+02  0.33185036953E+01  0.21090878341E+03  0.17324802005E+03 0.  0.
        -24    2    5    5    0    0  0.91797907347E+02 -0.96805561758E+02 -0.43760011065E+02  0.16178424881E+03  0.80380544998E+02 0.  0.
          5    1    3    3  501    0  0.15299314355E+02 -0.30048178520E+02 -0.20864028021E+03  0.21139966551E+03  0.47000000000E+01 0. -1.
        -13    1    4    4    0    0 -0.15622102861E+02  0.14544430018E+00 -0.52130015294E+03  0.52153419898E+03  0.00000000000E+00 0.  1.
         14    1    4    4    0    0 -0.83157592352E+02  0.11643395410E+03 -0.12292192471E+04  0.12375184881E+04  0.00000000000E+00 0. -1.
         -5    1    5    5    0  502 -0.83175264901E+01  0.10274341873E+02  0.47078514760E+02  0.49124534602E+02  0.47000000000E+01 0.  1.
         13    1    6    6    0    0  0.11835537487E+02 -0.10247468006E+01 -0.34707933520E+02  0.36684747551E+02  0.00000000000E+00 0. -1.
        -14    1    6    6    0    0  0.79962369860E+02 -0.95780814958E+02 -0.90520775445E+01  0.12509950126E+03  0.00000000000E+00 0.  1.
<mgrwt>
<rscale>  2 0.21082591E+03</rscale>
<asrwt>0</asrwt>
<pdfrwt beam="1">  1       21 0.17347690E-01 0.21088267E+03</pdfrwt>
<pdfrwt beam="2">  1       21 0.31824632E+00 0.21088267E+03</pdfrwt>
<totfact> 0.78543994E+02</totfact>
</mgrwt>
</event>
<event>
12    1  0.1074575E-001  0.3766501E+03  0.7546771E-02  0.1052204E+00
         21   -1    0    0  503  502  0.00000000000E+00  0.00000000000E+00  0.91618533344E+02  0.91618533344E+02  0.00000000000E+00 0. -1.
         21   -1    0    0  501  503 -0.00000000000E+00 -0.00000000000E+00 -0.15954826772E+04  0.15954826772E+04  0.00000000000E+00 0.  1.
          6    2    1    2  501    0  0.23737499080E+03 -0.23577147133E+03 -0.89870251371E+03  0.97443905520E+03  0.17300344272E+03 0.  0.
         24    2    3    3    0    0  0.20776491185E+03 -0.12160881505E+03 -0.53780881724E+03  0.59473361803E+03  0.80714249150E+02 0.  0.
         -6    2    1    2    0  502 -0.23737499080E+03  0.23577147133E+03 -0.60516163012E+03  0.71266215532E+03  0.17242875663E+03 0.  0.
        -24    2    5    5    0    0 -0.21123181546E+03  0.23508254310E+03 -0.45229637480E+03  0.55750476258E+03  0.79729967439E+02 0.  0.
          5    1    3    3  501    0  0.29610078950E+02 -0.11416265627E+03 -0.36089369647E+03  0.37970543717E+03  0.47000000000E+01 0. -1.
        -13    1    4    4    0    0  0.95567582906E+02 -0.52211614342E+02 -0.33961351297E+03  0.35664625859E+03  0.00000000000E+00 0.  1.
         14    1    4    4    0    0  0.11219732894E+03 -0.69397200710E+02 -0.19819530427E+03  0.23808735943E+03  0.00000000000E+00 0. -1.
         -5    1    5    5    0  502 -0.26143175341E+02  0.68892822126E+00 -0.15286525532E+03  0.15515739274E+03  0.47000000000E+01 0.  1.
         11    1    6    6    0    0 -0.13599247313E+03  0.15295557866E+03 -0.35421665046E+03  0.40909509561E+03  0.00000000000E+00 0. -1.
        -12    1    6    6    0    0 -0.75239342330E+02  0.82126964446E+02 -0.98079724346E+02  0.14840966697E+03  0.00000000000E+00 0.  1.
<mgrwt>
<rscale>  2 0.37658413E+03</rscale>
<asrwt>0</asrwt>
<pdfrwt beam="1">  1       21 0.14095160E-01 0.37665006E+03</pdfrwt>
<pdfrwt beam="2">  1       21 0.24545885E+00 0.37665006E+03</pdfrwt>
<totfact> 0.26974717E+03</totfact>
</mgrwt>
</event>
<event>
12    1  0.1074575E-001  0.2636972E+03  0.7546771E-02  0.1105054E+00
         21   -1    0    0  503  502  0.00000000000E+00  0.00000000000E+00  0.20662369653E+03  0.20662369653E+03  0.00000000000E+00 0. -1.
         21   -1    0    0  501  503 -0.00000000000E+00 -0.00000000000E+00 -0.94153893021E+03  0.94153893021E+03  0.00000000000E+00 0.  1.
          6    2    1    2  501    0  0.49259012662E+02  0.19250526851E+03 -0.82782178197E+03  0.86857752219E+03  0.17220127937E+03 0.  0.
         24    2    3    3    0    0  0.71123097836E+02  0.60972538795E+02 -0.45609515915E+03  0.47363237496E+03  0.86768006076E+02 0.  0.
         -6    2    1    2    0  502 -0.49259012662E+02 -0.19250526851E+03  0.92906548292E+02  0.27958510455E+03  0.17335361328E+03 0.  0.
        -24    2    5    5    0    0  0.15663752759E+02 -0.16705824827E+03  0.97893305853E+02  0.20951746537E+03  0.78489856035E+02 0.  0.
          5    1    3    3  501    0 -0.21864085174E+02  0.13153272972E+03 -0.37172662283E+03  0.39494514723E+03  0.47000000000E+01 0. -1.
        -13    1    4    4    0    0  0.45363813838E+02  0.76550501708E+02 -0.25028191379E+03  0.26562923651E+03  0.00000000000E+00 0.  1.
         14    1    4    4    0    0  0.25759283998E+02 -0.15577962913E+02 -0.20581324535E+03  0.20800313845E+03  0.00000000000E+00 0. -1.
         -5    1    5    5    0  502 -0.64922765421E+02 -0.25447020243E+02 -0.49867575609E+01  0.70067639179E+02  0.47000000000E+01 0.  1.
         11    1    6    6    0    0 -0.22946286406E+02 -0.16614662045E+02  0.25660699017E+02  0.38223690674E+02  0.00000000000E+00 0. -1.
        -12    1    6    6    0    0  0.38610039165E+02 -0.15044358622E+03  0.72232606836E+02  0.17129377470E+03  0.00000000000E+00 0.  1.
<mgrwt>
<rscale>  2 0.26350795E+03</rscale>
<asrwt>0</asrwt>
<pdfrwt beam="1">  1       21 0.31788261E-01 0.26369718E+03</pdfrwt>
<pdfrwt beam="2">  1       21 0.14485214E+00 0.26369718E+03</pdfrwt>
<totfact> 0.29477661E+03</totfact>
</mgrwt>
</event>
<event>
12    1  0.1074575E-001  0.2455279E+03  0.7546771E-02  0.1116414E+00
         21   -1    0    0  501  502  0.00000000000E+00  0.00000000000E+00  0.25503647962E+03  0.25503647962E+03  0.00000000000E+00 0. -1.
         21   -1    0    0  502  503 -0.00000000000E+00 -0.00000000000E+00 -0.24000883376E+03  0.24000883376E+03  0.00000000000E+00 0. -1.
         -6    2    1    2    0  503  0.15640379291E+03  0.72457614631E+02 -0.28646984930E+02  0.24566325744E+03  0.17267754328E+03 0.  0.
        -24    2    3    3    0    0  0.15225789167E+03  0.31870484293E+02 -0.69482422028E+02  0.18774843577E+03  0.78889003135E+02 0.  0.
          6    2    1    2  501    0 -0.15640379291E+03 -0.72457614631E+02  0.43674630789E+02  0.24938205595E+03  0.17484760250E+03 0.  0.
         24    2    5    5    0    0 -0.13025688893E+03  0.12550809523E+02  0.14069025759E+02  0.15552751629E+03  0.82864292088E+02 0.  0.
          5    1    5    5  501    0 -0.26146903976E+02 -0.85008424154E+02  0.29605605029E+02  0.93854539655E+02  0.47000000000E+01 0. -1.
        -11    1    6    6    0    0 -0.56209314103E+02  0.57521346179E+01 -0.34974605483E+02  0.66451464042E+02  0.00000000000E+00 0.  1.
         12    1    6    6    0    0 -0.74047574831E+02  0.67986749049E+01  0.49043631242E+02  0.89076052249E+02  0.00000000000E+00 0. -1.
         -5    1    3    3    0  503  0.41459012372E+01  0.40587130338E+02  0.40835437098E+02  0.57914821670E+02  0.47000000000E+01 0.  1.
         13    1    4    4    0    0  0.10907077242E+03  0.18055005045E+02 -0.73082157248E+01  0.11079632946E+03  0.00000000000E+00 0. -1.
        -14    1    4    4    0    0  0.43187119252E+02  0.13815479249E+02 -0.62174206303E+02  0.76952106310E+02  0.00000000000E+00 0.  1.
<mgrwt>
<rscale>  2 0.24514181E+03</rscale>
<asrwt>0</asrwt>
<pdfrwt beam="1">  1       21 0.39236381E-01 0.24552787E+03</pdfrwt>
<pdfrwt beam="2">  1       21 0.36924436E-01 0.24552787E+03</pdfrwt>
<totfact> 0.43225117E+04</totfact>
</mgrwt>
</event>
<event>
12    1  0.1074575E-001  0.2091694E+03  0.7546771E-02  0.1142314E+00
         21   -1    0    0  503  502  0.00000000000E+00  0.00000000000E+00  0.22922286060E+04  0.22922286060E+04  0.00000000000E+00 0.  1.
         21   -1    0    0  501  503 -0.00000000000E+00 -0.00000000000E+00 -0.19061854504E+02  0.19061854504E+02  0.00000000000E+00 0. -1.
          6    2    1    2  501    0 -0.11119768825E+03 -0.33493189301E+02  0.11703655978E+04  0.11889102059E+04  0.17396874882E+03 0.  0.
         24    2    3    3    0    0 -0.14088438098E+03 -0.33100838646E+02  0.76796284692E+03  0.78538633104E+03  0.78234777481E+02 0.  0.
         -6    2    1    2    0  502  0.11119768825E+03  0.33493189301E+02  0.11028011538E+04  0.11223802547E+04  0.17343682350E+03 0.  0.
        -24    2    5    5    0    0  0.46103798524E+01  0.40548537001E+02  0.33001315344E+03  0.34223025904E+03  0.80916186923E+02 0.  0.
          5    1    3    3  501    0  0.29686692736E+02 -0.39235065531E+00  0.40240275085E+03  0.40352387482E+03  0.47000000000E+01 0. -1.
        -11    1    4    4    0    0 -0.31256478358E+02 -0.13436136331E+02  0.38654759860E+03  0.38804193482E+03  0.00000000000E+00 0.  1.
         12    1    4    4    0    0 -0.10962790263E+03 -0.19664702316E+02  0.38141524832E+03  0.39734439621E+03  0.00000000000E+00 0. -1.
         -5    1    5    5    0  502  0.10658730840E+03 -0.70553476998E+01  0.77278800034E+03  0.78014999565E+03  0.47000000000E+01 0.  1.
         13    1    6    6    0    0  0.19162546611E+02  0.47817723159E+02  0.10836813296E+03  0.11998912485E+03  0.00000000000E+00 0. -1.
        -14    1    6    6    0    0 -0.14552166758E+02 -0.72691861578E+01  0.22164502047E+03  0.22224113419E+03  0.00000000000E+00 0.  1.
<mgrwt>
<rscale>  2 0.20905878E+03</rscale>
<asrwt>0</asrwt>
<pdfrwt beam="1">  1       21 0.35265034E+00 0.20916942E+03</pdfrwt>
<pdfrwt beam="2">  1       21 0.29325948E-02 0.20916942E+03</pdfrwt>
<totfact> 0.10874422E+04</totfact>
</mgrwt>
</event>
<event>
12    1  0.1074575E-001  0.1982621E+03  0.7546771E-02  0.1152477E+00
         21   -1    0    0  503  502  0.00000000000E+00  0.00000000000E+00  0.55533191869E+02  0.55533191869E+02  0.00000000000E+00 0.  1.
         21   -1    0    0  501  503 -0.00000000000E+00 -0.00000000000E+00 -0.70993993672E+03  0.70993993672E+03  0.00000000000E+00 0. -1.
          6    2    1    2  501    0 -0.31759191661E+02 -0.91727176421E+02 -0.39100580562E+03  0.43579464475E+03  0.16615929469E+03 0.  0.
         24    2    3    3    0    0 -0.86415723370E+02 -0.77433165808E+02 -0.24889666374E+03  0.28279545062E+03  0.67528847591E+02 0.  0.
         -6    2    1    2    0  502  0.31759191661E+02  0.91727176421E+02 -0.26340093923E+03  0.32967848384E+03  0.17287373072E+03 0.  0.
        -24    2    5    5    0    0  0.84985544942E+02  0.59041794481E+02 -0.14473697364E+03  0.19549724221E+03  0.81005578998E+02 0.  0.
          5    1    3    3  501    0  0.54656531709E+02 -0.14294010613E+02 -0.14210914188E+03  0.15299919413E+03  0.47000000000E+01 0. -1.
        -11    1    4    4    0    0 -0.28908862355E+02  0.76284693878E+01 -0.76550565240E+02  0.82182144694E+02  0.00000000000E+00 0.  1.
         12    1    4    4    0    0 -0.57506861016E+02 -0.85061635196E+02 -0.17234609850E+03  0.20061330592E+03  0.00000000000E+00 0. -1.
         -5    1    5    5    0  502 -0.53226353281E+02  0.32685381939E+02 -0.11866396559E+03  0.13418124163E+03  0.47000000000E+01 0.  1.
         11    1    6    6    0    0  0.83514483323E+02  0.76859086655E+02 -0.12335345311E+03  0.16762476703E+03  0.00000000000E+00 0. -1.
        -12    1    6    6    0    0  0.14710616190E+01 -0.17817292174E+02 -0.21383520528E+02  0.27872475184E+02  0.00000000000E+00 0.  1.
<mgrwt>
<rscale>  2 0.19678910E+03</rscale>
<asrwt>0</asrwt>
<pdfrwt beam="1">  1       21 0.85435682E-02 0.19826207E+03</pdfrwt>
<pdfrwt beam="2">  1       21 0.10922153E+00 0.19826207E+03</pdfrwt>
<totfact> 0.70903034E+04</totfact>
</mgrwt>
</event>
<event>
12    1  0.1074575E-001  0.1786720E+03  0.7546771E-02  0.1169342E+00
         21   -1    0    0  501  502  0.00000000000E+00  0.00000000000E+00  0.73591592067E+03  0.73591592067E+03  0.00000000000E+00 0. -1.
         21   -1    0    0  502  503 -0.00000000000E+00 -0.00000000000E+00 -0.24451056629E+03  0.24451056629E+03  0.00000000000E+00 0. -1.
         -6    2    1    2    0  503  0.24072713639E+02 -0.31402918333E+02 -0.19905134070E+03  0.26747921763E+03  0.17423563588E+03 0.  0.
        -24    2    3    3    0    0 -0.26770118454E+02 -0.42710812914E+02 -0.19296781651E+03  0.21482979863E+03  0.79839910995E+02 0.  0.
          6    2    1    2  501    0 -0.24072713639E+02  0.31402918333E+02  0.69045669508E+03  0.71294726933E+03  0.17319850530E+03 0.  0.
         24    2    5    5    0    0  0.28233425747E+02 -0.10106856892E+02  0.55918526891E+03  0.56559303293E+03  0.79423164399E+02 0.  0.
          5    1    5    5  501    0 -0.52306139386E+02  0.41509775224E+02  0.13127142617E+03  0.14735423640E+03  0.47000000000E+01 0. -1.
        -13    1    6    6    0    0 -0.13032234555E+02  0.60254042306E+01  0.20161664412E+02  0.24751511984E+02  0.00000000000E+00 0.  1.
         14    1    6    6    0    0  0.41265660302E+02 -0.16132261122E+02  0.53902360450E+03  0.54084152094E+03  0.00000000000E+00 0. -1.
         -5    1    3    3    0  503  0.50842832093E+02  0.11307894581E+02 -0.60835241915E+01  0.52649419006E+02  0.47000000000E+01 0.  1.
         13    1    4    4    0    0 -0.40980809861E+02 -0.59602129084E+02 -0.14619757246E+03  0.16311214168E+03  0.00000000000E+00 0. -1.
        -14    1    4    4    0    0  0.14210691407E+02  0.16891316170E+02 -0.46770244045E+02  0.51717656949E+02  0.00000000000E+00 0.  1.
<mgrwt>
<rscale>  2 0.17841869E+03</rscale>
<asrwt>0</asrwt>
<pdfrwt beam="1">  1       21 0.11321783E+00 0.17867203E+03</pdfrwt>
<pdfrwt beam="2">  1       21 0.37617010E-01 0.17867203E+03</pdfrwt>
<totfact> 0.41997873E+03</totfact>
</mgrwt>
</event>
<event>
12    1  0.1074575E-001  0.2428844E+03  0.7546771E-02  0.1118601E+00
         21   -1    0    0  503  502  0.00000000000E+00  0.00000000000E+00  0.17591264717E+04  0.17591264717E+04  0.00000000000E+00 0.  1.
         21   -1    0    0  501  503 -0.00000000000E+00 -0.00000000000E+00 -0.59149133602E+02  0.59149133602E+02  0.00000000000E+00 0.  1.
          6    2    1    2  501    0  0.10194158400E+03  0.13046126075E+03  0.24909381469E+03  0.34790882316E+03  0.17770929524E+03 0.  0.
         24    2    3    3    0    0  0.17521053746E+02  0.13112484233E+03  0.13302092685E+03  0.20430425653E+03  0.80900869313E+02 0.  0.
         -6    2    1    2    0  502 -0.10194158400E+03 -0.13046126075E+03  0.14508835234E+04  0.14703667822E+04  0.17176509658E+03 0.  0.
        -24    2    5    5    0    0  0.20280621682E+01 -0.39354067425E+02  0.79624209953E+03  0.80127210135E+03  0.80514866178E+02 0.  0.
          5    1    3    3  501    0  0.84420530253E+02 -0.66358157633E+00  0.11607288783E+03  0.14360456664E+03  0.47000000000E+01 0. -1.
        -11    1    4    4    0    0 -0.71014354178E+01  0.30134186057E+02 -0.51633969197E+01  0.31387262098E+02  0.00000000000E+00 0.  1.
         12    1    4    4    0    0  0.24622489164E+02  0.10099065627E+03  0.13818432377E+03  0.17291699443E+03  0.00000000000E+00 0. -1.
         -5    1    5    5    0  502 -0.10396964617E+03 -0.91107193325E+02  0.65464142391E+03  0.66909468082E+03  0.47000000000E+01 0.  1.
         11    1    6    6    0    0 -0.62078127877E+01 -0.38039179228E+02  0.78978387476E+03  0.79072377283E+03  0.00000000000E+00 0. -1.
        -12    1    6    6    0    0  0.82358749559E+01 -0.13148881970E+01  0.64582247734E+01  0.10548328516E+02  0.00000000000E+00 0.  1.
<mgrwt>
<rscale>  2 0.24179843E+03</rscale>
<asrwt>0</asrwt>
<pdfrwt beam="1">  1       21 0.27063480E+00 0.24288438E+03</pdfrwt>
<pdfrwt beam="2">  1       21 0.90998680E-02 0.24288438E+03</pdfrwt>
<totfact> 0.45953287E+03</totfact>
</mgrwt>
</event>
<event>
12    1  0.1074575E-001  0.1858971E+03  0.7546771E-02  0.1162293E+00
         21   -1    0    0  503  502  0.00000000000E+00  0.00000000000E+00  0.40572688431E+03  0.40572688431E+03  0.00000000000E+00 0. -1.
         21   -1    0    0  501  503 -0.00000000000E+00 -0.00000000000E+00 -0.12260936414E+03  0.12260936414E+03  0.00000000000E+00 0. -1.
          6    2    1    2  501    0  0.16877728554E+02 -0.64525220242E+02  0.28791703555E+03  0.34271555005E+03  0.17352050922E+03 0.  0.
         24    2    3    3    0    0  0.50436588097E+02  0.15306246282E+02  0.12177629391E+03  0.15530131331E+03  0.80690157784E+02 0.  0.
         -6    2    1    2    0  502 -0.16877728554E+02  0.64525220242E+02 -0.47995153748E+01  0.18562069840E+03  0.17315786600E+03 0.  0.
        -24    2    5    5    0    0  0.30112132930E+02  0.94253951946E+02  0.97269496926E+01  0.12795829507E+03  0.80549138536E+02 0.  0.
          5    1    3    3  501    0 -0.33558859543E+02 -0.79831466524E+02  0.16614074163E+03  0.18741423674E+03  0.47000000000E+01 0. -1.
        -11    1    4    4    0    0  0.19251962480E+02 -0.73624051312E+01 -0.62961647285E+01  0.21551908475E+02  0.00000000000E+00 0.  1.
         12    1    4    4    0    0  0.31184625617E+02  0.22668651413E+02  0.12807245864E+03  0.13374940484E+03  0.00000000000E+00 0. -1.
         -5    1    5    5    0  502 -0.46989861484E+02 -0.29728731704E+02 -0.14526465067E+02  0.57662403335E+02  0.47000000000E+01 0.  1.
         13    1    6    6    0    0 -0.25374217115E+02  0.36379172515E+02 -0.98319919591E+01  0.45430861240E+02  0.00000000000E+00 0. -1.
        -14    1    6    6    0    0  0.55486350045E+02  0.57874779431E+02  0.19558941652E+02  0.82527433827E+02  0.00000000000E+00 0.  1.
<mgrwt>
<rscale>  2 0.18581242E+03</rscale>
<asrwt>0</asrwt>
<pdfrwt beam="1">  1       21 0.62419520E-01 0.18589709E+03</pdfrwt>
<pdfrwt beam="2">  1       21 0.18862979E-01 0.18589709E+03</pdfrwt>
<totfact> 0.61442115E+04</totfact>
</mgrwt>
</event>
<event>
12    1  0.1074575E-001  0.1880314E+03  0.7546771E-02  0.1160323E+00
         21   -1    0    0  501  502  0.00000000000E+00  0.00000000000E+00  0.56121464293E+03  0.56121464293E+03  0.00000000000E+00 0. -1.
         21   -1    0    0  502  503 -0.00000000000E+00 -0.00000000000E+00 -0.64958280503E+02  0.64958280503E+02  0.00000000000E+00 0. -1.
         -6    2    1    2    0  503 -0.15357048226E+02  0.71295914762E+02  0.19247574892E+03  0.26907754962E+03  0.17331147508E+03 0.  0.
        -24    2    3    3    0    0 -0.35799324890E+02  0.11043475421E+03  0.12665280862E+03  0.18967676310E+03  0.80367368564E+02 0.  0.
          6    2    1    2  501    0  0.15357048226E+02 -0.71295914762E+02  0.30378061351E+03  0.35709537382E+03  0.17296097382E+03 0.  0.
         24    2    5    5    0    0 -0.51810419231E+02 -0.93064813709E+01  0.14517810206E+03  0.17398064155E+03  0.80135211853E+02 0.  0.
          5    1    5    5  501    0  0.67167467457E+02 -0.61989433391E+02  0.15860251145E+03  0.18311473227E+03  0.47000000000E+01 0. -1.
        -11    1    6    6    0    0 -0.35444760571E+02 -0.33031181173E+02  0.13497318407E+03  0.14340554522E+03  0.00000000000E+00 0.  1.
         12    1    6    6    0    0 -0.16365658660E+02  0.23724699802E+02  0.10204917986E+02  0.30575096323E+02  0.00000000000E+00 0. -1.
         -5    1    3    3    0  503  0.20442276664E+02 -0.39138839453E+02  0.65822940300E+02  0.79400786512E+02  0.47000000000E+01 0.  1.
         11    1    4    4    0    0 -0.45112180249E+02  0.42583706419E+02  0.96785070702E+02  0.11496012687E+03  0.00000000000E+00 0. -1.
        -12    1    4    4    0    0  0.93128553582E+01  0.67851047796E+02  0.29867737915E+02  0.74716636234E+02  0.00000000000E+00 0.  1.
<mgrwt>
<rscale>  2 0.18795061E+03</rscale>
<asrwt>0</asrwt>
<pdfrwt beam="1">  1       21 0.86340711E-01 0.18803142E+03</pdfrwt>
<pdfrwt beam="2">  1       21 0.99935820E-02 0.18803142E+03</pdfrwt>
<totfact> 0.94090657E+04</totfact>
</mgrwt>
</event>
<event>
12    1  0.1074575E-001  0.1823585E+03  0.7546771E-02  0.1165659E+00
         21   -1    0    0  501  502  0.00000000000E+00  0.00000000000E+00  0.25446208080E+03  0.25446208080E+03  0.00000000000E+00 0. -1.
         21   -1    0    0  502  503 -0.00000000000E+00 -0.00000000000E+00 -0.17491980209E+03  0.17491980209E+03  0.00000000000E+00 0.  1.
         -6    2    1    2    0  503 -0.33533514473E+02 -0.41266408463E+02 -0.68669743836E+02  0.19438946095E+03  0.17390892947E+03 0.  0.
        -24    2    3    3    0    0 -0.51407377489E+02  0.19786884238E+02  0.15791569714E+01  0.99500169707E+02  0.82846549637E+02 0.  0.
          6    2    1    2  501    0  0.33533514473E+02  0.41266408463E+02  0.14821202255E+03  0.23499242194E+03  0.17443400379E+03 0.  0.
         24    2    5    5    0    0 -0.85098820229E+01  0.40671064435E+02  0.16693289247E+02  0.96835739751E+02  0.85860008228E+02 0.  0.
          5    1    5    5  501    0  0.42043396496E+02  0.59534402754E+00  0.13151873330E+03  0.13815668219E+03  0.47000000000E+01 0. -1.
        -13    1    6    6    0    0  0.28714208710E+02  0.29100374497E+01 -0.17491025708E+02  0.33747741852E+02  0.00000000000E+00 0.  1.
         14    1    6    6    0    0 -0.37224090733E+02  0.37761026985E+02  0.34184314955E+02  0.63087997899E+02  0.00000000000E+00 0. -1.
         -5    1    3    3    0  503  0.17873863016E+02 -0.61053292701E+02 -0.70248900808E+02  0.94889291247E+02  0.47000000000E+01 0.  1.
         11    1    4    4    0    0 -0.60668237029E+01 -0.29984282775E+02  0.86805587248E+01  0.31799617343E+02  0.00000000000E+00 0. -1.
        -12    1    4    4    0    0 -0.45340553786E+02  0.49771167013E+02 -0.71014017534E+01  0.67700552364E+02  0.00000000000E+00 0.  1.
<mgrwt>
<rscale>  2 0.18223286E+03</rscale>
<asrwt>0</asrwt>
<pdfrwt beam="1">  1       21 0.39148013E-01 0.18235853E+03</pdfrwt>
<pdfrwt beam="2">  1       21 0.26910739E-01 0.18235853E+03</pdfrwt>
<totfact> 0.83083813E+04</totfact>
</mgrwt>
</event>
<event>
12    1  0.1074575E-001  0.2415276E+03  0.7546771E-02  0.1118861E+00
         21   -1    0    0  501  502  0.00000000000E+00  0.00000000000E+00  0.90665718517E+03  0.90665718517E+03  0.00000000000E+00 0. -1.
         21   -1    0    0  502  503 -0.00000000000E+00 -0.00000000000E+00 -0.92009958876E+02  0.92009958876E+02  0.00000000000E+00 0. -1.
         -6    2    1    2    0  503 -0.13062164549E+03  0.10598613869E+03  0.13256103316E+03  0.27508081834E+03  0.17263242233E+03 0.  0.
        -24    2    3    3    0    0 -0.13459353729E+03  0.13746171672E+03  0.10436702654E+03  0.23237859420E+03  0.78078108142E+02 0.  0.
          6    2    1    2  501    0  0.13062164549E+03 -0.10598613869E+03  0.68208619313E+03  0.72358632571E+03  0.17332201251E+03 0.  0.
         24    2    5    5    0    0  0.77055162330E+01 -0.42291094677E+02  0.34985061400E+03  0.36363076802E+03  0.89353073074E+02 0.  0.
          5    1    5    5  501    0  0.12291612926E+03 -0.63695044013E+02  0.33223557914E+03  0.35995555768E+03  0.47000000000E+01 0. -1.
        -13    1    6    6    0    0  0.55718085048E+00  0.28082736092E+02  0.86526892559E+02  0.90971718973E+02  0.00000000000E+00 0.  1.
         14    1    6    6    0    0  0.71483353825E+01 -0.70373830769E+02  0.26332372144E+03  0.27265904905E+03  0.00000000000E+00 0. -1.
         -5    1    3    3    0  503  0.39718917958E+01 -0.31475578033E+02  0.28194006618E+02  0.42702224135E+02  0.47000000000E+01 0.  1.
         13    1    4    4    0    0 -0.91945565110E+02  0.13146150307E+03  0.62070003712E+02  0.17201395029E+03  0.00000000000E+00 0. -1.
        -14    1    4    4    0    0 -0.42647972178E+02  0.60002136516E+01  0.42297022830E+02  0.60364643916E+02  0.00000000000E+00 0.  1.
<mgrwt>
<rscale>  2 0.24140394E+03</rscale>
<asrwt>0</asrwt>
<pdfrwt beam="1">  1       21 0.13948572E+00 0.24152763E+03</pdfrwt>
<pdfrwt beam="2">  1       21 0.14155379E-01 0.24152763E+03</pdfrwt>
<totfact> 0.15260373E+04</totfact>
</mgrwt>
</event>
<event>
12    1  0.1074575E-001  0.1980584E+03  0.7546771E-02  0.1152825E+00
         21   -1    0    0  501  502  0.00000000000E+00  0.00000000000E+00  0.47647089177E+03  0.47647089177E+03  0.00000000000E+00 0.  1.
         21   -1    0    0  502  503 -0.00000000000E+00 -0.00000000000E+00 -0.10029060764E+03  0.10029060764E+03  0.00000000000E+00 0. -1.
         -6    2    1    2    0  503 -0.14461126636E+02  0.94229788510E+02  0.59667738369E+02  0.20685111172E+03  0.17360520209E+03 0.  0.
        -24    2    3    3    0    0  0.18323853903E+02 -0.11194663932E+02  0.22912663087E+01  0.82338784349E+02  0.79456537707E+02 0.  0.
          6    2    1    2  501    0  0.14461126636E+02 -0.94229788510E+02  0.31651254577E+03  0.36991038769E+03  0.16602748587E+03 0.  0.
         24    2    5    5    0    0  0.30289095559E+02 -0.24877015468E+02  0.27024520102E+03  0.28492163008E+03  0.81311569945E+02 0.  0.
          5    1    5    5  501    0 -0.15827968923E+02 -0.69352773042E+02  0.46267344749E+02  0.84988757604E+02  0.47000000000E+01 0. -1.
        -11    1    6    6    0    0  0.55204931894E+02 -0.20303645253E+02  0.13400029396E+03  0.14634172781E+03  0.00000000000E+00 0.  1.
         12    1    6    6    0    0 -0.24915836335E+02 -0.45733702150E+01  0.13624490706E+03  0.13857990228E+03  0.00000000000E+00 0. -1.
         -5    1    3    3    0  503 -0.32784980539E+02  0.10542445244E+03  0.57376472061E+02  0.12451232737E+03  0.47000000000E+01 0.  1.
         13    1    4    4    0    0  0.31040393959E+02 -0.40105267703E+02  0.19994807101E+01  0.50753684376E+02  0.00000000000E+00 0. -1.
        -14    1    4    4    0    0 -0.12716540056E+02  0.28910603772E+02  0.29178559869E+00  0.31585099972E+02  0.00000000000E+00 0.  1.
<mgrwt>
<rscale>  2 0.19638551E+03</rscale>
<asrwt>0</asrwt>
<pdfrwt beam="1">  1       21 0.73303213E-01 0.19805843E+03</pdfrwt>
<pdfrwt beam="2">  1       21 0.15429324E-01 0.19805843E+03</pdfrwt>
<totfact> 0.62183557E+04</totfact>
</mgrwt>
</event>
<event>
11    1  0.1074575E-001  0.2392774E+03  0.7546771E-02  0.1120518E+00
         21   -1    0    0  503  502  0.00000000000E+00  0.00000000000E+00  0.45165665638E+03  0.45165665638E+03  0.00000000000E+00 0. -1.
         21   -1    0    0  501  503 -0.00000000000E+00 -0.00000000000E+00 -0.44529661847E+03  0.44529661847E+03  0.00000000000E+00 0. -1.
          6    2    1    2  501    0 -0.13031643902E+03  0.99523267818E+02 -0.37658124582E+03  0.44616935022E+03  0.17425957437E+03 0.  0.
         -6    2    1    2    0  502  0.13031643902E+03 -0.99523267818E+02  0.38294128373E+03  0.45078392462E+03  0.17226393934E+03 0.  0.
        -24    2    4    4    0    0  0.16083532740E+03 -0.77508268292E+02  0.27514356899E+03  0.33651013036E+03  0.75229981293E+02 0.  0.
          5    1    3    3  501    0 -0.95238507786E+00 -0.94434706323E+01 -0.67690770664E+02  0.68514353299E+02  0.47000000000E+01 0. -1.
        -11    1    3    3    0    0  0.11087291097E+02  0.40856769831E+02 -0.15055096170E+02  0.44931721374E+02  0.00000000000E+00 0.  1.
         12    1    3    3    0    0 -0.14045134504E+03  0.68109968619E+02 -0.29383537899E+03  0.33272327555E+03  0.00000000000E+00 0. -1.
         -5    1    4    4    0  502 -0.30518888379E+02 -0.22014999526E+02  0.10779771474E+03  0.11427379426E+03  0.47000000000E+01 0.  1.
         11    1    5    5    0    0  0.68062896098E+02 -0.45305452008E+02  0.64643760033E+02  0.10423030998E+03  0.00000000000E+00 0. -1.
        -12    1    5    5    0    0  0.92772431303E+02 -0.32202816285E+02  0.21049980896E+03  0.23227982038E+03  0.00000000000E+00 0.  1.
<mgrwt>
<rscale>  2 0.23891417E+03</rscale>
<asrwt>0</asrwt>
<pdfrwt beam="1">  1       21 0.69485640E-01 0.23927736E+03</pdfrwt>
<pdfrwt beam="2">  1       21 0.68507172E-01 0.23927736E+03</pdfrwt>
<totfact> 0.35313796E+03</totfact>
</mgrwt>
</event>
<event>
12    1  0.1074575E-001  0.1993843E+03  0.7546771E-02  0.1150412E+00
         21   -1    0    0  501  502  0.00000000000E+00  0.00000000000E+00  0.55180682519E+02  0.55180682519E+02  0.00000000000E+00 0.  1.
         21   -1    0    0  502  503 -0.00000000000E+00 -0.00000000000E+00 -0.77743071231E+03  0.77743071231E+03  0.00000000000E+00 0.  1.
         -6    2    1    2    0  503  0.98528289985E+02 -0.77493441034E+01 -0.47699037601E+03  0.51698542477E+03  0.17316533821E+03 0.  0.
        -24    2    3    3    0    0  0.96738800880E+01 -0.15057740615E+02 -0.98505780837E+02  0.12811372665E+03  0.79933838822E+02 0.  0.
          6    2    1    2  501    0 -0.98528289985E+02  0.77493441034E+01 -0.24525965377E+03  0.31562597005E+03  0.17233565777E+03 0.  0.
         24    2    5    5    0    0 -0.55738922484E+02 -0.27306803149E+02 -0.23945469293E+03  0.25980795323E+03  0.79430054877E+02 0.  0.
          5    1    5    5  501    0 -0.42789367501E+02  0.35056147252E+02 -0.58049608435E+01  0.55818016820E+02  0.47000000000E+01 0. -1.
        -13    1    6    6    0    0 -0.24190418251E+02  0.24979178513E+02 -0.12891072491E+03  0.13351820359E+03  0.00000000000E+00 0.  1.
         14    1    6    6    0    0 -0.31548504233E+02 -0.52285981661E+02 -0.11054396803E+03  0.12628974964E+03  0.00000000000E+00 0. -1.
         -5    1    3    3    0  503  0.88854409897E+02  0.73083965118E+01 -0.37848459517E+03  0.38887169812E+03  0.47000000000E+01 0.  1.
         13    1    4    4    0    0  0.27276095504E+02 -0.35850063427E+02 -0.88105350981E+02  0.98953349135E+02  0.00000000000E+00 0. -1.
        -14    1    4    4    0    0 -0.17602215416E+02  0.20792322812E+02 -0.10400429856E+02  0.29160377512E+02  0.00000000000E+00 0.  1.
<mgrwt>
<rscale>  2 0.19920405E+03</rscale>
<asrwt>0</asrwt>
<pdfrwt beam="1">  1       21 0.84893355E-02 0.19938433E+03</pdfrwt>
<pdfrwt beam="2">  1       21 0.11960473E+00 0.19938433E+03</pdfrwt>
<totfact> 0.57409757E+04</totfact>
</mgrwt>
</event>
<event>
12    1  0.1074575E-001  0.1883723E+03  0.7546771E-02  0.1160745E+00
         21   -1    0    0  503  502  0.00000000000E+00  0.00000000000E+00  0.32018060037E+03  0.32018060037E+03  0.00000000000E+00 0. -1.
         21   -1    0    0  501  503 -0.00000000000E+00 -0.00000000000E+00 -0.22000328887E+03  0.22000328887E+03  0.00000000000E+00 0. -1.
          6    2    1    2  501    0 -0.19488357884E+02  0.65890800768E+02 -0.14218634723E+03  0.23322414878E+03  0.17162503465E+03 0.  0.
         24    2    3    3    0    0 -0.68088667792E+02  0.26717248222E+01 -0.63280137042E+02  0.12094359974E+03  0.77328997014E+02 0.  0.
         -6    2    1    2    0  502  0.19488357884E+02 -0.65890800768E+02  0.24236365873E+03  0.30695974046E+03  0.17539311696E+03 0.  0.
        -24    2    5    5    0    0  0.73564065458E+02 -0.53416720138E+02  0.11185463830E+03  0.16506372484E+03  0.80433546685E+02 0.  0.
          5    1    3    3  501    0  0.48600309908E+02  0.63219075945E+02 -0.78906210185E+02  0.11228054904E+03  0.47000000000E+01 0. -1.
        -11    1    4    4    0    0 -0.13344606591E+02 -0.28478288063E+02  0.29387222222E+00  0.31451196749E+02  0.00000000000E+00 0.  1.
         12    1    4    4    0    0 -0.54744061201E+02  0.31150012885E+02 -0.63574009264E+02  0.89492402993E+02  0.00000000000E+00 0. -1.
         -5    1    5    5    0  502 -0.54075707574E+02 -0.12474080630E+02  0.13050902042E+03  0.14189601562E+03  0.47000000000E+01 0.  1.
         13    1    6    6    0    0  0.47765057369E+02 -0.26208535117E+02  0.11518567369E+03  0.12742106358E+03  0.00000000000E+00 0. -1.
        -14    1    6    6    0    0  0.25799008090E+02 -0.27208185020E+02 -0.33310353913E+01  0.37642661267E+02  0.00000000000E+00 0.  1.
<mgrwt>
<rscale>  2 0.18749033E+03</rscale>
<asrwt>0</asrwt>
<pdfrwt beam="1">  1       21 0.49258554E-01 0.18837234E+03</pdfrwt>
<pdfrwt beam="2">  1       21 0.33846660E-01 0.18837234E+03</pdfrwt>
<totfact> 0.33130674E+04</totfact>
</mgrwt>
</event>
<event>
12    1  0.1074575E-001  0.1942887E+03  0.7546771E-02  0.1155332E+00
         21   -1    0    0  501  502  0.00000000000E+00  0.00000000000E+00  0.58747495785E+03  0.58747495785E+03  0.00000000000E+00 0. -1.
         21   -1    0    0  502  503 -0.00000000000E+00 -0.00000000000E+00 -0.82849521550E+02  0.82849521550E+02  0.00000000000E+00 0.  1.
         -6    2    1    2    0  503  0.83845194422E+02  0.10690531127E+02  0.87700266368E+02  0.21035200051E+03  0.17150021375E+03 0.  0.
        -24    2    3    3    0    0 -0.67246331265E+01 -0.29139142295E+02  0.68091070318E+02  0.10937721595E+03  0.80203935115E+02 0.  0.
          6    2    1    2  501    0 -0.83845194422E+02 -0.10690531127E+02  0.41692516993E+03  0.45997247889E+03  0.17493936072E+03 0.  0.
         24    2    5    5    0    0 -0.60810202499E+02 -0.44577302791E+02  0.40002494896E+03  0.41540083302E+03  0.82782097281E+02 0.  0.
          5    1    5    5  501    0 -0.23034991923E+02  0.33886771664E+02  0.16900220974E+02  0.44571645872E+02  0.47000000000E+01 0. -1.
        -11    1    6    6    0    0 -0.48397915324E+02  0.91394056248E+01  0.11517189976E+03  0.12526154013E+03  0.00000000000E+00 0.  1.
         12    1    6    6    0    0 -0.12412287175E+02 -0.53716708416E+02  0.28485304921E+03  0.29013929289E+03  0.00000000000E+00 0. -1.
         -5    1    3    3    0  503  0.90569827549E+02  0.39829673422E+02  0.19609196050E+02  0.10097478456E+03  0.47000000000E+01 0.  1.
         11    1    4    4    0    0  0.22037600208E+02 -0.11155722997E+02  0.71152443823E+02  0.75317834810E+02  0.00000000000E+00 0. -1.
        -12    1    4    4    0    0 -0.28762233334E+02 -0.17983419298E+02 -0.30613735051E+01  0.34059381142E+02  0.00000000000E+00 0.  1.
<mgrwt>
<rscale>  2 0.19351131E+03</rscale>
<asrwt>0</asrwt>
<pdfrwt beam="1">  1       21 0.90380760E-01 0.19428866E+03</pdfrwt>
<pdfrwt beam="2">  1       21 0.12746081E-01 0.19428866E+03</pdfrwt>
<totfact> 0.54751025E+04</totfact>
</mgrwt>
</event>
<event>
12    1  0.1074575E-001  0.2182268E+03  0.7546771E-02  0.1135329E+00
         21   -1    0    0  501  502  0.00000000000E+00  0.00000000000E+00  0.11997252630E+03  0.11997252630E+03  0.00000000000E+00 0.  1.
         21   -1    0    0  502  503 -0.00000000000E+00 -0.00000000000E+00 -0.40020417020E+03  0.40020417020E+03  0.00000000000E+00 0.  1.
         -6    2    1    2    0  503 -0.87956537817E+02  0.98797975227E+02 -0.11310723579E+03  0.24579702228E+03  0.17356709630E+03 0.  0.
        -24    2    3    3    0    0 -0.23183073415E+02  0.90030424624E+02 -0.54216877902E+01  0.11973854822E+03  0.75266147634E+02 0.  0.
          6    2    1    2  501    0  0.87956537817E+02 -0.98797975227E+02 -0.16712440810E+03  0.27437967422E+03  0.17278959861E+03 0.  0.
         24    2    5    5    0    0  0.61273033820E+02  0.14176782513E+02 -0.68199274175E+02  0.12179010251E+03  0.78907048070E+02 0.  0.
          5    1    5    5  501    0  0.26683503997E+02 -0.11297475774E+03 -0.98925133929E+02  0.15258957171E+03  0.47000000000E+01 0. -1.
        -13    1    6    6    0    0  0.28080320686E+02 -0.24854899376E+02 -0.12981464861E+01  0.37522734670E+02  0.00000000000E+00 0.  1.
         14    1    6    6    0    0  0.33192713134E+02  0.39031681889E+02 -0.66901127689E+02  0.84267367838E+02  0.00000000000E+00 0. -1.
         -5    1    3    3    0  503 -0.64773464401E+02  0.87675506033E+01 -0.10768554800E+03  0.12605847406E+03  0.47000000000E+01 0.  1.
         13    1    4    4    0    0 -0.43133748687E+02  0.89836435044E+02 -0.39636418680E+01  0.99733724457E+02  0.00000000000E+00 0. -1.
        -14    1    4    4    0    0  0.19950675271E+02  0.19398957939E+00 -0.14580459223E+01  0.20004823759E+02  0.00000000000E+00 0.  1.
<mgrwt>
<rscale>  2 0.21807215E+03</rscale>
<asrwt>0</asrwt>
<pdfrwt beam="1">  1       21 0.18457311E-01 0.21822678E+03</pdfrwt>
<pdfrwt beam="2">  1       21 0.61569873E-01 0.21822678E+03</pdfrwt>
<totfact> 0.64944019E+04</totfact>
</mgrwt>
</event>
<event>
12    1  0.1074575E-001  0.2806785E+03  0.7546771E-02  0.1095772E+00
         21   -1    0    0  501  502  0.00000000000E+00  0.00000000000E+00  0.12761402957E+04  0.12761402957E+04  0.00000000000E+00 0.  1.
         21   -1    0    0  502  503 -0.00000000000E+00 -0.00000000000E+00 -0.61010785003E+02  0.61010785003E+02  0.00000000000E+00 0.  1.
         -6    2    1    2    0  503  0.15583178258E+03  0.14852665182E+03  0.60664611384E+03  0.66843096482E+03  0.18010201700E+03 0.  0.
        -24    2    3    3    0    0  0.10428366713E+02  0.19832403081E+02  0.16630647554E+03  0.18715614721E+03  0.82870408395E+02 0.  0.
          6    2    1    2  501    0 -0.15583178258E+03 -0.14852665182E+03  0.60848339685E+03  0.66872011588E+03  0.17490236812E+03 0.  0.
         24    2    5    5    0    0 -0.15685778228E+03 -0.16667495624E+03  0.47027194663E+03  0.52923926199E+03  0.80954232447E+02 0.  0.
          5    1    5    5  501    0  0.10259996912E+01  0.18148304419E+02  0.13821145022E+03  0.13948085389E+03  0.47000000000E+01 0. -1.
        -11    1    6    6    0    0 -0.86284234979E+02 -0.91429852639E+02  0.34358649329E+03  0.36586345203E+03  0.00000000000E+00 0.  1.
         12    1    6    6    0    0 -0.70573547296E+02 -0.75245103598E+02  0.12668545334E+03  0.16337580996E+03  0.00000000000E+00 0. -1.
         -5    1    3    3    0  503  0.14540341587E+03  0.12869424874E+03  0.44033963831E+03  0.48127481761E+03  0.47000000000E+01 0.  1.
         13    1    4    4    0    0  0.22404755272E+02  0.43378542299E+01  0.16600913571E+03  0.16757035292E+03  0.00000000000E+00 0. -1.
        -14    1    4    4    0    0 -0.11976388559E+02  0.15494548851E+02  0.29733982934E+00  0.19585794291E+02  0.00000000000E+00 0.  1.
<mgrwt>
<rscale>  2 0.27984793E+03</rscale>
<asrwt>0</asrwt>
<pdfrwt beam="1">  1       21 0.19632926E+00 0.28067855E+03</pdfrwt>
<pdfrwt beam="2">  1       21 0.93862756E-02 0.28067855E+03</pdfrwt>
<totfact> 0.12110389E+04</totfact>
</mgrwt>
</event>
<event>
12    1  0.1074575E-001  0.2036034E+03  0.7546771E-02  0.1146804E+00
         21   -1    0    0  501  502  0.00000000000E+00  0.00000000000E+00  0.80957331157E+03  0.80957331157E+03  0.00000000000E+00 0. -1.
         21   -1    0    0  502  503 -0.00000000000E+00 -0.00000000000E+00 -0.63019137018E+02  0.63019137018E+02  0.00000000000E+00 0.  1.
         -6    2    1    2    0  503  0.87800947351E+02  0.60690771719E+02  0.18394203418E+03  0.27438841597E+03  0.17338383647E+03 0.  0.
        -24    2    3    3    0    0 -0.17340148126E+01 -0.20568500212E+02  0.86115778959E+02  0.11878750037E+03  0.79173687858E+02 0.  0.
          6    2    1    2  501    0 -0.87800947351E+02 -0.60690771719E+02  0.56261214037E+03  0.59820403263E+03  0.17298343281E+03 0.  0.
         24    2    5    5    0    0 -0.58152334452E+02 -0.44885219130E+02  0.15295429211E+03  0.18714382003E+03  0.78939324807E+02 0.  0.
          5    1    5    5  501    0 -0.29648612899E+02 -0.15805552589E+02  0.40965784826E+03  0.41106021260E+03  0.47000000000E+01 0. -1.
        -13    1    6    6    0    0 -0.19599119035E+02  0.15718383793E+02  0.97751103753E+01  0.26958223956E+02  0.00000000000E+00 0.  1.
         14    1    6    6    0    0 -0.38553215416E+02 -0.60603602924E+02  0.14317918174E+03  0.16018559607E+03  0.00000000000E+00 0. -1.
         -5    1    3    3    0  503  0.89534962164E+02  0.81259271931E+02  0.97826255224E+02  0.15560091560E+03  0.47000000000E+01 0.  1.
         13    1    4    4    0    0 -0.39508118402E+02 -0.15721111763E+02  0.35174864724E+02  0.55184380789E+02  0.00000000000E+00 0. -1.
        -14    1    4    4    0    0  0.37774103589E+02 -0.48473884489E+01  0.50940914235E+02  0.63603119576E+02  0.00000000000E+00 0.  1.
<mgrwt>
<rscale>  2 0.20351810E+03</rscale>
<asrwt>0</asrwt>
<pdfrwt beam="1">  1       21 0.12454973E+00 0.20360337E+03</pdfrwt>
<pdfrwt beam="2">  1       21 0.96952524E-02 0.20360337E+03</pdfrwt>
<totfact> 0.41000213E+04</totfact>
</mgrwt>
</event>
<event>
12    1  0.1074575E-001  0.3039811E+03  0.7546771E-02  0.1083283E+00
         21   -1    0    0  501  502  0.00000000000E+00  0.00000000000E+00  0.37888614556E+03  0.37888614556E+03  0.00000000000E+00 0. -1.
         21   -1    0    0  502  503 -0.00000000000E+00 -0.00000000000E+00 -0.26234701379E+03  0.26234701379E+03  0.00000000000E+00 0.  1.
         -6    2    1    2    0  503 -0.53166874220E+02  0.24453295676E+03  0.14355222707E+03  0.33605413278E+03  0.17234284089E+03 0.  0.
        -24    2    3    3    0    0 -0.14574577991E+02  0.20991677636E+03  0.16551715718E+03  0.27955463341E+03  0.80482249094E+02 0.  0.
          6    2    1    2  501    0  0.53166874220E+02 -0.24453295676E+03 -0.27013095299E+02  0.30517902658E+03  0.17257302074E+03 0.  0.
         24    2    5    5    0    0 -0.22802438349E+02 -0.19830908841E+03 -0.99032360129E+01  0.21449926179E+03  0.77880764526E+02 0.  0.
          5    1    5    5  501    0  0.75969312569E+02 -0.46223868349E+02 -0.17109859286E+02  0.90679764789E+02  0.47000000000E+01 0. -1.
        -13    1    6    6    0    0 -0.18559037075E+02 -0.26937539304E+02 -0.26739915500E+02  0.42250348660E+02  0.00000000000E+00 0.  1.
         14    1    6    6    0    0 -0.42434012740E+01 -0.17137154911E+03  0.16836679487E+02  0.17224891313E+03  0.00000000000E+00 0. -1.
         -5    1    3    3    0  503 -0.38592296229E+02  0.34616180399E+02 -0.21964930116E+02  0.56499499366E+02  0.47000000000E+01 0.  1.
         11    1    4    4    0    0 -0.17563280587E+02  0.17106110853E+03  0.88865127778E+02  0.19356493125E+03  0.00000000000E+00 0. -1.
        -12    1    4    4    0    0  0.29887025962E+01  0.38855667836E+02  0.76652029405E+02  0.85989702163E+02  0.00000000000E+00 0.  1.
<mgrwt>
<rscale>  2 0.30394848E+03</rscale>
<asrwt>0</asrwt>
<pdfrwt beam="1">  1       21 0.58290176E-01 0.30398114E+03</pdfrwt>
<pdfrwt beam="2">  1       21 0.40361079E-01 0.30398114E+03</pdfrwt>
<totfact> 0.15397435E+04</totfact>
</mgrwt>
</event>
<event>
12    1  0.1074575E-001  0.2181999E+03  0.7546771E-02  0.1135442E+00
         21   -1    0    0  503  502  0.00000000000E+00  0.00000000000E+00  0.42025810163E+03  0.42025810163E+03  0.00000000000E+00 0.  1.
         21   -1    0    0  501  503 -0.00000000000E+00 -0.00000000000E+00 -0.14412938494E+03  0.14412938494E+03  0.00000000000E+00 0. -1.
          6    2    1    2  501    0  0.28918287870E+02 -0.12686800600E+03  0.65927238183E+01  0.21829952074E+03  0.17515552639E+03 0.  0.
         24    2    3    3    0    0  0.29786944358E+02 -0.16978759795E+02  0.49755850787E+02  0.10014053239E+03  0.79855752468E+02 0.  0.
         -6    2    1    2    0  502 -0.28918287870E+02  0.12686800600E+03  0.26953599288E+03  0.34608796583E+03  0.17376843878E+03 0.  0.
        -24    2    5    5    0    0 -0.84190092638E+02  0.99563572251E+02  0.21563685783E+03  0.26406533929E+03  0.78932707701E+02 0.  0.
          5    1    3    3  501    0 -0.86865648727E+00 -0.10988924621E+03 -0.43163126969E+02  0.11815898834E+03  0.47000000000E+01 0. -1.
        -11    1    4    4    0    0 -0.17239641063E+02  0.20466686335E+02  0.16576337301E+02  0.31478015055E+02  0.00000000000E+00 0.  1.
         12    1    4    4    0    0  0.47026585420E+02 -0.37445446129E+02  0.33179513486E+02  0.68662517339E+02  0.00000000000E+00 0. -1.
         -5    1    5    5    0  502  0.55271804768E+02  0.27304433753E+02  0.53899135051E+02  0.82022626538E+02  0.47000000000E+01 0.  1.
         11    1    6    6    0    0 -0.41201805900E+02  0.20281964246E+02  0.13671845068E+03  0.14422510752E+03  0.00000000000E+00 0. -1.
        -12    1    6    6    0    0 -0.42988286738E+02  0.79281608005E+02  0.78918407143E+02  0.11984023177E+03  0.00000000000E+00 0.  1.
<mgrwt>
<rscale>  2 0.21792144E+03</rscale>
<asrwt>0</asrwt>
<pdfrwt beam="1">  1       21 0.64655092E-01 0.21819995E+03</pdfrwt>
<pdfrwt beam="2">  1       21 0.22173752E-01 0.21819995E+03</pdfrwt>
<totfact> 0.41399603E+04</totfact>
</mgrwt>
</event>
<event>
12    1  0.1074575E-001  0.2069945E+03  0.7546771E-02  0.1143982E+00
         21   -1    0    0  501  502  0.00000000000E+00  0.00000000000E+00  0.37114464085E+02  0.37114464085E+02  0.00000000000E+00 0. -1.
         21   -1    0    0  502  503 -0.00000000000E+00 -0.00000000000E+00 -0.17638282212E+04  0.17638282212E+04  0.00000000000E+00 0. -1.
         -6    2    1    2    0  503 -0.89897534085E+02  0.70301071440E+02 -0.13927091571E+04  0.14079976810E+04  0.17261189523E+03 0.  0.
        -24    2    3    3    0    0 -0.42404604367E+02 -0.30390680680E+02 -0.62877863196E+03  0.63598320936E+03  0.79939543552E+02 0.  0.
          6    2    1    2  501    0  0.89897534085E+02 -0.70301071440E+02 -0.33400460002E+03  0.39294500421E+03  0.17269306940E+03 0.  0.
         24    2    5    5    0    0  0.87413351883E+01 -0.65224585479E+02 -0.87831792519E+02  0.13364741363E+03  0.76266309077E+02 0.  0.
          5    1    5    5  501    0  0.81156198896E+02 -0.50764859613E+01 -0.24617280750E+03  0.25929759058E+03  0.47000000000E+01 0. -1.
        -11    1    6    6    0    0 -0.16072930623E+02 -0.26351244180E+02 -0.81434191687E+02  0.87087626816E+02  0.00000000000E+00 0.  1.
         12    1    6    6    0    0  0.24814265812E+02 -0.38873341299E+02 -0.63976008322E+01  0.46559786811E+02  0.00000000000E+00 0. -1.
         -5    1    3    3    0  503 -0.47492929717E+02  0.10069175212E+03 -0.76393052510E+03  0.77201447169E+03  0.47000000000E+01 0.  1.
         13    1    4    4    0    0 -0.66436355683E+02 -0.23135891737E+02 -0.46618388724E+03  0.47146206164E+03  0.00000000000E+00 0. -1.
        -14    1    4    4    0    0  0.24031751315E+02 -0.72547889434E+01 -0.16259474472E+03  0.16452114771E+03  0.00000000000E+00 0.  1.
<mgrwt>
<rscale>  2 0.20697752E+03</rscale>
<asrwt>0</asrwt>
<pdfrwt beam="1">  1       21 0.57099179E-02 0.20699445E+03</pdfrwt>
<pdfrwt beam="2">  1       21 0.27135817E+00 0.20699445E+03</pdfrwt>
<totfact> 0.10564772E+04</totfact>
</mgrwt>
</event>
<event>
12    1  0.1074575E-001  0.2046969E+03  0.7546771E-02  0.1146091E+00
         21   -1    0    0  501  502  0.00000000000E+00  0.00000000000E+00  0.23127463395E+03  0.23127463395E+03  0.00000000000E+00 0.  1.
         21   -1    0    0  502  503 -0.00000000000E+00 -0.00000000000E+00 -0.45938976033E+03  0.45938976033E+03  0.00000000000E+00 0.  1.
         -6    2    1    2    0  503  0.26141300767E+02 -0.10587880925E+03 -0.38319482724E+03  0.43385606453E+03  0.17175307638E+03 0.  0.
        -24    2    3    3    0    0 -0.49483728855E+02 -0.37742382792E+02 -0.23144696135E+03  0.25106869483E+03  0.74797504819E+02 0.  0.
          6    2    1    2  501    0 -0.26141300767E+02  0.10587880925E+03  0.15507970086E+03  0.25680832975E+03  0.17322561808E+03 0.  0.
         24    2    5    5    0    0  0.47412381279E+02  0.31346850514E+02  0.52343794024E+02  0.11003669228E+03  0.78343103963E+02 0.  0.
          5    1    5    5  501    0 -0.73553682046E+02  0.74531958737E+02  0.10273590683E+03  0.14677163748E+03  0.47000000000E+01 0. -1.
        -13    1    6    6    0    0 -0.20361667716E+02  0.24974834273E+00  0.20685853576E+02  0.29026960305E+02  0.00000000000E+00 0.  1.
         14    1    6    6    0    0  0.67774048994E+02  0.31097102172E+02  0.31657940448E+02  0.81009731971E+02  0.00000000000E+00 0. -1.
         -5    1    3    3    0  503  0.75625029622E+02 -0.68136426460E+02 -0.15174786589E+03  0.18278736969E+03  0.47000000000E+01 0.  1.
         13    1    4    4    0    0 -0.46705312692E+02 -0.27188050847E+02 -0.66181956478E+02  0.85443710744E+02  0.00000000000E+00 0. -1.
        -14    1    4    4    0    0 -0.27784161628E+01 -0.10554331945E+02 -0.16526500487E+03  0.16562498409E+03  0.00000000000E+00 0.  1.
<mgrwt>
<rscale>  2 0.20438499E+03</rscale>
<asrwt>0</asrwt>
<pdfrwt beam="1">  1       21 0.35580713E-01 0.20469686E+03</pdfrwt>
<pdfrwt beam="2">  1       21 0.70675347E-01 0.20469686E+03</pdfrwt>
<totfact> 0.13708584E+04</totfact>
</mgrwt>
</event>
<event>
12    1  0.1074575E-001  0.2021962E+03  0.7546771E-02  0.1148093E+00
         21   -1    0    0  501  502  0.00000000000E+00  0.00000000000E+00  0.73216541293E+03  0.73216541293E+03  0.00000000000E+00 0.  1.
         21   -1    0    0  502  503 -0.00000000000E+00 -0.00000000000E+00 -0.78269897222E+02  0.78269897222E+02  0.00000000000E+00 0.  1.
         -6    2    1    2    0  503 -0.51803303349E+02  0.89905474206E+02  0.10824462936E+03  0.22852621861E+03  0.17245508481E+03 0.  0.
        -24    2    3    3    0    0  0.64521510313E+01  0.33042517228E+01  0.90716191966E+02  0.12258847360E+03  0.82133781373E+02 0.  0.
          6    2    1    2  501    0  0.51803303349E+02 -0.89905474206E+02  0.54565088635E+03  0.58190909154E+03  0.17354170828E+03 0.  0.
         24    2    5    5    0    0  0.92053497354E+02 -0.59384923913E+02  0.24128418764E+03  0.27334344311E+03  0.67068346656E+02 0.  0.
          5    1    5    5  501    0 -0.40250194005E+02 -0.30520550293E+02  0.30436669871E+03  0.30856564843E+03  0.47000000000E+01 0. -1.
        -11    1    6    6    0    0  0.81945597709E+02 -0.72660684415E+02  0.18874774876E+03  0.21822091721E+03  0.00000000000E+00 0.  1.
         12    1    6    6    0    0  0.10107899645E+02  0.13275760501E+02  0.52536438877E+02  0.55122525904E+02  0.00000000000E+00 0. -1.
         -5    1    3    3    0  503 -0.58255454380E+02  0.86601222484E+02  0.17528437392E+02  0.10593774501E+03  0.47000000000E+01 0.  1.
         13    1    4    4    0    0  0.44271580885E+02 -0.15167362849E+01  0.50401778921E+02  0.67101510276E+02  0.00000000000E+00 0. -1.
        -14    1    4    4    0    0 -0.37819429853E+02  0.48209880076E+01  0.40314413046E+02  0.55486963325E+02  0.00000000000E+00 0.  1.
<mgrwt>
<rscale>  2 0.20196283E+03</rscale>
<asrwt>0</asrwt>
<pdfrwt beam="1">  1       21 0.11264083E+00 0.20219619E+03</pdfrwt>
<pdfrwt beam="2">  1       21 0.12041523E-01 0.20219619E+03</pdfrwt>
<totfact> 0.35767052E+04</totfact>
</mgrwt>
</event>
<event>
12    1  0.1074575E-001  0.1821173E+03  0.7546771E-02  0.1166638E+00
         21   -1    0    0  503  502  0.00000000000E+00  0.00000000000E+00  0.48046739702E+02  0.48046739702E+02  0.00000000000E+00 0.  1.
         21   -1    0    0  501  503 -0.00000000000E+00 -0.00000000000E+00 -0.12496563127E+04  0.12496563127E+04  0.00000000000E+00 0.  1.
          6    2    1    2  501    0  0.43712391920E+02  0.12348998606E+02 -0.10368899881E+04  0.10521440190E+04  0.17263521762E+03 0.  0.
         24    2    3    3    0    0  0.50905494795E+02 -0.44261940883E+02 -0.46430337780E+03  0.47670153233E+03  0.84357782527E+02 0.  0.
         -6    2    1    2    0  502 -0.43712391920E+02 -0.12348998606E+02 -0.16471958488E+03  0.24555903337E+03  0.17636163486E+03 0.  0.
        -24    2    5    5    0    0  0.14858473131E+01  0.34718966914E+02 -0.15434159985E+03  0.17931654865E+03  0.84412562869E+02 0.  0.
          5    1    3    3  501    0 -0.71931028742E+01  0.56610939489E+02 -0.57258661026E+03  0.57544248666E+03  0.47000000000E+01 0. -1.
        -13    1    4    4    0    0  0.36724996026E+02 -0.59735043280E+02 -0.43523804961E+03  0.44085049683E+03  0.00000000000E+00 0.  1.
         14    1    4    4    0    0  0.14180498768E+02  0.15473102398E+02 -0.29065328194E+02  0.35851035496E+02  0.00000000000E+00 0. -1.
         -5    1    5    5    0  502 -0.45198239233E+02 -0.47067965520E+02 -0.10377985033E+02  0.66242484716E+02  0.47000000000E+01 0.  1.
         13    1    6    6    0    0  0.24022761501E+02 -0.19656648918E+02 -0.39190584154E+02  0.49993787646E+02  0.00000000000E+00 0. -1.
        -14    1    6    6    0    0 -0.22536914188E+02  0.54375615832E+02 -0.11515101569E+03  0.12932276100E+03  0.00000000000E+00 0.  1.
<mgrwt>
<rscale>  2 0.18120893E+03</rscale>
<asrwt>0</asrwt>
<pdfrwt beam="1">  1       21 0.73918064E-02 0.18211726E+03</pdfrwt>
<pdfrwt beam="2">  1       21 0.19225481E+00 0.18211726E+03</pdfrwt>
<totfact> 0.20915768E+04</totfact>
</mgrwt>
</event>
<event>
12    1  0.1074575E-001  0.1891526E+03  0.7546771E-02  0.1159909E+00
         21   -1    0    0  503  502  0.00000000000E+00  0.00000000000E+00  0.18513559218E+03  0.18513559218E+03  0.00000000000E+00 0. -1.
         21   -1    0    0  501  503 -0.00000000000E+00 -0.00000000000E+00 -0.26950712145E+03  0.26950712145E+03  0.00000000000E+00 0. -1.
          6    2    1    2  501    0  0.16336635447E+02 -0.66335253930E+02 -0.16571120719E+03  0.25147351445E+03  0.17638444576E+03 0.  0.
         24    2    3    3    0    0 -0.11945012720E+02  0.30132858805E+02 -0.62943292808E+02  0.10763581902E+03  0.81073663533E+02 0.  0.
         -6    2    1    2    0  502 -0.16336635447E+02  0.66335253930E+02  0.81339677920E+02  0.20316919918E+03  0.17318870840E+03 0.  0.
        -24    2    5    5    0    0 -0.41764036824E+02 -0.24154732193E+02  0.34698027745E+02  0.98133377381E+02  0.78093026371E+02 0.  0.
          5    1    3    3  501    0  0.28281648167E+02 -0.96468112736E+02 -0.10276791439E+03  0.14383769542E+03  0.47000000000E+01 0. -1.
        -11    1    4    4    0    0  0.32184156627E+02  0.21937987262E+02 -0.44425342324E+02  0.59082199210E+02  0.00000000000E+00 0.  1.
         12    1    4    4    0    0 -0.44129169347E+02  0.81948715431E+01 -0.18517950484E+02  0.48553619814E+02  0.00000000000E+00 0. -1.
         -5    1    5    5    0  502  0.25427401376E+02  0.90489986123E+02  0.46641650175E+02  0.10503582180E+03  0.47000000000E+01 0.  1.
         13    1    6    6    0    0 -0.38054133727E+01  0.27196605160E+02  0.15082500290E+02  0.31330788662E+02  0.00000000000E+00 0. -1.
        -14    1    6    6    0    0 -0.37958623451E+02 -0.51351337353E+02  0.19615527455E+02  0.66802588719E+02  0.00000000000E+00 0.  1.
<mgrwt>
<rscale>  2 0.18840411E+03</rscale>
<asrwt>0</asrwt>
<pdfrwt beam="1">  1       21 0.28482399E-01 0.18915265E+03</pdfrwt>
<pdfrwt beam="2">  1       21 0.41462634E-01 0.18915265E+03</pdfrwt>
<totfact> 0.66119835E+04</totfact>
</mgrwt>
</event>
<event>
12    1  0.1074575E-001  0.1803671E+03  0.7546771E-02  0.1167577E+00
         21   -1    0    0  503  502  0.00000000000E+00  0.00000000000E+00  0.11440360772E+03  0.11440360772E+03  0.00000000000E+00 0.  1.
         21   -1    0    0  501  503 -0.00000000000E+00 -0.00000000000E+00 -0.29980074526E+03  0.29980074526E+03  0.00000000000E+00 0.  1.
          6    2    1    2  501    0 -0.26634817591E+02  0.45033732191E+02 -0.44569331488E+02  0.18579210581E+03  0.17261179198E+03 0.  0.
         24    2    3    3    0    0 -0.72913325357E+02 -0.25580971390E+02 -0.98930746908E+01  0.94399166107E+02  0.53315949987E+02 0.  0.
         -6    2    1    2    0  502  0.26634817591E+02 -0.45033732191E+02 -0.14082780605E+03  0.22841224717E+03  0.17205299520E+03 0.  0.
        -24    2    5    5    0    0 -0.41635533909E+02 -0.59957410138E+02 -0.10016391800E+03  0.14742336615E+03  0.79827499673E+02 0.  0.
          5    1    3    3  501    0  0.46278507765E+02  0.70614703581E+02 -0.34676256798E+02  0.91392939707E+02  0.47000000000E+01 0. -1.
        -11    1    4    4    0    0 -0.33592249546E+02 -0.17140889091E+00 -0.28467420999E+02  0.44032518312E+02  0.00000000000E+00 0.  1.
         12    1    4    4    0    0 -0.39321075810E+02 -0.25409562499E+02  0.18574346309E+02  0.50366647795E+02  0.00000000000E+00 0. -1.
         -5    1    5    5    0  502  0.68270351500E+02  0.14923677947E+02 -0.40663888053E+02  0.80988881021E+02  0.47000000000E+01 0.  1.
         11    1    6    6    0    0 -0.41517357167E+02 -0.37743170795E+02 -0.13164823061E+02  0.57632893854E+02  0.00000000000E+00 0. -1.
        -12    1    6    6    0    0 -0.11817674169E+00 -0.22214239344E+02 -0.86999094938E+02  0.89790472297E+02  0.00000000000E+00 0.  1.
<mgrwt>
<rscale>  2 0.18023325E+03</rscale>
<asrwt>0</asrwt>
<pdfrwt beam="1">  1       21 0.17600555E-01 0.18036707E+03</pdfrwt>
<pdfrwt beam="2">  1       21 0.46123192E-01 0.18036707E+03</pdfrwt>
<totfact> 0.13236626E+05</totfact>
</mgrwt>
</event>
<event>
12    1  0.1074575E-001  0.2623288E+03  0.7546771E-02  0.1105815E+00
         21   -1    0    0  503  502  0.00000000000E+00  0.00000000000E+00  0.64750934988E+03  0.64750934988E+03  0.00000000000E+00 0.  1.
         21   -1    0    0  501  503 -0.00000000000E+00 -0.00000000000E+00 -0.10868067270E+03  0.10868067270E+03  0.00000000000E+00 0. -1.
          6    2    1    2  501    0 -0.19284287374E+03  0.36279810977E+02  0.21145240054E+03  0.33693993529E+03  0.17410285369E+03 0.  0.
         24    2    3    3    0    0 -0.14196878216E+02  0.46417988160E+01  0.51682807065E+02  0.95147113789E+02  0.78477787106E+02 0.  0.
         -6    2    1    2    0  502  0.19284287374E+03 -0.36279810977E+02  0.32737627664E+03  0.41925008729E+03  0.17346703015E+03 0.  0.
        -24    2    5    5    0    0  0.21223725714E+03 -0.27405846031E+02  0.24855358322E+03  0.33745768935E+03  0.79391905510E+02 0.  0.
          5    1    3    3  501    0 -0.17864599552E+03  0.31638012161E+02  0.15976959348E+03  0.24179282150E+03  0.47000000000E+01 0. -1.
        -11    1    4    4    0    0 -0.38500205992E+02  0.68744529548E+01  0.57984620945E+02  0.69940976766E+02  0.00000000000E+00 0.  1.
         12    1    4    4    0    0  0.24303327776E+02 -0.22326541388E+01 -0.63018138795E+01  0.25206137024E+02  0.00000000000E+00 0. -1.
         -5    1    5    5    0  502 -0.19394383401E+02 -0.88739649462E+01  0.78822693422E+02  0.81792397933E+02  0.47000000000E+01 0.  1.
         13    1    6    6    0    0  0.11893380169E+02 -0.25321098857E+01 -0.51730928730E+01  0.13214573856E+02  0.00000000000E+00 0. -1.
        -14    1    6    6    0    0  0.20034387697E+03 -0.24873736145E+02  0.25372667609E+03  0.32424311550E+03  0.00000000000E+00 0.  1.
<mgrwt>
<rscale>  2 0.26222335E+03</rscale>
<asrwt>0</asrwt>
<pdfrwt beam="1">  1       21 0.99616820E-01 0.26232881E+03</pdfrwt>
<pdfrwt beam="2">  1       21 0.16720104E-01 0.26232881E+03</pdfrwt>
<totfact> 0.25692479E+04</totfact>
</mgrwt>
</event>
<event>
12    1  0.1074575E-001  0.1996683E+03  0.7546771E-02  0.1150655E+00
         21   -1    0    0  503  502  0.00000000000E+00  0.00000000000E+00  0.95065017131E+02  0.95065017131E+02  0.00000000000E+00 0. -1.
         21   -1    0    0  501  503 -0.00000000000E+00 -0.00000000000E+00 -0.48213650555E+03  0.48213650555E+03  0.00000000000E+00 0.  1.
          6    2    1    2  501    0 -0.99596041883E+02 -0.75023622278E+01 -0.30146921395E+03  0.35995699136E+03  0.16943934512E+03 0.  0.
         24    2    3    3    0    0 -0.70563554107E+02 -0.31205057155E+02 -0.30225144582E+03  0.32217597788E+03  0.80550937062E+02 0.  0.
         -6    2    1    2    0  502  0.99596041883E+02  0.75023622278E+01 -0.85602274467E+02  0.21724453131E+03  0.17289239426E+03 0.  0.
        -24    2    5    5    0    0  0.74094836431E+02  0.50763230733E+02 -0.11852958078E+02  0.12789764614E+03  0.90279371353E+02 0.  0.
          5    1    3    3  501    0 -0.29032487776E+02  0.23702694927E+02  0.78223187047E+00  0.37781013485E+02  0.47000000000E+01 0. -1.
        -11    1    4    4    0    0 -0.32945943564E+02 -0.50667118448E+02 -0.23542072972E+03  0.24305454547E+03  0.00000000000E+00 0.  1.
         12    1    4    4    0    0 -0.37617610543E+02  0.19462061293E+02 -0.66830716098E+02  0.79121432412E+02  0.00000000000E+00 0. -1.
         -5    1    5    5    0  502  0.25501205452E+02 -0.43260868505E+02 -0.73749316389E+02  0.89346885178E+02  0.47000000000E+01 0.  1.
         13    1    6    6    0    0  0.45970991275E+02  0.39991994571E+02  0.36430389537E+02  0.70992006243E+02  0.00000000000E+00 0. -1.
        -14    1    6    6    0    0  0.28123845156E+02  0.10771236162E+02 -0.48283347615E+02  0.56905639894E+02  0.00000000000E+00 0.  1.
<mgrwt>
<rscale>  2 0.19891850E+03</rscale>
<asrwt>0</asrwt>
<pdfrwt beam="1">  1       21 0.14625387E-01 0.19966832E+03</pdfrwt>
<pdfrwt beam="2">  1       21 0.74174847E-01 0.19966832E+03</pdfrwt>
<totfact> 0.66720954E+04</totfact>
</mgrwt>
</event>
<event>
12    1  0.1074575E-001  0.2267825E+03  0.7546771E-02  0.1129141E+00
         21   -1    0    0  503  502  0.00000000000E+00  0.00000000000E+00  0.46991397153E+03  0.46991397153E+03  0.00000000000E+00 0. -1.
         21   -1    0    0  501  503 -0.00000000000E+00 -0.00000000000E+00 -0.21803438597E+03  0.21803438597E+03  0.00000000000E+00 0.  1.
          6    2    1    2  501    0 -0.11943689579E+03 -0.82744222514E+02 -0.11761866415E+03  0.25440569886E+03  0.17255819604E+03 0.  0.
         24    2    3    3    0    0 -0.66647028311E+01 -0.74585073575E+02 -0.51267149878E+02  0.12322356341E+03  0.83356910081E+02 0.  0.
         -6    2    1    2    0  502  0.11943689579E+03  0.82744222514E+02  0.36949824971E+03  0.43354265863E+03  0.17412208902E+03 0.  0.
        -24    2    5    5    0    0  0.30905478346E+02  0.97324269547E+02  0.26837879762E+03  0.29827395111E+03  0.80703214690E+02 0.  0.
          5    1    3    3  501    0 -0.11277219296E+03 -0.81591489391E+01 -0.66351514268E+02  0.13118213545E+03  0.47000000000E+01 0. -1.
        -11    1    4    4    0    0 -0.79429543497E+00 -0.92087526620E+02 -0.49827415436E+02  0.10470680395E+03  0.00000000000E+00 0.  1.
         12    1    4    4    0    0 -0.58704073962E+01  0.17502453045E+02 -0.14397344420E+01  0.18516759459E+02  0.00000000000E+00 0. -1.
         -5    1    5    5    0  502  0.88531417445E+02 -0.14580047033E+02  0.10111945209E+03  0.13526870753E+03  0.47000000000E+01 0.  1.
         11    1    6    6    0    0  0.44597368696E+02  0.38688979582E+02  0.73336545185E+02  0.94148878355E+02  0.00000000000E+00 0. -1.
        -12    1    6    6    0    0 -0.13691890350E+02  0.58635289966E+02  0.19504225244E+03  0.20412507275E+03  0.00000000000E+00 0.  1.
<mgrwt>
<rscale>  2 0.22648223E+03</rscale>
<asrwt>0</asrwt>
<pdfrwt beam="1">  1       21 0.72294457E-01 0.22678245E+03</pdfrwt>
<pdfrwt beam="2">  1       21 0.33543752E-01 0.22678245E+03</pdfrwt>
<totfact> 0.14461848E+04</totfact>
</mgrwt>
</event>
<event>
12    1  0.1074575E-001  0.3625743E+03  0.7546771E-02  0.1057634E+00
         21   -1    0    0  501  502  0.00000000000E+00  0.00000000000E+00  0.22797205072E+03  0.22797205072E+03  0.00000000000E+00 0. -1.
         21   -1    0    0  502  503 -0.00000000000E+00 -0.00000000000E+00 -0.93525097999E+03  0.93525097999E+03  0.00000000000E+00 0.  1.
         -6    2    1    2    0  503  0.31038493088E+03 -0.71634076642E+02 -0.71410851556E+03  0.80058446061E+03  0.17179714876E+03 0.  0.
        -24    2    3    3    0    0  0.56658032422E+02 -0.95667382280E+01 -0.15960656637E+03  0.18762100725E+03  0.80160658777E+02 0.  0.
          6    2    1    2  501    0 -0.31038493088E+03  0.71634076642E+02  0.68295862920E+01  0.36263857009E+03  0.17317575757E+03 0.  0.
         24    2    5    5    0    0 -0.22611547041E+03  0.33947039288E+02 -0.58408369642E+02  0.24950265339E+03  0.80990301688E+02 0.  0.
          5    1    5    5  501    0 -0.84269460472E+02  0.37687037354E+02  0.65237955934E+02  0.11313591670E+03  0.47000000000E+01 0. -1.
        -13    1    6    6    0    0 -0.11847273298E+03  0.58528927597E+02 -0.30481377345E+02  0.13561171849E+03  0.00000000000E+00 0.  1.
         14    1    6    6    0    0 -0.10764273743E+03 -0.24581888308E+02 -0.27926992298E+02  0.11389093490E+03  0.00000000000E+00 0. -1.
         -5    1    3    3    0  503  0.25372689846E+03 -0.62067338414E+02 -0.55450194919E+03  0.61296345336E+03  0.47000000000E+01 0.  1.
         13    1    4    4    0    0  0.16793048310E+01 -0.12422897189E+01 -0.11838319411E+03  0.11840162159E+03  0.00000000000E+00 0. -1.
        -14    1    4    4    0    0  0.54978727591E+02 -0.83244485092E+01 -0.41223372264E+02  0.69219385662E+02  0.00000000000E+00 0.  1.
<mgrwt>
<rscale>  2 0.36241003E+03</rscale>
<asrwt>0</asrwt>
<pdfrwt beam="1">  1       21 0.35072623E-01 0.36257425E+03</pdfrwt>
<pdfrwt beam="2">  1       21 0.14388477E+00 0.36257425E+03</pdfrwt>
<totfact> 0.23309482E+03</totfact>
</mgrwt>
</event>
<event>
12    1  0.1074575E-001  0.2267523E+03  0.7546771E-02  0.1129045E+00
         21   -1    0    0  501  502  0.00000000000E+00  0.00000000000E+00  0.34458920916E+02  0.34458920916E+02  0.00000000000E+00 0.  1.
         21   -1    0    0  502  503 -0.00000000000E+00 -0.00000000000E+00 -0.15135835235E+04  0.15135835235E+04  0.00000000000E+00 0.  1.
         -6    2    1    2    0  503 -0.13386509615E+03  0.57527781566E+02 -0.83828794223E+03  0.86827173787E+03  0.17303128931E+03 0.  0.
        -24    2    3    3    0    0  0.14298396842E+01  0.21883027915E+02 -0.24712760317E+03  0.26076214568E+03  0.80274111768E+02 0.  0.
          6    2    1    2  501    0  0.13386509615E+03 -0.57527781566E+02 -0.64083666031E+03  0.67977070650E+03  0.17374486640E+03 0.  0.
         24    2    5    5    0    0  0.50627387681E+02 -0.85927762745E+02 -0.47112828612E+03  0.48856898760E+03  0.82408014560E+02 0.  0.
          5    1    5    5  501    0  0.83237708468E+02  0.28399981180E+02 -0.16970837419E+03  0.19120171890E+03  0.47000000000E+01 0. -1.
        -13    1    6    6    0    0  0.71957331836E+02 -0.59262182655E+02 -0.30330938966E+03  0.31731128211E+03  0.00000000000E+00 0.  1.
         14    1    6    6    0    0 -0.21329944155E+02 -0.26665580091E+02 -0.16781889647E+03  0.17125770549E+03  0.00000000000E+00 0. -1.
         -5    1    3    3    0  503 -0.13529493583E+03  0.35644753650E+02 -0.59116033906E+03  0.60750959219E+03  0.47000000000E+01 0.  1.
         13    1    4    4    0    0  0.13411949396E+02  0.14616299695E+02 -0.24589580751E+03  0.24669467922E+03  0.00000000000E+00 0. -1.
        -14    1    4    4    0    0 -0.11982109712E+02  0.72667282199E+01 -0.12317956597E+01  0.14067466464E+02  0.00000000000E+00 0.  1.
<mgrwt>
<rscale>  2 0.22661556E+03</rscale>
<asrwt>0</asrwt>
<pdfrwt beam="1">  1       21 0.53013720E-02 0.22675226E+03</pdfrwt>
<pdfrwt beam="2">  1       21 0.23285903E+00 0.22675226E+03</pdfrwt>
<totfact> 0.19927044E+04</totfact>
</mgrwt>
</event>
<event>
12    1  0.1074575E-001  0.1750005E+03  0.7546771E-02  0.1172790E+00
         21   -1    0    0  501  502  0.00000000000E+00  0.00000000000E+00  0.19784529046E+03  0.19784529046E+03  0.00000000000E+00 0. -1.
         21   -1    0    0  502  503 -0.00000000000E+00 -0.00000000000E+00 -0.31244288980E+03  0.31244288980E+03  0.00000000000E+00 0. -1.
         -6    2    1    2    0  503 -0.12894420629E+02 -0.17927704023E+02 -0.23863590111E+03  0.29578722799E+03  0.17336470889E+03 0.  0.
        -24    2    3    3    0    0 -0.10231727330E+02 -0.16509918826E+02 -0.26193952983E+03  0.27182373154E+03  0.69989699773E+02 0.  0.
          6    2    1    2  501    0  0.12894420629E+02  0.17927704023E+02  0.12403830178E+03  0.21450095227E+03  0.17360152523E+03 0.  0.
         24    2    5    5    0    0  0.50184555216E+02 -0.69386129457E+01  0.14006807048E+02  0.95598018372E+02  0.79850839327E+02 0.  0.
          5    1    5    5  501    0 -0.37290134587E+02  0.24866316969E+02  0.11003149473E+03  0.11890293390E+03  0.47000000000E+01 0. -1.
        -13    1    6    6    0    0 -0.11766533193E+02 -0.26354988692E+02 -0.13139071257E+01  0.28892266860E+02  0.00000000000E+00 0.  1.
         14    1    6    6    0    0  0.61951088408E+02  0.19416375747E+02  0.15320714174E+02  0.66705751513E+02  0.00000000000E+00 0. -1.
         -5    1    3    3    0  503 -0.26626932986E+01 -0.14177851971E+01  0.23303628724E+02  0.23963496451E+02  0.47000000000E+01 0.  1.
         11    1    4    4    0    0 -0.82771775798E+01 -0.28542493364E+02 -0.41478813610E+02  0.51026243979E+02  0.00000000000E+00 0. -1.
        -12    1    4    4    0    0 -0.19545497501E+01  0.12032574538E+02 -0.22046071622E+03  0.22079748756E+03  0.00000000000E+00 0.  1.
<mgrwt>
<rscale>  2 0.17494169E+03</rscale>
<asrwt>0</asrwt>
<pdfrwt beam="1">  1       21 0.30437737E-01 0.17500045E+03</pdfrwt>
<pdfrwt beam="2">  1       21 0.48068137E-01 0.17500045E+03</pdfrwt>
<totfact> 0.43220036E+04</totfact>
</mgrwt>
</event>
<event>
12    1  0.1074575E-001  0.1882394E+03  0.7546771E-02  0.1160263E+00
         21   -1    0    0  501  502  0.00000000000E+00  0.00000000000E+00  0.90157501502E+02  0.90157501502E+02  0.00000000000E+00 0. -1.
         21   -1    0    0  502  503 -0.00000000000E+00 -0.00000000000E+00 -0.72728693409E+03  0.72728693409E+03  0.00000000000E+00 0. -1.
         -6    2    1    2    0  503 -0.72209761180E+02  0.34764324467E+01 -0.59682798591E+03  0.62580965005E+03  0.17380373455E+03 0.  0.
        -24    2    3    3    0    0  0.96228133761E+01 -0.19946057392E+02 -0.43416878090E+03  0.44216518305E+03  0.80728402965E+02 0.  0.
          6    2    1    2  501    0  0.72209761180E+02 -0.34764324467E+01 -0.40301446678E+02  0.19163478554E+03  0.17283908479E+03 0.  0.
         24    2    5    5    0    0 -0.12013738909E+01  0.33887186783E+02  0.17543996865E+02  0.90870604734E+02  0.82461447061E+02 0.  0.
          5    1    5    5  501    0  0.73411135071E+02 -0.37363619230E+02 -0.57845443542E+02  0.10076418080E+03  0.47000000000E+01 0. -1.
        -11    1    6    6    0    0 -0.37304278296E+02  0.35464792946E+02  0.19406025876E+01  0.51508510523E+02  0.00000000000E+00 0.  1.
         12    1    6    6    0    0  0.36102904405E+02 -0.15776061626E+01  0.15603394277E+02  0.39362094211E+02  0.00000000000E+00 0. -1.
         -5    1    3    3    0  503 -0.81832574557E+02  0.23422489839E+02 -0.16265920501E+03  0.18364446701E+03  0.47000000000E+01 0.  1.
         11    1    4    4    0    0 -0.24893423810E+01 -0.43104604836E+02 -0.37505291796E+03  0.37752999226E+03  0.00000000000E+00 0. -1.
        -12    1    4    4    0    0  0.12112155757E+02  0.23158547444E+02 -0.59115862937E+02  0.64635190784E+02  0.00000000000E+00 0.  1.
<mgrwt>
<rscale>  2 0.18801643E+03</rscale>
<asrwt>0</asrwt>
<pdfrwt beam="1">  1       21 0.13870385E-01 0.18823940E+03</pdfrwt>
<pdfrwt beam="2">  1       21 0.11189030E+00 0.18823940E+03</pdfrwt>
<totfact> 0.28410878E+04</totfact>
</mgrwt>
</event>
<event>
12    1  0.1074575E-001  0.2107510E+03  0.7546771E-02  0.1141295E+00
         21   -1    0    0  503  502  0.00000000000E+00  0.00000000000E+00  0.10973187093E+03  0.10973187093E+03  0.00000000000E+00 0. -1.
         21   -1    0    0  501  503 -0.00000000000E+00 -0.00000000000E+00 -0.49287979769E+03  0.49287979769E+03  0.00000000000E+00 0. -1.
          6    2    1    2  501    0  0.80095362631E+02 -0.85671309283E+02 -0.32180935698E+03  0.38467808897E+03  0.17510319685E+03 0.  0.
         24    2    3    3    0    0 -0.97039637857E+01 -0.21723299868E+02 -0.21577169382E+03  0.23164429224E+03  0.80842968799E+02 0.  0.
         -6    2    1    2    0  502 -0.80095362631E+02  0.85671309283E+02 -0.61338569777E+02  0.21793357964E+03  0.17314093866E+03 0.  0.
        -24    2    5    5    0    0 -0.75850097192E+02  0.12008998806E+03 -0.75923191065E+02  0.18001961248E+03  0.80423177384E+02 0.  0.
          5    1    3    3  501    0  0.89799326417E+02 -0.63948009415E+02 -0.10603766316E+03  0.15303379673E+03  0.47000000000E+01 0. -1.
        -13    1    4    4    0    0  0.18999414548E+02  0.23403119154E+02 -0.91985024375E+02  0.96798390733E+02  0.00000000000E+00 0.  1.
         14    1    4    4    0    0 -0.28703378334E+02 -0.45126419022E+02 -0.12378666945E+03  0.13484590151E+03  0.00000000000E+00 0. -1.
         -5    1    5    5    0  502 -0.42452654398E+01 -0.34418678776E+02  0.14584621289E+02  0.37913967155E+02  0.47000000000E+01 0.  1.
         11    1    6    6    0    0 -0.15183259057E+02  0.58546299833E+02  0.62053322810E+01  0.60800548751E+02  0.00000000000E+00 0. -1.
        -12    1    6    6    0    0 -0.60666838135E+02  0.61543688225E+02 -0.82128523346E+02  0.11921906373E+03  0.00000000000E+00 0.  1.
<mgrwt>
<rscale>  2 0.21034291E+03</rscale>
<asrwt>0</asrwt>
<pdfrwt beam="1">  1       21 0.16881826E-01 0.21075097E+03</pdfrwt>
<pdfrwt beam="2">  1       21 0.75827661E-01 0.21075097E+03</pdfrwt>
<totfact> 0.48586345E+04</totfact>
</mgrwt>
</event>
<event>
12    1  0.1074575E-001  0.1814223E+03  0.7546771E-02  0.1166494E+00
         21   -1    0    0  503  502  0.00000000000E+00  0.00000000000E+00  0.71869389358E+02  0.71869389358E+02  0.00000000000E+00 0.  1.
         21   -1    0    0  501  503 -0.00000000000E+00 -0.00000000000E+00 -0.97336460087E+03  0.97336460087E+03  0.00000000000E+00 0.  1.
          6    2    1    2  501    0 -0.49060427416E+02 -0.18475523837E+02 -0.83112534388E+03  0.85064214918E+03  0.17341988990E+03 0.  0.
         24    2    3    3    0    0 -0.79334972525E+02  0.29852075762E+02 -0.64338660304E+03  0.65437694652E+03  0.84128965728E+02 0.  0.
         -6    2    1    2    0  502  0.49060427416E+02  0.18475523837E+02 -0.70369867634E+02  0.19459184104E+03  0.17368303259E+03 0.  0.
        -24    2    5    5    0    0  0.17212218507E+02  0.10778717505E+02 -0.11380021713E+03  0.13998566469E+03  0.78949703503E+02 0.  0.
          5    1    3    3  501    0  0.30274545108E+02 -0.48327599600E+02 -0.18773874084E+03  0.19626520266E+03  0.47000000000E+01 0. -1.
        -13    1    4    4    0    0 -0.12550204012E+02 -0.27169077462E+02 -0.21584827123E+03  0.21791315376E+03  0.00000000000E+00 0.  1.
         14    1    4    4    0    0 -0.66784768513E+02  0.57021153224E+02 -0.42753833181E+03  0.43646379276E+03  0.00000000000E+00 0. -1.
         -5    1    5    5    0  502  0.31848208910E+02  0.76968063321E+01  0.43430349496E+02  0.54606176353E+02  0.47000000000E+01 0.  1.
         11    1    6    6    0    0  0.23423126683E+02 -0.30796997497E+02 -0.64303660727E+02  0.75047043254E+02  0.00000000000E+00 0. -1.
        -12    1    6    6    0    0 -0.62109081761E+01  0.41575715002E+02 -0.49496556404E+02  0.64938621437E+02  0.00000000000E+00 0.  1.
<mgrwt>
<rscale>  2 0.18135933E+03</rscale>
<asrwt>0</asrwt>
<pdfrwt beam="1">  1       21 0.11056831E-01 0.18142234E+03</pdfrwt>
<pdfrwt beam="2">  1       21 0.14974837E+00 0.18142234E+03</pdfrwt>
<totfact> 0.20542237E+04</totfact>
</mgrwt>
</event>
<event>
12    1  0.1074575E-001  0.2132878E+03  0.7546771E-02  0.1140182E+00
         21   -1    0    0  501  502  0.00000000000E+00  0.00000000000E+00  0.26905415160E+02  0.26905415160E+02  0.00000000000E+00 0.  1.
         21   -1    0    0  502  503 -0.00000000000E+00 -0.00000000000E+00 -0.21914648209E+04  0.21914648209E+04  0.00000000000E+00 0.  1.
         -6    2    1    2    0  503 -0.11366376154E+03  0.16218158186E+01 -0.16487708360E+04  0.16625092373E+04  0.18047053392E+03 0.  0.
        -24    2    3    3    0    0 -0.37471173886E+02  0.11512256599E+01 -0.14024532900E+04  0.14046333848E+04  0.68660765970E+02 0.  0.
          6    2    1    2  501    0  0.11366376154E+03 -0.16218158186E+01 -0.51578856973E+03  0.55586099872E+03  0.17326719323E+03 0.  0.
         24    2    5    5    0    0  0.12093793462E+03 -0.94743181472E+01 -0.24612751545E+03  0.28594666122E+03  0.80442479257E+02 0.  0.
          5    1    5    5  501    0 -0.72741730736E+01  0.78525023286E+01 -0.26966105429E+03  0.26991433750E+03  0.47000000000E+01 0. -1.
        -11    1    6    6    0    0  0.48654206650E+02 -0.19231576239E+02 -0.18015495612E+03  0.18759769072E+03  0.00000000000E+00 0.  1.
         12    1    6    6    0    0  0.72283727966E+02  0.97572580920E+01 -0.65972559330E+02  0.98348970501E+02  0.00000000000E+00 0. -1.
         -5    1    3    3    0  503 -0.76192587656E+02  0.47059015871E+00 -0.24631754593E+03  0.25787585250E+03  0.47000000000E+01 0.  1.
         11    1    4    4    0    0 -0.15228089113E+02  0.32523710919E+02 -0.89727557142E+03  0.89799395184E+03  0.00000000000E+00 0. -1.
        -12    1    4    4    0    0 -0.22243084773E+02 -0.31372485259E+02 -0.50517771861E+03  0.50663943296E+03  0.00000000000E+00 0.  1.
<mgrwt>
<rscale>  2 0.21175655E+03</rscale>
<asrwt>0</asrwt>
<pdfrwt beam="1">  1       21 0.41392948E-02 0.21328782E+03</pdfrwt>
<pdfrwt beam="2">  1       21 0.33714842E+00 0.21328782E+03</pdfrwt>
<totfact> 0.75180841E+03</totfact>
</mgrwt>
</event>
<event>
12    1  0.1074575E-001  0.1865495E+03  0.7546771E-02  0.1162437E+00
         21   -1    0    0  501  502  0.00000000000E+00  0.00000000000E+00  0.70683196107E+03  0.70683196107E+03  0.00000000000E+00 0. -1.
         21   -1    0    0  502  503 -0.00000000000E+00 -0.00000000000E+00 -0.10646884285E+03  0.10646884285E+03  0.00000000000E+00 0.  1.
         -6    2    1    2    0  503 -0.25660822172E+02  0.59943923488E+02 -0.16835794150E+01  0.18301441064E+03  0.17099616459E+03 0.  0.
        -24    2    3    3    0    0 -0.46005981140E+01  0.10440066716E+03  0.90286680443E+01  0.13244982480E+03  0.80875054469E+02 0.  0.
          6    2    1    2  501    0  0.25660822172E+02 -0.59943923488E+02  0.60204669763E+03  0.63028639329E+03  0.17478260691E+03 0.  0.
         24    2    5    5    0    0  0.47969658444E+02 -0.49845097394E+02  0.18612893578E+03  0.21362184585E+03  0.78769857346E+02 0.  0.
          5    1    5    5  501    0 -0.22308836271E+02 -0.10098826093E+02  0.41591776185E+03  0.41666454744E+03  0.47000000000E+01 0. -1.
        -11    1    6    6    0    0  0.36327821237E+02  0.13013661744E+02  0.49390633002E+02  0.62677752163E+02  0.00000000000E+00 0.  1.
         12    1    6    6    0    0  0.11641837207E+02 -0.62858759138E+02  0.13673830278E+03  0.15094409369E+03  0.00000000000E+00 0. -1.
         -5    1    3    3    0  503 -0.21060224058E+02 -0.44456743675E+02 -0.10712247459E+02  0.50564585840E+02  0.47000000000E+01 0.  1.
         11    1    4    4    0    0  0.11823696140E+02  0.61017778034E+01  0.27998297462E+02  0.30998970040E+02  0.00000000000E+00 0. -1.
        -12    1    4    4    0    0 -0.16424294254E+02  0.98298889359E+02 -0.18969629418E+02  0.10145085476E+03  0.00000000000E+00 0.  1.
<mgrwt>
<rscale>  2 0.18565740E+03</rscale>
<asrwt>0</asrwt>
<pdfrwt beam="1">  1       21 0.10874338E+00 0.18654949E+03</pdfrwt>
<pdfrwt beam="2">  1       21 0.16379822E-01 0.18654949E+03</pdfrwt>
<totfact> 0.22512012E+04</totfact>
</mgrwt>
</event>
<event>
12    1  0.1074575E-001  0.1946157E+03  0.7546771E-02  0.1159308E+00
         21   -1    0    0  503  502  0.00000000000E+00  0.00000000000E+00  0.32940112662E+03  0.32940112662E+03  0.00000000000E+00 0.  1.
         21   -1    0    0  501  503 -0.00000000000E+00 -0.00000000000E+00 -0.10347805477E+03  0.10347805477E+03  0.00000000000E+00 0.  1.
          6    2    1    2  501    0 -0.59731473332E+01 -0.10253882900E+02  0.13749096973E+03  0.23828353155E+03  0.19425358182E+03 0.  0.
         24    2    3    3    0    0  0.14726345046E+02  0.53999586374E+02  0.29309849937E+02  0.11068172131E+03  0.90876595239E+02 0.  0.
         -6    2    1    2    0  502  0.59731473332E+01  0.10253882900E+02  0.88432102126E+02  0.19459564983E+03  0.17293469763E+03 0.  0.
        -24    2    5    5    0    0 -0.23527318184E+02  0.54703262085E+02  0.15385942378E+02  0.10402050849E+03  0.83890150671E+02 0.  0.
          5    1    3    3  501    0 -0.20699492380E+02 -0.64253469274E+02  0.10818111979E+03  0.12760181024E+03  0.47000000000E+01 0. -1.
        -13    1    4    4    0    0  0.48895088442E+02  0.34320660853E+02  0.37331657224E+02  0.70443523948E+02  0.00000000000E+00 0.  1.
         14    1    4    4    0    0 -0.34168743396E+02  0.19678925521E+02 -0.80218072874E+01  0.40238197363E+02  0.00000000000E+00 0. -1.
         -5    1    5    5    0  502  0.29500465517E+02 -0.44449379185E+02  0.73046159748E+02  0.90575141344E+02  0.47000000000E+01 0.  1.
         13    1    6    6    0    0  0.31217342173E+02  0.13065098946E+02  0.85292714466E+01  0.34899394468E+02  0.00000000000E+00 0. -1.
        -14    1    6    6    0    0 -0.54744660357E+02  0.41638163139E+02  0.68566709316E+01  0.69121114020E+02  0.00000000000E+00 0.  1.
<mgrwt>
<rscale>  2 0.18906406E+03</rscale>
<asrwt>0</asrwt>
<pdfrwt beam="1">  1       21 0.50677096E-01 0.19461571E+03</pdfrwt>
<pdfrwt beam="2">  1       21 0.15919701E-01 0.19461571E+03</pdfrwt>
<totfact> 0.13029074E+05</totfact>
</mgrwt>
</event>
<event>
12    1  0.1074575E-001  0.1748685E+03  0.7546771E-02  0.1172981E+00
         21   -1    0    0  503  502  0.00000000000E+00  0.00000000000E+00  0.33465478373E+03  0.33465478373E+03  0.00000000000E+00 0. -1.
         21   -1    0    0  501  503 -0.00000000000E+00 -0.00000000000E+00 -0.94348503913E+02  0.94348503913E+02  0.00000000000E+00 0. -1.
          6    2    1    2  501    0 -0.91262709461E+01 -0.20904226187E+02  0.80395442464E+02  0.19204241476E+03  0.17290629370E+03 0.  0.
         24    2    3    3    0    0  0.62186216750E+01  0.41942717911E+02  0.60088274504E+02  0.12407422232E+03  0.99929720658E+02 0.  0.
         -6    2    1    2    0  502  0.91262709461E+01  0.20904226187E+02  0.15991083736E+03  0.23696087289E+03  0.17337446145E+03 0.  0.
        -24    2    5    5    0    0  0.33966951998E+02  0.74101102559E+02  0.91407140028E+02  0.14661811647E+03  0.80603223257E+02 0.  0.
          5    1    3    3  501    0 -0.15344892621E+02 -0.62846944098E+02  0.20307167960E+02  0.67968192433E+02  0.47000000000E+01 0. -1.
        -13    1    4    4    0    0  0.25938997797E+02  0.20613193298E+01  0.73203586827E+02  0.77690705805E+02  0.00000000000E+00 0.  1.
         14    1    4    4    0    0 -0.19720376122E+02  0.39881398581E+02 -0.13115312323E+02  0.46383516518E+02  0.00000000000E+00 0. -1.
         -5    1    5    5    0  502 -0.24840681051E+02 -0.53196876373E+02  0.68503697327E+02  0.90342756424E+02  0.47000000000E+01 0.  1.
         11    1    6    6    0    0  0.17657696056E+02  0.29904174738E+02 -0.88552344235E+01  0.35839490419E+02  0.00000000000E+00 0. -1.
        -12    1    6    6    0    0  0.16309255941E+02  0.44196927821E+02  0.10026237445E+03  0.11077862605E+03  0.00000000000E+00 0.  1.
<mgrwt>
<rscale>  2 0.17475231E+03</rscale>
<asrwt>0</asrwt>
<pdfrwt beam="1">  1       21 0.51485351E-01 0.17486846E+03</pdfrwt>
<pdfrwt beam="2">  1       21 0.14515155E-01 0.17486846E+03</pdfrwt>
<totfact> 0.15014033E+05</totfact>
</mgrwt>
</event>
<event>
12    1  0.1074575E-001  0.2210676E+03  0.7546771E-02  0.1133643E+00
         21   -1    0    0  503  502  0.00000000000E+00  0.00000000000E+00  0.19637224013E+03  0.19637224013E+03  0.00000000000E+00 0.  1.
         21   -1    0    0  501  503 -0.00000000000E+00 -0.00000000000E+00 -0.48729386470E+03  0.48729386470E+03  0.00000000000E+00 0. -1.
          6    2    1    2  501    0  0.10656759954E+03  0.80949528952E+02 -0.38573462425E+03  0.44312424119E+03  0.17221618182E+03 0.  0.
         24    2    3    3    0    0  0.66492053215E+02 -0.88326258309E+01 -0.13433817721E+03  0.17314433765E+03  0.86214890748E+02 0.  0.
         -6    2    1    2    0  502 -0.10656759954E+03 -0.80949528952E+02  0.94812999677E+02  0.24054186364E+03  0.17595852849E+03 0.  0.
        -24    2    5    5    0    0 -0.22038118492E+02 -0.52048460721E+02 -0.13693852640E+02  0.99913516889E+02  0.81243266348E+02 0.  0.
          5    1    3    3  501    0  0.40075546326E+02  0.89782154783E+02 -0.25139644704E+03  0.26997990354E+03  0.47000000000E+01 0. -1.
        -11    1    4    4    0    0 -0.18236098273E+02 -0.83975614537E+01 -0.93577312567E+01  0.22150427826E+02  0.00000000000E+00 0.  1.
         12    1    4    4    0    0  0.84728151488E+02 -0.43506437717E+00 -0.12498044595E+03  0.15099390983E+03  0.00000000000E+00 0. -1.
         -5    1    5    5    0  502 -0.84529481048E+02 -0.28901068231E+02  0.10850685232E+03  0.14062834675E+03  0.47000000000E+01 0.  1.
         13    1    6    6    0    0 -0.34356623899E+02  0.12004624629E+00 -0.28126353759E+02  0.44401394039E+02  0.00000000000E+00 0. -1.
        -14    1    6    6    0    0  0.12318505407E+02 -0.52168506968E+02  0.14432501120E+02  0.55512122850E+02  0.00000000000E+00 0.  1.
<mgrwt>
<rscale>  2 0.22032210E+03</rscale>
<asrwt>0</asrwt>
<pdfrwt beam="1">  1       21 0.30211114E-01 0.22106760E+03</pdfrwt>
<pdfrwt beam="2">  1       21 0.74968286E-01 0.22106760E+03</pdfrwt>
<totfact> 0.16440871E+04</totfact>
</mgrwt>
</event>
<event>
12    1  0.1074575E-001  0.1979704E+03  0.7546771E-02  0.1152185E+00
         21   -1    0    0  503  502  0.00000000000E+00  0.00000000000E+00  0.73785780658E+02  0.73785780658E+02  0.00000000000E+00 0. -1.
         21   -1    0    0  501  503 -0.00000000000E+00 -0.00000000000E+00 -0.55264990899E+03  0.55264990899E+03  0.00000000000E+00 0.  1.
          6    2    1    2  501    0  0.88638644936E+02 -0.41770594852E+01 -0.31486035532E+03  0.37192652568E+03  0.17696903670E+03 0.  0.
         24    2    3    3    0    0  0.78163921119E+02  0.55869020491E+02 -0.14472789691E+03  0.19114379706E+03  0.79742341309E+02 0.  0.
         -6    2    1    2    0  502 -0.88638644936E+02  0.41770594852E+01 -0.16400377301E+03  0.25450916397E+03  0.17321495253E+03 0.  0.
        -24    2    5    5    0    0 -0.11269366303E+03  0.33965555392E+02 -0.16185962516E+03  0.21587387241E+03  0.80928795206E+02 0.  0.
          5    1    3    3  501    0  0.10474723818E+02 -0.60046079976E+02 -0.17013245842E+03  0.18078272862E+03  0.47000000000E+01 0. -1.
        -13    1    4    4    0    0 -0.11339904666E+02  0.23997093152E+02 -0.52009528576E+02  0.58390452818E+02  0.00000000000E+00 0.  1.
         14    1    4    4    0    0  0.89503825785E+02  0.31871927339E+02 -0.92718368330E+02  0.13275334424E+03  0.00000000000E+00 0. -1.
         -5    1    5    5    0  502  0.24055018090E+02 -0.29788495907E+02 -0.21441478505E+01  0.38635291557E+02  0.47000000000E+01 0.  1.
         11    1    6    6    0    0 -0.10488164839E+03  0.10306336698E+02 -0.85987786407E+02  0.13601573496E+03  0.00000000000E+00 0. -1.
        -12    1    6    6    0    0 -0.78120146384E+01  0.23659218694E+02 -0.75871838752E+02  0.79858137454E+02  0.00000000000E+00 0.  1.
<mgrwt>
<rscale>  2 0.19712794E+03</rscale>
<asrwt>0</asrwt>
<pdfrwt beam="1">  1       21 0.11351658E-01 0.19797045E+03</pdfrwt>
<pdfrwt beam="2">  1       21 0.85023064E-01 0.19797045E+03</pdfrwt>
<totfact> 0.77413328E+04</totfact>
</mgrwt>
</event>
<event>
12    1  0.1074575E-001  0.1858457E+03  0.7546771E-02  0.1162490E+00
         21   -1    0    0  501  502  0.00000000000E+00  0.00000000000E+00  0.13518631025E+04  0.13518631025E+04  0.00000000000E+00 0. -1.
         21   -1    0    0  502  503 -0.00000000000E+00 -0.00000000000E+00 -0.60098996395E+02  0.60098996395E+02  0.00000000000E+00 0. -1.
         -6    2    1    2    0  503  0.54602163908E+02 -0.36688581668E+02  0.10883936664E+03  0.21452752073E+03  0.17276747694E+03 0.  0.
        -24    2    3    3    0    0  0.59216109271E+02 -0.56904193482E+02  0.12392677365E+02  0.11576511226E+03  0.80643337802E+02 0.  0.
          6    2    1    2  501    0 -0.54602163908E+02  0.36688581668E+02  0.11829247395E+04  0.11974345782E+04  0.17381363996E+03 0.  0.
         24    2    5    5    0    0  0.35743776541E+01 -0.39668984260E+02  0.56311946972E+03  0.57022197445E+03  0.80393771411E+02 0.  0.
          5    1    5    5  501    0 -0.58176541562E+02  0.76357565928E+02  0.61980526977E+03  0.62721260374E+03  0.47000000000E+01 0. -1.
        -13    1    6    6    0    0 -0.37662141944E+02 -0.14703707277E+02  0.21344131300E+03  0.21723680637E+03  0.00000000000E+00 0.  1.
         14    1    6    6    0    0  0.41236519599E+02 -0.24965276984E+02  0.34967815672E+03  0.35298516809E+03  0.00000000000E+00 0. -1.
         -5    1    3    3    0  503 -0.46139453628E+01  0.20215611814E+02  0.96446689278E+02  0.98762408464E+02  0.47000000000E+01 0.  1.
         13    1    4    4    0    0  0.36997210738E+02  0.43892037784E+01 -0.20731882380E+02  0.42636482726E+02  0.00000000000E+00 0. -1.
        -14    1    4    4    0    0  0.22218898532E+02 -0.61293397260E+02  0.33124559744E+02  0.73128629537E+02  0.00000000000E+00 0.  1.
<mgrwt>
<rscale>  2 0.18560072E+03</rscale>
<asrwt>0</asrwt>
<pdfrwt beam="1">  1       21 0.20797892E+00 0.18584571E+03</pdfrwt>
<pdfrwt beam="2">  1       21 0.92460005E-02 0.18584571E+03</pdfrwt>
<totfact> 0.11196083E+04</totfact>
</mgrwt>
</event>
<event>
12    1  0.1074575E-001  0.1897704E+03  0.7546771E-02  0.1159171E+00
         21   -1    0    0  503  502  0.00000000000E+00  0.00000000000E+00  0.37622533293E+03  0.37622533293E+03  0.00000000000E+00 0. -1.
         21   -1    0    0  501  503 -0.00000000000E+00 -0.00000000000E+00 -0.99120783457E+02  0.99120783457E+02  0.00000000000E+00 0. -1.
          6    2    1    2  501    0  0.12324315629E+02 -0.72748555002E+02  0.87076062593E+02  0.20678766892E+03  0.17243740409E+03 0.  0.
         24    2    3    3    0    0 -0.12971751092E+02  0.81339065893E+01 -0.64325044113E+01  0.80503047179E+02  0.78771420765E+02 0.  0.
         -6    2    1    2    0  502 -0.12324315629E+02  0.72748555002E+02  0.19002848688E+03  0.26855844746E+03  0.17483870530E+03 0.  0.
        -24    2    5    5    0    0  0.16740654079E+02 -0.25750347017E+02  0.85336201346E+02  0.12182954502E+03  0.81343966642E+02 0.  0.
          5    1    3    3  501    0  0.25296066721E+02 -0.80882461592E+02  0.93508567005E+02  0.12628462174E+03  0.47000000000E+01 0. -1.
        -13    1    4    4    0    0 -0.42255630873E+01  0.33018425696E+02  0.23394392023E+02  0.40686231049E+02  0.00000000000E+00 0.  1.
         14    1    4    4    0    0 -0.87461880051E+01 -0.24884519107E+02 -0.29826896435E+02  0.39816816130E+02  0.00000000000E+00 0. -1.
         -5    1    5    5    0  502 -0.29064969707E+02  0.98498902019E+02  0.10469228553E+03  0.14672890244E+03  0.47000000000E+01 0.  1.
         13    1    6    6    0    0  0.20291719060E+02 -0.13100408817E+02  0.99570609382E+02  0.10245819063E+03  0.00000000000E+00 0. -1.
        -14    1    6    6    0    0 -0.35510649815E+01 -0.12649938199E+02 -0.14234408035E+02  0.19371354394E+02  0.00000000000E+00 0.  1.
<mgrwt>
<rscale>  2 0.18921549E+03</rscale>
<asrwt>0</asrwt>
<pdfrwt beam="1">  1       21 0.57880819E-01 0.18977042E+03</pdfrwt>
<pdfrwt beam="2">  1       21 0.15249352E-01 0.18977042E+03</pdfrwt>
<totfact> 0.10665085E+05</totfact>
</mgrwt>
</event>
<event>
12    1  0.1074575E-001  0.1979342E+03  0.7546771E-02  0.1155285E+00
         21   -1    0    0  503  502  0.00000000000E+00  0.00000000000E+00  0.11728612778E+03  0.11728612778E+03  0.00000000000E+00 0.  1.
         21   -1    0    0  501  503 -0.00000000000E+00 -0.00000000000E+00 -0.30611187093E+03  0.30611187093E+03  0.00000000000E+00 0.  1.
          6    2    1    2  501    0  0.39216871391E+02  0.28783180462E+02 -0.90182855767E+02  0.20224561112E+03  0.17436715650E+03 0.  0.
         24    2    3    3    0    0  0.18148077484E+02  0.72150624954E+01  0.20907412980E+02  0.87040508809E+02  0.82204138661E+02 0.  0.
         -6    2    1    2    0  502 -0.39216871391E+02 -0.28783180462E+02 -0.98642887387E+02  0.22115238759E+03  0.19186329723E+03 0.  0.
        -24    2    5    5    0    0 -0.21779556718E+02 -0.96243594386E+02 -0.59205539810E+02  0.14095038154E+03  0.81391249904E+02 0.  0.
          5    1    3    3  501    0  0.21068793907E+02  0.21568117966E+02 -0.11109026875E+03  0.11520510232E+03  0.47000000000E+01 0. -1.
        -13    1    4    4    0    0  0.36774714383E+02  0.18643608988E+02 -0.15936359511E+02  0.44203295449E+02  0.00000000000E+00 0.  1.
         14    1    4    4    0    0 -0.18626636899E+02 -0.11428546493E+02  0.36843772491E+02  0.42837213360E+02  0.00000000000E+00 0. -1.
         -5    1    5    5    0  502 -0.17437314673E+02  0.67460413924E+02 -0.39437347577E+02  0.80202006045E+02  0.47000000000E+01 0.  1.
         13    1    6    6    0    0  0.25377633020E+02 -0.68738278331E+02 -0.35816442456E+02  0.81558523257E+02  0.00000000000E+00 0. -1.
        -14    1    6    6    0    0 -0.47157189739E+02 -0.27505316055E+02 -0.23389097354E+02  0.59391858284E+02  0.00000000000E+00 0.  1.
<mgrwt>
<rscale>  2 0.19356454E+03</rscale>
<asrwt>0</asrwt>
<pdfrwt beam="1">  1       21 0.18044020E-01 0.19793423E+03</pdfrwt>
<pdfrwt beam="2">  1       21 0.47094133E-01 0.19793423E+03</pdfrwt>
<totfact> 0.12035240E+05</totfact>
</mgrwt>
</event>
<event>
12    1  0.1074575E-001  0.2549116E+03  0.7546771E-02  0.1110313E+00
         21   -1    0    0  501  502  0.00000000000E+00  0.00000000000E+00  0.18800166118E+03  0.18800166118E+03  0.00000000000E+00 0. -1.
         21   -1    0    0  502  503 -0.00000000000E+00 -0.00000000000E+00 -0.42860839974E+03  0.42860839974E+03  0.00000000000E+00 0. -1.
         -6    2    1    2    0  503 -0.18648886630E+03  0.33836470259E+01 -0.25657304314E+03  0.36167613618E+03  0.17375371851E+03 0.  0.
        -24    2    3    3    0    0 -0.76868981641E+02  0.54849278709E+02 -0.17991758953E+03  0.21827676754E+03  0.79731577890E+02 0.  0.
          6    2    1    2  501    0  0.18648886630E+03 -0.33836470259E+01  0.15966304578E+02  0.25493392474E+03  0.17305154372E+03 0.  0.
         24    2    5    5    0    0  0.58455211437E+02  0.59004690181E+02 -0.17079041055E+02  0.10864993292E+03  0.67930472337E+02 0.  0.
          5    1    5    5  501    0  0.12803365486E+03 -0.62388337207E+02  0.33045345633E+02  0.14628399183E+03  0.47000000000E+01 0. -1.
        -11    1    6    6    0    0  0.61975713333E+02  0.42596967492E+02 -0.35986286052E+02  0.83369679540E+02  0.00000000000E+00 0.  1.
         12    1    6    6    0    0 -0.35205018966E+01  0.16407722688E+02  0.18907244997E+02  0.25280253377E+02  0.00000000000E+00 0. -1.
         -5    1    3    3    0  503 -0.10961988466E+03 -0.51465631683E+02 -0.76655453603E+02  0.14339936863E+03  0.47000000000E+01 0.  1.
         11    1    4    4    0    0  0.80577119551E+00  0.45260393453E+02 -0.62737943612E+02  0.77364087608E+02  0.00000000000E+00 0. -1.
        -12    1    4    4    0    0 -0.77674752836E+02  0.95888852557E+01 -0.11717964592E+03  0.14091267994E+03  0.00000000000E+00 0.  1.
<mgrwt>
<rscale>  2 0.25479195E+03</rscale>
<asrwt>0</asrwt>
<pdfrwt beam="1">  1       21 0.28923332E-01 0.25491156E+03</pdfrwt>
<pdfrwt beam="2">  1       21 0.65939754E-01 0.25491156E+03</pdfrwt>
<totfact> 0.23390862E+04</totfact>
</mgrwt>
</event>
<event>
12    1  0.1074575E-001  0.1738459E+03  0.7546771E-02  0.1174292E+00
         21   -1    0    0  501  502  0.00000000000E+00  0.00000000000E+00  0.70820329377E+02  0.70820329377E+02  0.00000000000E+00 0.  1.
         21   -1    0    0  502  503 -0.00000000000E+00 -0.00000000000E+00 -0.61699001023E+03  0.61699001023E+03  0.00000000000E+00 0.  1.
         -6    2    1    2    0  503  0.84472619793E+01  0.12017913679E+01 -0.79374176826E+02  0.18969343435E+03  0.17207712965E+03 0.  0.
        -24    2    3    3    0    0  0.48167743009E+02 -0.45910854086E+02 -0.73584617783E+02  0.12762148441E+03  0.80278324094E+02 0.  0.
          6    2    1    2  501    0 -0.84472619793E+01 -0.12017913679E+01 -0.46679550403E+03  0.49811690526E+03  0.17363642530E+03 0.  0.
         24    2    5    5    0    0  0.50257376714E+02  0.15143969097E+02 -0.20243057036E+03  0.22677887505E+03  0.87723307259E+02 0.  0.
          5    1    5    5  501    0 -0.58704638693E+02 -0.16345760465E+02 -0.26436493366E+03  0.27133803021E+03  0.47000000000E+01 0. -1.
        -13    1    6    6    0    0 -0.19999814794E+02  0.18018998963E+02 -0.28656880179E+02  0.39317854685E+02  0.00000000000E+00 0.  1.
         14    1    6    6    0    0  0.70257191508E+02 -0.28750298660E+01 -0.17377369019E+03  0.18746102036E+03  0.00000000000E+00 0. -1.
         -5    1    3    3    0  503 -0.39720481030E+02  0.47112645453E+02 -0.57895590424E+01  0.62071949935E+02  0.47000000000E+01 0.  1.
         11    1    4    4    0    0  0.37408219063E+02  0.16558407856E+01 -0.69168345068E+02  0.78653522627E+02  0.00000000000E+00 0. -1.
        -12    1    4    4    0    0  0.10759523947E+02 -0.47566694871E+02 -0.44162727151E+01  0.48967961783E+02  0.00000000000E+00 0.  1.
<mgrwt>
<rscale>  2 0.17345527E+03</rscale>
<asrwt>0</asrwt>
<pdfrwt beam="1">  1       21 0.10895436E-01 0.17384593E+03</pdfrwt>
<pdfrwt beam="2">  1       21 0.94921538E-01 0.17384593E+03</pdfrwt>
<totfact> 0.65267968E+04</totfact>
</mgrwt>
</event>
<event>
12    1  0.1074575E-001  0.2131112E+03  0.7546771E-02  0.1139557E+00
         21   -1    0    0  503  502  0.00000000000E+00  0.00000000000E+00  0.91650484260E+03  0.91650484260E+03  0.00000000000E+00 0.  1.
         21   -1    0    0  501  503 -0.00000000000E+00 -0.00000000000E+00 -0.50841853194E+02  0.50841853194E+02  0.00000000000E+00 0.  1.
          6    2    1    2  501    0 -0.84018313527E+02  0.90613205839E+02  0.52603011295E+03  0.56755974464E+03  0.17362763008E+03 0.  0.
         24    2    3    3    0    0 -0.13755546179E+02 -0.73684327656E+01  0.14799388274E+03  0.17073391467E+03  0.83692122921E+02 0.  0.
         -6    2    1    2    0  502  0.84018313527E+02 -0.90613205839E+02  0.33963287646E+03  0.39978695116E+03  0.17090724228E+03 0.  0.
        -24    2    5    5    0    0  0.22014354984E+02 -0.11255882865E+03  0.26641353437E+03  0.30125135712E+03  0.81376207458E+02 0.  0.
          5    1    3    3  501    0 -0.70262767348E+02  0.97981638605E+02  0.37803623021E+03  0.39682582997E+03  0.47000000000E+01 0. -1.
        -13    1    4    4    0    0 -0.47211243372E+02 -0.72799104992E+01  0.60658476805E+02  0.77209775325E+02  0.00000000000E+00 0.  1.
         14    1    4    4    0    0  0.33455697192E+02 -0.88522266341E-01  0.87335405936E+02  0.93524139348E+02  0.00000000000E+00 0. -1.
         -5    1    5    5    0  502  0.62003958543E+02  0.21945622811E+02  0.73219342093E+02  0.98535594037E+02  0.47000000000E+01 0.  1.
         11    1    6    6    0    0  0.44484964372E-01  0.98351474544E+01  0.35452618012E+01  0.10454711168E+02  0.00000000000E+00 0. -1.
        -12    1    6    6    0    0  0.21969870019E+02 -0.12239397610E+03  0.26286827256E+03  0.29079664595E+03  0.00000000000E+00 0.  1.
<mgrwt>
<rscale>  2 0.21255642E+03</rscale>
<asrwt>0</asrwt>
<pdfrwt beam="1">  1       21 0.14100073E+00 0.21311120E+03</pdfrwt>
<pdfrwt beam="2">  1       21 0.78218243E-02 0.21311120E+03</pdfrwt>
<totfact> 0.43338831E+04</totfact>
</mgrwt>
</event>
<event>
12    1  0.1074575E-001  0.1973526E+03  0.7546771E-02  0.1152499E+00
         21   -1    0    0  503  502  0.00000000000E+00  0.00000000000E+00  0.77007053919E+03  0.77007053919E+03  0.00000000000E+00 0. -1.
         21   -1    0    0  501  503 -0.00000000000E+00 -0.00000000000E+00 -0.99053356621E+02  0.99053356621E+02  0.00000000000E+00 0. -1.
          6    2    1    2  501    0  0.93643843553E+02  0.48546504164E+01  0.30644169673E+02  0.19971760307E+03  0.17365286861E+03 0.  0.
         24    2    3    3    0    0  0.13320838049E+03  0.11802072471E+02  0.17335001178E+02  0.15714010641E+03  0.80676819653E+02 0.  0.
         -6    2    1    2    0  502 -0.93643843553E+02 -0.48546504164E+01  0.64037301289E+03  0.66940629274E+03  0.17098085286E+03 0.  0.
        -24    2    5    5    0    0 -0.13311806606E+02 -0.29844395016E+01  0.13013528836E+03  0.15285875438E+03  0.79022113605E+02 0.  0.
          5    1    3    3  501    0 -0.39564536936E+02 -0.69474220544E+01  0.13309168495E+02  0.42577496664E+02  0.47000000000E+01 0. -1.
        -13    1    4    4    0    0  0.75271563958E+02 -0.32858558093E+02  0.17561709194E+02  0.83987539615E+02  0.00000000000E+00 0.  1.
         14    1    4    4    0    0  0.57936816530E+02  0.44660630564E+02 -0.22670801633E+00  0.73152566794E+02  0.00000000000E+00 0. -1.
         -5    1    5    5    0  502 -0.80332036947E+02 -0.18702109148E+01  0.51023772453E+03  0.51654753836E+03  0.47000000000E+01 0.  1.
         13    1    6    6    0    0 -0.44076966580E+02 -0.11473659951E+02  0.56265334646E+02  0.72389306796E+02  0.00000000000E+00 0. -1.
        -14    1    6    6    0    0  0.30765159974E+02  0.84892204493E+01  0.73869953717E+02  0.80469447582E+02  0.00000000000E+00 0.  1.
<mgrwt>
<rscale>  2 0.19676323E+03</rscale>
<asrwt>0</asrwt>
<pdfrwt beam="1">  1       21 0.11847239E+00 0.19735262E+03</pdfrwt>
<pdfrwt beam="2">  1       21 0.15238978E-01 0.19735262E+03</pdfrwt>
<totfact> 0.20715618E+04</totfact>
</mgrwt>
</event>
<event>
12    1  0.1074575E-001  0.1955518E+03  0.7546771E-02  0.1153651E+00
         21   -1    0    0  503  502  0.00000000000E+00  0.00000000000E+00  0.34136321040E+03  0.34136321040E+03  0.00000000000E+00 0. -1.
         21   -1    0    0  501  503 -0.00000000000E+00 -0.00000000000E+00 -0.12316981295E+03  0.12316981295E+03  0.00000000000E+00 0.  1.
          6    2    1    2  501    0  0.86788925258E+02  0.21642758270E+02  0.38246800941E+02  0.19878639882E+03  0.17335653446E+03 0.  0.
         24    2    3    3    0    0  0.58162458180E+02  0.81447616172E+02  0.27417580249E+02  0.13144059222E+03  0.80674158531E+02 0.  0.
         -6    2    1    2    0  502 -0.86788925258E+02 -0.21642758270E+02  0.17994659651E+03  0.26574662453E+03  0.17389584331E+03 0.  0.
        -24    2    5    5    0    0 -0.78234228020E+02 -0.65528087699E+02  0.69321011409E+02  0.14633466926E+03  0.78701385578E+02 0.  0.
          5    1    3    3  501    0  0.28626467078E+02 -0.59804857902E+02  0.10829220693E+02  0.67345806602E+02  0.47000000000E+01 0. -1.
        -11    1    4    4    0    0  0.68695864556E+02  0.40945130390E+02  0.37598729358E+02  0.88370187049E+02  0.00000000000E+00 0.  1.
         12    1    4    4    0    0 -0.10533406376E+02  0.40502485782E+02 -0.10181149109E+02  0.43070405171E+02  0.00000000000E+00 0. -1.
         -5    1    5    5    0  502 -0.85546972378E+01  0.43885329429E+02  0.11062558510E+03  0.11941195528E+03  0.47000000000E+01 0.  1.
         11    1    6    6    0    0 -0.43362692694E+02 -0.75869078501E+02  0.66577145151E+02  0.10985880232E+03  0.00000000000E+00 0. -1.
        -12    1    6    6    0    0 -0.34871535326E+02  0.10340990802E+02  0.27438662579E+01  0.36475866937E+02  0.00000000000E+00 0.  1.
<mgrwt>
<rscale>  2 0.19543179E+03</rscale>
<asrwt>0</asrwt>
<pdfrwt beam="1">  1       21 0.52517417E-01 0.19555176E+03</pdfrwt>
<pdfrwt beam="2">  1       21 0.18949202E-01 0.19555176E+03</pdfrwt>
<totfact> 0.87655533E+04</totfact>
</mgrwt>
</event>
<event>
11    1  0.1074575E-001  0.3306122E+03  0.7546771E-02  0.1070959E+00
         21   -1    0    0  501  502  0.00000000000E+00  0.00000000000E+00  0.18646470656E+04  0.18646470656E+04  0.00000000000E+00 0.  1.
         21   -1    0    0  502  503 -0.00000000000E+00 -0.00000000000E+00 -0.28562552539E+03  0.28562552539E+03  0.00000000000E+00 0. -1.
         -6    2    1    2    0  503  0.24540292435E+03 -0.13619334668E+03 -0.16907867681E+03  0.37133815063E+03  0.17473751802E+03 0.  0.
          6    2    1    2  501    0 -0.24540292435E+03  0.13619334668E+03  0.17481002171E+04  0.17789344404E+04  0.17315354864E+03 0.  0.
         24    2    4    4    0    0 -0.24788804741E+03  0.84245306590E+02  0.13571063458E+04  0.13844688879E+04  0.80440736997E+02 0.  0.
          5    1    4    4  501    0  0.24851230605E+01  0.51948040092E+02  0.39099387130E+03  0.39446555249E+03  0.47000000000E+01 0. -1.
        -13    1    5    5    0    0 -0.26268889085E+02  0.39670662137E+02  0.25941770303E+03  0.26374487789E+03  0.00000000000E+00 0.  1.
         14    1    5    5    0    0 -0.22161915832E+03  0.44574644454E+02  0.10976886427E+04  0.11207240100E+04  0.00000000000E+00 0. -1.
         -5    1    3    3    0  503  0.11680337585E+03 -0.85999767937E+02 -0.36089787572E+02  0.14954447988E+03  0.47000000000E+01 0.  1.
         11    1    3    3    0    0  0.10475211509E+03 -0.55793979714E+02 -0.15051111370E+03  0.19167568739E+03  0.00000000000E+00 0. -1.
        -12    1    3    3    0    0  0.23847433415E+02  0.56004009688E+01  0.17522224471E+02  0.30117983364E+02  0.00000000000E+00 0.  1.
<mgrwt>
<rscale>  2 0.33040339E+03</rscale>
<asrwt>0</asrwt>
<pdfrwt beam="1">  1       21 0.28686877E+00 0.33061219E+03</pdfrwt>
<pdfrwt beam="2">  1       21 0.43942390E-01 0.33061219E+03</pdfrwt>
<totfact> 0.17257877E+02</totfact>
</mgrwt>
</event>
<event>
12    1  0.1074575E-001  0.2122736E+03  0.7546771E-02  0.1140024E+00
         21   -1    0    0  503  502  0.00000000000E+00  0.00000000000E+00  0.70713078461E+02  0.70713078461E+02  0.00000000000E+00 0. -1.
         21   -1    0    0  501  503 -0.00000000000E+00 -0.00000000000E+00 -0.64506612947E+03  0.64506612947E+03  0.00000000000E+00 0.  1.
          6    2    1    2  501    0  0.22350448550E+02 -0.11958971087E+03 -0.33434835040E+03  0.39536957488E+03  0.17241531204E+03 0.  0.
         24    2    3    3    0    0  0.62682547569E+02 -0.13272493909E+03 -0.26429709016E+03  0.31334225325E+03  0.82373567247E+02 0.  0.
         -6    2    1    2    0  502 -0.22350448550E+02  0.11958971087E+03 -0.24000470061E+03  0.32040963306E+03  0.17395066871E+03 0.  0.
        -24    2    5    5    0    0  0.45160433291E+02  0.10175722947E+03 -0.12769162402E+03  0.18807659209E+03  0.81692442492E+02 0.  0.
          5    1    3    3  501    0 -0.40332099019E+02  0.13135228212E+02 -0.70051260243E+02  0.82027321626E+02  0.47000000000E+01 0. -1.
        -13    1    4    4    0    0  0.33475307969E+02 -0.25440726104E+02 -0.14182633190E+03  0.14792746604E+03  0.00000000000E+00 0.  1.
         14    1    4    4    0    0  0.29207239600E+02 -0.10728421298E+03 -0.12247075826E+03  0.16541478721E+03  0.00000000000E+00 0. -1.
         -5    1    5    5    0  502 -0.67510881842E+02  0.17832481399E+02 -0.11231307659E+03  0.13233304097E+03  0.47000000000E+01 0.  1.
         11    1    6    6    0    0  0.35143194052E+02  0.10373301854E+03 -0.71116844816E+02  0.13058785870E+03  0.00000000000E+00 0. -1.
        -12    1    6    6    0    0  0.10017239239E+02 -0.19757890624E+01 -0.56574779206E+02  0.57488733388E+02  0.00000000000E+00 0.  1.
<mgrwt>
<rscale>  2 0.21195881E+03</rscale>
<asrwt>0</asrwt>
<pdfrwt beam="1">  1       21 0.10878936E-01 0.21227359E+03</pdfrwt>
<pdfrwt beam="2">  1       21 0.99240938E-01 0.21227359E+03</pdfrwt>
<totfact> 0.57867575E+04</totfact>
</mgrwt>
</event>
<event>
12    1  0.1074575E-001  0.2121383E+03  0.7546771E-02  0.1140101E+00
         21   -1    0    0  501  502  0.00000000000E+00  0.00000000000E+00  0.83797809147E+03  0.83797809147E+03  0.00000000000E+00 0. -1.
         21   -1    0    0  502  503 -0.00000000000E+00 -0.00000000000E+00 -0.20589782217E+03  0.20589782217E+03  0.00000000000E+00 0. -1.
         -6    2    1    2    0  503 -0.11883961464E+03  0.23711918502E+02 -0.13289461572E+03  0.25032702673E+03  0.17411930490E+03 0.  0.
        -24    2    3    3    0    0 -0.86013031286E+02  0.19890995250E+01 -0.16268843042E+03  0.20073643455E+03  0.80158547220E+02 0.  0.
          6    2    1    2  501    0  0.11883961464E+03 -0.23711918502E+02  0.76497488503E+03  0.79354888690E+03  0.17276617751E+03 0.  0.
         24    2    5    5    0    0  0.80848000235E+02 -0.10634362279E+01  0.22959473185E+03  0.25632424587E+03  0.80317171819E+02 0.  0.
          5    1    5    5  501    0  0.37991614408E+02 -0.22648482274E+02  0.53538015318E+03  0.53722464103E+03  0.47000000000E+01 0. -1.
        -13    1    6    6    0    0  0.13763708043E+02 -0.30789441916E+02  0.11833849254E+03  0.12305051080E+03  0.00000000000E+00 0.  1.
         14    1    6    6    0    0  0.67084292191E+02  0.29726005688E+02  0.11125623932E+03  0.13327373507E+03  0.00000000000E+00 0. -1.
         -5    1    3    3    0  503 -0.32826583357E+02  0.21722818977E+02  0.29793814701E+02  0.49590592188E+02  0.47000000000E+01 0.  1.
         13    1    4    4    0    0 -0.15376494225E+01  0.27548700913E+02 -0.25256291024E+02  0.37405554721E+02  0.00000000000E+00 0. -1.
        -14    1    4    4    0    0 -0.84475381863E+02 -0.25559601388E+02 -0.13743213940E+03  0.16333087982E+03  0.00000000000E+00 0.  1.
<mgrwt>
<rscale>  2 0.21186041E+03</rscale>
<asrwt>0</asrwt>
<pdfrwt beam="1">  1       21 0.12891970E+00 0.21213826E+03</pdfrwt>
<pdfrwt beam="2">  1       21 0.31676588E-01 0.21213826E+03</pdfrwt>
<totfact> 0.41624615E+03</totfact>
</mgrwt>
</event>
<event>
12    1  0.1074575E-001  0.2208991E+03  0.7546771E-02  0.1133227E+00
         21   -1    0    0  503  502  0.00000000000E+00  0.00000000000E+00  0.80643984642E+03  0.80643984642E+03  0.00000000000E+00 0.  1.
         21   -1    0    0  501  503 -0.00000000000E+00 -0.00000000000E+00 -0.15452174689E+03  0.15452174689E+03  0.00000000000E+00 0.  1.
          6    2    1    2  501    0 -0.11569911236E+03  0.73616047589E+02 -0.48837846980E+02  0.22623337228E+03  0.17317851014E+03 0.  0.
         24    2    3    3    0    0 -0.64496030711E+01  0.52927024204E+02  0.15320186145E+02  0.97773907149E+02  0.80511872074E+02 0.  0.
         -6    2    1    2    0  502  0.11569911236E+03 -0.73616047589E+02  0.70075594650E+03  0.73472822103E+03  0.17309262016E+03 0.  0.
        -24    2    5    5    0    0  0.13235031034E+03 -0.35153805947E+02  0.38852597301E+03  0.41966274724E+03  0.80074933646E+02 0.  0.
          5    1    3    3  501    0 -0.10924950928E+03  0.20689023385E+02 -0.64158033126E+02  0.12845946513E+03  0.47000000000E+01 0. -1.
        -11    1    4    4    0    0 -0.18895173387E+02  0.36109735355E+02 -0.28149757359E+02  0.49531297218E+02  0.00000000000E+00 0.  1.
         12    1    4    4    0    0  0.12445570316E+02  0.16817288849E+02  0.43469943504E+02  0.48242609931E+02  0.00000000000E+00 0. -1.
         -5    1    5    5    0  502 -0.16651197982E+02 -0.38462241642E+02  0.31222997350E+03  0.31506547379E+03  0.47000000000E+01 0.  1.
         13    1    6    6    0    0  0.93762864917E+02 -0.38065160792E+01  0.15740143854E+03  0.18325167736E+03  0.00000000000E+00 0. -1.
        -14    1    6    6    0    0  0.38587445420E+02 -0.31347289868E+02  0.23112453447E+03  0.23641106987E+03  0.00000000000E+00 0.  1.
<mgrwt>
<rscale>  2 0.22088225E+03</rscale>
<asrwt>0</asrwt>
<pdfrwt beam="1">  1       21 0.12406767E+00 0.22089908E+03</pdfrwt>
<pdfrwt beam="2">  1       21 0.23772577E-01 0.22089908E+03</pdfrwt>
<totfact> 0.79379032E+03</totfact>
</mgrwt>
</event>
<event>
12    1  0.1074575E-001  0.2119464E+03  0.7546771E-02  0.1140098E+00
         21   -1    0    0  501  502  0.00000000000E+00  0.00000000000E+00  0.25552606092E+03  0.25552606092E+03  0.00000000000E+00 0. -1.
         21   -1    0    0  502  503 -0.00000000000E+00 -0.00000000000E+00 -0.17604165967E+03  0.17604165967E+03  0.00000000000E+00 0. -1.
         -6    2    1    2    0  503  0.11924277718E+03 -0.28165259787E+02  0.28113330050E+02  0.21380282770E+03  0.17294267270E+03 0.  0.
        -24    2    3    3    0    0  0.94005942354E+02  0.50902820621E+01 -0.37969834271E+02  0.13549635605E+03  0.89747011201E+02 0.  0.
          6    2    1    2  501    0 -0.11924277718E+03  0.28165259787E+02  0.51371071192E+02  0.21776489289E+03  0.17254112510E+03 0.  0.
         24    2    5    5    0    0 -0.28954802553E+01  0.29977736232E+02 -0.84488402832E+01  0.86843197277E+02  0.81014255139E+02 0.  0.
          5    1    5    5  501    0 -0.11634729693E+03 -0.18124764457E+01  0.59819911475E+02  0.13092169561E+03  0.47000000000E+01 0. -1.
        -11    1    6    6    0    0  0.30789548139E+02  0.82461749694E+01 -0.27832533597E+02  0.42316020639E+02  0.00000000000E+00 0.  1.
         12    1    6    6    0    0 -0.33685028395E+02  0.21731561263E+02  0.19383693314E+02  0.44527176638E+02  0.00000000000E+00 0. -1.
         -5    1    3    3    0  503  0.25236834827E+02 -0.33255541849E+02  0.66083164322E+02  0.78306471651E+02  0.47000000000E+01 0.  1.
         13    1    4    4    0    0  0.19829735279E+02  0.42560495408E+02 -0.14557977346E+02  0.49158405944E+02  0.00000000000E+00 0. -1.
        -14    1    4    4    0    0  0.74176207075E+02 -0.37470213345E+02 -0.23411856925E+02  0.86337950109E+02  0.00000000000E+00 0.  1.
<mgrwt>
<rscale>  2 0.21186450E+03</rscale>
<asrwt>0</asrwt>
<pdfrwt beam="1">  1       21 0.39311702E-01 0.21194643E+03</pdfrwt>
<pdfrwt beam="2">  1       21 0.27083332E-01 0.21194643E+03</pdfrwt>
<totfact> 0.80386808E+04</totfact>
</mgrwt>
</event>
<event>
12    1  0.1074575E-001  0.1756915E+03  0.7546771E-02  0.1172092E+00
         21   -1    0    0  501  502  0.00000000000E+00  0.00000000000E+00  0.68510041539E+02  0.68510041539E+02  0.00000000000E+00 0.  1.
         21   -1    0    0  502  503 -0.00000000000E+00 -0.00000000000E+00 -0.66075159359E+03  0.66075159359E+03  0.00000000000E+00 0.  1.
         -6    2    1    2    0  503 -0.58059345156E+01  0.28700182161E+02 -0.50216425828E+03  0.53201169979E+03  0.17323422610E+03 0.  0.
        -24    2    3    3    0    0  0.60149123630E+02  0.58368870637E+01 -0.22029814685E+03  0.24159235689E+03  0.78635914695E+02 0.  0.
          6    2    1    2  501    0  0.58059345156E+01 -0.28700182161E+02 -0.90077293772E+02  0.19724993534E+03  0.17302083344E+03 0.  0.
         24    2    5    5    0    0  0.25381386831E+02 -0.45189847848E+01  0.15530562899E+02  0.87054481571E+02  0.81686280101E+02 0.  0.
          5    1    5    5  501    0 -0.19575452315E+02 -0.24181197376E+02 -0.10560785667E+03  0.11019545376E+03  0.47000000000E+01 0. -1.
        -13    1    6    6    0    0 -0.94107773972E+01 -0.27751732195E+02 -0.17162047768E+02  0.33959641557E+02  0.00000000000E+00 0.  1.
         14    1    6    6    0    0  0.34792164228E+02  0.23232747411E+02  0.32692610667E+02  0.53094840014E+02  0.00000000000E+00 0. -1.
         -5    1    3    3    0  503 -0.65955058146E+02  0.22863295097E+02 -0.28186611143E+03  0.29041934290E+03  0.47000000000E+01 0.  1.
         11    1    4    4    0    0  0.58447488474E+02 -0.16209363863E+02 -0.20719373200E+03  0.21588908024E+03  0.00000000000E+00 0. -1.
        -12    1    4    4    0    0  0.17016351561E+01  0.22046250927E+02 -0.13104414842E+02  0.25703276649E+02  0.00000000000E+00 0.  1.
<mgrwt>
<rscale>  2 0.17563888E+03</rscale>
<asrwt>0</asrwt>
<pdfrwt beam="1">  1       21 0.10540007E-01 0.17569151E+03</pdfrwt>
<pdfrwt beam="2">  1       21 0.10165409E+00 0.17569151E+03</pdfrwt>
<totfact> 0.58852114E+04</totfact>
</mgrwt>
</event>
<event>
12    1  0.1074575E-001  0.2165746E+03  0.7546771E-02  0.1136970E+00
         21   -1    0    0  501  502  0.00000000000E+00  0.00000000000E+00  0.78156873476E+03  0.78156873476E+03  0.00000000000E+00 0. -1.
         21   -1    0    0  502  503 -0.00000000000E+00 -0.00000000000E+00 -0.68050473728E+02  0.68050473728E+02  0.00000000000E+00 0. -1.
         -6    2    1    2    0  503  0.12628296888E+03  0.23771050807E+02  0.20236007374E+03  0.29447305607E+03  0.17103312610E+03 0.  0.
        -24    2    3    3    0    0  0.76136676759E+02 -0.52077063015E+02  0.11881571748E+03  0.17090389954E+03  0.81130475884E+02 0.  0.
          6    2    1    2  501    0 -0.12628296888E+03 -0.23771050807E+02  0.51115818730E+03  0.55514615242E+03  0.17433332160E+03 0.  0.
         24    2    5    5    0    0 -0.59858574337E+02  0.39836883747E+02  0.16437029920E+03  0.19633966019E+03  0.79759893928E+02 0.  0.
          5    1    5    5  501    0 -0.66424394542E+02 -0.63607934554E+02  0.34678788810E+03  0.35880649222E+03  0.47000000000E+01 0. -1.
        -11    1    6    6    0    0 -0.34227802295E+02 -0.19594118522E+02  0.40213802526E+02  0.56326031675E+02  0.00000000000E+00 0.  1.
         12    1    6    6    0    0 -0.25630772043E+02  0.59431002269E+02  0.12415649667E+03  0.14001362852E+03  0.00000000000E+00 0. -1.
         -5    1    3    3    0  503  0.50146292120E+02  0.75848113821E+02  0.83544356255E+02  0.12356915653E+03  0.47000000000E+01 0.  1.
         11    1    4    4    0    0  0.30612496249E+02  0.20713583795E+02  0.37482690251E+02  0.52641519247E+02  0.00000000000E+00 0. -1.
        -12    1    4    4    0    0  0.45524180511E+02 -0.72790646809E+02  0.81333027231E+02  0.11826238029E+03  0.00000000000E+00 0.  1.
<mgrwt>
<rscale>  2 0.21590966E+03</rscale>
<asrwt>0</asrwt>
<pdfrwt beam="1">  1       21 0.12024134E+00 0.21657460E+03</pdfrwt>
<pdfrwt beam="2">  1       21 0.10469304E-01 0.21657460E+03</pdfrwt>
<totfact> 0.38804057E+04</totfact>
</mgrwt>
</event>
<event>
12    1  0.1074575E-001  0.1767255E+03  0.7546771E-02  0.1171759E+00
         21   -1    0    0  501  502  0.00000000000E+00  0.00000000000E+00  0.12279717518E+04  0.12279717518E+04  0.00000000000E+00 0. -1.
         21   -1    0    0  502  503 -0.00000000000E+00 -0.00000000000E+00 -0.25110248520E+02  0.25110248520E+02  0.00000000000E+00 0. -1.
         -6    2    1    2    0  503  0.28289675587E+01  0.29572130237E+02  0.55565154794E+03  0.58217765697E+03  0.17117145674E+03 0.  0.
        -24    2    3    3    0    0 -0.40814759572E+02  0.56850220974E+02  0.28708367771E+03  0.30868239180E+03  0.89274793612E+02 0.  0.
          6    2    1    2  501    0 -0.28289675587E+01 -0.29572130237E+02  0.64720995534E+03  0.67090434335E+03  0.17421078523E+03 0.  0.
         24    2    5    5    0    0  0.28242470903E+02 -0.28222036799E+02  0.14882637595E+03  0.17152919454E+03  0.75358170614E+02 0.  0.
          5    1    5    5  501    0 -0.31071438462E+02 -0.13500934378E+01  0.49838357939E+03  0.49937514881E+03  0.47000000000E+01 0. -1.
        -11    1    6    6    0    0  0.41143429936E+02  0.53156513337E+01  0.11470446054E+03  0.12197602733E+03  0.00000000000E+00 0.  1.
         12    1    6    6    0    0 -0.12900959033E+02 -0.33537688133E+02  0.34121915406E+02  0.49553167207E+02  0.00000000000E+00 0. -1.
         -5    1    3    3    0  503  0.43643727131E+02 -0.27278090737E+02  0.26856787023E+03  0.27349526517E+03  0.47000000000E+01 0.  1.
         11    1    4    4    0    0 -0.68327893843E+01 -0.18089930047E+02  0.12923736630E+03  0.13067604764E+03  0.00000000000E+00 0. -1.
        -12    1    4    4    0    0 -0.33981970188E+02  0.74940151021E+02  0.15784631141E+03  0.17800634415E+03  0.00000000000E+00 0.  1.
<mgrwt>
<rscale>  2 0.17597189E+03</rscale>
<asrwt>0</asrwt>
<pdfrwt beam="1">  1       21 0.18891868E+00 0.17672553E+03</pdfrwt>
<pdfrwt beam="2">  1       21 0.38631161E-02 0.17672553E+03</pdfrwt>
<totfact> 0.66498674E+04</totfact>
</mgrwt>
</event>
<event>
12    1  0.1074575E-001  0.1893552E+03  0.7546771E-02  0.1160131E+00
         21   -1    0    0  503  502  0.00000000000E+00  0.00000000000E+00  0.10411438404E+03  0.10411438404E+03  0.00000000000E+00 0. -1.
         21   -1    0    0  501  503 -0.00000000000E+00 -0.00000000000E+00 -0.37422241123E+03  0.37422241123E+03  0.00000000000E+00 0. -1.
          6    2    1    2  501    0  0.17305801491E+02  0.75690370655E+02 -0.59988800407E+02  0.19863046677E+03  0.17270461250E+03 0.  0.
         24    2    3    3    0    0 -0.51011176905E+02  0.28876699726E+02 -0.73789022993E+01  0.10040307394E+03  0.81180817319E+02 0.  0.
         -6    2    1    2    0  502 -0.17305801491E+02 -0.75690370655E+02 -0.21011922679E+03  0.27970632850E+03  0.16750229181E+03 0.  0.
        -24    2    5    5    0    0 -0.39801228421E+02 -0.14013325915E+02 -0.18966878513E+03  0.21078309117E+03  0.81699157785E+02 0.  0.
          5    1    3    3  501    0  0.68316978396E+02  0.46813670929E+02 -0.52609898107E+02  0.98227392829E+02  0.47000000000E+01 0. -1.
        -11    1    4    4    0    0 -0.21806653512E+02  0.50570493032E+02 -0.24403380246E+02  0.60236449682E+02  0.00000000000E+00 0.  1.
         12    1    4    4    0    0 -0.29204523393E+02 -0.21693793307E+02  0.17024477947E+02  0.40166624255E+02  0.00000000000E+00 0. -1.
         -5    1    5    5    0  502  0.22495426929E+02 -0.61677044740E+02 -0.20450441660E+02  0.68923237334E+02  0.47000000000E+01 0.  1.
         13    1    6    6    0    0 -0.55132806382E+02 -0.24333988727E+02 -0.83260459973E+02  0.10278167902E+03  0.00000000000E+00 0. -1.
        -14    1    6    6    0    0  0.15331577961E+02  0.10320662812E+02 -0.10640832516E+03  0.10800141215E+03  0.00000000000E+00 0.  1.
<mgrwt>
<rscale>  2 0.18816085E+03</rscale>
<asrwt>0</asrwt>
<pdfrwt beam="1">  1       21 0.16017598E-01 0.18935524E+03</pdfrwt>
<pdfrwt beam="2">  1       21 0.57572678E-01 0.18935524E+03</pdfrwt>
<totfact> 0.98626163E+04</totfact>
</mgrwt>
</event>
<event>
12    1  0.1074575E-001  0.1820919E+03  0.7546771E-02  0.1167204E+00
         21   -1    0    0  501  502  0.00000000000E+00  0.00000000000E+00  0.33971674853E+03  0.33971674853E+03  0.00000000000E+00 0. -1.
         21   -1    0    0  502  503 -0.00000000000E+00 -0.00000000000E+00 -0.14191995258E+03  0.14191995258E+03  0.00000000000E+00 0. -1.
         -6    2    1    2    0  503  0.39126527500E+02 -0.38567644646E+02 -0.39206110226E+02  0.18626479384E+03  0.17360618070E+03 0.  0.
        -24    2    3    3    0    0  0.80568458250E+01 -0.28022375182E+02 -0.91292574538E+02  0.12452649461E+03  0.79513190216E+02 0.  0.
          6    2    1    2  501    0 -0.39126527500E+02  0.38567644646E+02  0.23700290617E+03  0.29537190727E+03  0.16749876925E+03 0.  0.
         24    2    5    5    0    0 -0.82891788354E+02  0.41400987776E+00  0.12697474323E+03  0.17087538304E+03  0.78769227057E+02 0.  0.
          5    1    5    5  501    0  0.43765260854E+02  0.38153634768E+02  0.11002816294E+03  0.12449652423E+03  0.47000000000E+01 0. -1.
        -11    1    6    6    0    0 -0.38902025506E+01 -0.29342174274E+02  0.27438695193E+02  0.40360610264E+02  0.00000000000E+00 0.  1.
         12    1    6    6    0    0 -0.79001585803E+02  0.29756184152E+02  0.99536048035E+02  0.13051477278E+03  0.00000000000E+00 0. -1.
         -5    1    3    3    0  503  0.31069681675E+02 -0.10545269464E+02  0.52086464312E+02  0.61738299231E+02  0.47000000000E+01 0.  1.
         11    1    4    4    0    0  0.21902227182E+01  0.28037102495E+02 -0.26402958231E+02  0.38574504471E+02  0.00000000000E+00 0. -1.
        -12    1    4    4    0    0  0.58666231068E+01 -0.56059477677E+02 -0.64889616308E+02  0.85951990138E+02  0.00000000000E+00 0.  1.
<mgrwt>
<rscale>  2 0.18062086E+03</rscale>
<asrwt>0</asrwt>
<pdfrwt beam="1">  1       21 0.52264115E-01 0.18209188E+03</pdfrwt>
<pdfrwt beam="2">  1       21 0.21833839E-01 0.18209188E+03</pdfrwt>
<totfact> 0.68317767E+04</totfact>
</mgrwt>
</event>
<event>
12    1  0.1074575E-001  0.1976800E+03  0.7546771E-02  0.1151887E+00
         21   -1    0    0  501  502  0.00000000000E+00  0.00000000000E+00  0.24547285107E+03  0.24547285107E+03  0.00000000000E+00 0. -1.
         21   -1    0    0  502  503 -0.00000000000E+00 -0.00000000000E+00 -0.16956822452E+03  0.16956822452E+03  0.00000000000E+00 0.  1.
         -6    2    1    2    0  503  0.14162643602E+02 -0.93745019890E+02 -0.15054793869E+02  0.19743826413E+03  0.17252974264E+03 0.  0.
        -24    2    3    3    0    0  0.36333290744E+02 -0.67765356593E+01  0.37569814918E+02  0.93291760135E+02  0.76979426241E+02 0.  0.
          6    2    1    2  501    0 -0.14162643602E+02  0.93745019890E+02  0.90959420416E+02  0.21760281147E+03  0.17346082603E+03 0.  0.
         24    2    5    5    0    0  0.97036351378E+01  0.93785395760E+02  0.53103602537E-01  0.12349835181E+03  0.79762015313E+02 0.  0.
          5    1    5    5  501    0 -0.23866278740E+02 -0.40375870307E-01  0.90906316814E+02  0.94104459659E+02  0.47000000000E+01 0. -1.
        -11    1    6    6    0    0  0.21705905102E+01 -0.62367809025E+01 -0.20127348800E+02  0.21182990084E+02  0.00000000000E+00 0.  1.
         12    1    6    6    0    0  0.75330446276E+01  0.10002217666E+03  0.20180452403E+02  0.10231536172E+03  0.00000000000E+00 0. -1.
         -5    1    3    3    0  503 -0.22170647142E+02 -0.86968484230E+02 -0.52624608786E+02  0.10414650399E+03  0.47000000000E+01 0.  1.
         11    1    4    4    0    0  0.40036516921E+02 -0.37123183200E+02  0.20834103553E+02  0.58438970635E+02  0.00000000000E+00 0. -1.
        -12    1    4    4    0    0 -0.37032261767E+01  0.30346647541E+02  0.16735711365E+02  0.34852789500E+02  0.00000000000E+00 0.  1.
<mgrwt>
<rscale>  2 0.19747552E+03</rscale>
<asrwt>0</asrwt>
<pdfrwt beam="1">  1       21 0.37765054E-01 0.19767996E+03</pdfrwt>
<pdfrwt beam="2">  1       21 0.26087419E-01 0.19767996E+03</pdfrwt>
<totfact> 0.94218725E+04</totfact>
</mgrwt>
</event>
<event>
12    1  0.1074575E-001  0.1838882E+03  0.7546771E-02  0.1164189E+00
         21   -1    0    0  503  502  0.00000000000E+00  0.00000000000E+00  0.45927382317E+03  0.45927382317E+03  0.00000000000E+00 0. -1.
         21   -1    0    0  501  503 -0.00000000000E+00 -0.00000000000E+00 -0.90134831069E+02  0.90134831069E+02  0.00000000000E+00 0. -1.
          6    2    1    2  501    0 -0.59313441075E+02 -0.21211519188E+02  0.66253380740E+02  0.19507186175E+03  0.17232384614E+03 0.  0.
         24    2    3    3    0    0 -0.44544121772E+02 -0.81070156918E+02  0.44280992332E+02  0.12945124642E+03  0.78995378288E+02 0.  0.
         -6    2    1    2    0  502  0.59313441075E+02  0.21211519188E+02  0.30288561136E+03  0.35433679249E+03  0.17276242677E+03 0.  0.
        -24    2    5    5    0    0 -0.11391457845E+02  0.33836479398E+02  0.74194520973E+02  0.11458634479E+03  0.79690217839E+02 0.  0.
          5    1    3    3  501    0 -0.14769319303E+02  0.59858637731E+02  0.21972388408E+02  0.65620615328E+02  0.47000000000E+01 0. -1.
        -11    1    4    4    0    0 -0.11406417602E+02  0.11656070143E+02  0.23836564470E+02  0.28881692115E+02  0.00000000000E+00 0.  1.
         12    1    4    4    0    0 -0.33137704169E+02 -0.92726227062E+02  0.20444427862E+02  0.10056955431E+03  0.00000000000E+00 0. -1.
         -5    1    5    5    0  502  0.70704898920E+02 -0.12624960210E+02  0.22869109039E+03  0.23975044771E+03  0.47000000000E+01 0.  1.
         11    1    6    6    0    0  0.80017360442E+01  0.52100046145E+02  0.24336488669E+02  0.58057792490E+02  0.00000000000E+00 0. -1.
        -12    1    6    6    0    0 -0.19393193889E+02 -0.18263566747E+02  0.49858032304E+02  0.56528552297E+02  0.00000000000E+00 0.  1.
<mgrwt>
<rscale>  2 0.18378511E+03</rscale>
<asrwt>0</asrwt>
<pdfrwt beam="1">  1       21 0.70657510E-01 0.18388820E+03</pdfrwt>
<pdfrwt beam="2">  1       21 0.13866897E-01 0.18388820E+03</pdfrwt>
<totfact> 0.82410141E+04</totfact>
</mgrwt>
</event>
<event>
12    1  0.1074575E-001  0.2715814E+03  0.7546771E-02  0.1100621E+00
         21   -1    0    0  503  502  0.00000000000E+00  0.00000000000E+00  0.10021684031E+03  0.10021684031E+03  0.00000000000E+00 0. -1.
         21   -1    0    0  501  503 -0.00000000000E+00 -0.00000000000E+00 -0.75486829127E+03  0.75486829127E+03  0.00000000000E+00 0.  1.
          6    2    1    2  501    0 -0.20654279467E+03  0.15979051053E+02 -0.25287396554E+03  0.37108180423E+03  0.17561664750E+03 0.  0.
         24    2    3    3    0    0 -0.59850638397E+02  0.33650249339E+00 -0.30189486568E+02  0.10392315247E+03  0.79412872816E+02 0.  0.
         -6    2    1    2    0  502  0.20654279467E+03 -0.15979051053E+02 -0.40177748543E+03  0.48400332735E+03  0.17297056682E+03 0.  0.
        -24    2    5    5    0    0  0.51438811447E+02  0.36018842829E+02 -0.20312268604E+03  0.22661870097E+03  0.78446807972E+02 0.  0.
          5    1    3    3  501    0 -0.14669215627E+03  0.15642548560E+02 -0.22268447897E+03  0.26715865176E+03  0.47000000000E+01 0. -1.
        -11    1    4    4    0    0 -0.49311556516E+02  0.19763993545E+02 -0.50944080582E+02  0.73603969956E+02  0.00000000000E+00 0.  1.
         12    1    4    4    0    0 -0.10539081881E+02 -0.19427491051E+02  0.20754594014E+02  0.30319182511E+02  0.00000000000E+00 0. -1.
         -5    1    5    5    0  502  0.15510398322E+03 -0.51997893882E+02 -0.19865479939E+03  0.25738462638E+03  0.47000000000E+01 0.  1.
         11    1    6    6    0    0  0.47526640536E+02  0.46308160415E+02 -0.84281643476E+02  0.10726892704E+03  0.00000000000E+00 0. -1.
        -12    1    6    6    0    0  0.39121709112E+01 -0.10289317587E+02 -0.11884104257E+03  0.11934977393E+03  0.00000000000E+00 0.  1.
<mgrwt>
<rscale>  2 0.27115452E+03</rscale>
<asrwt>0</asrwt>
<pdfrwt beam="1">  1       21 0.15417976E-01 0.27158141E+03</pdfrwt>
<pdfrwt beam="2">  1       21 0.11613358E+00 0.27158141E+03</pdfrwt>
<totfact> 0.20451799E+04</totfact>
</mgrwt>
</event>
<event>
12    1  0.1074575E-001  0.1803865E+03  0.7546771E-02  0.1167452E+00
         21   -1    0    0  501  502  0.00000000000E+00  0.00000000000E+00  0.94358027691E+02  0.94358027691E+02  0.00000000000E+00 0. -1.
         21   -1    0    0  502  503 -0.00000000000E+00 -0.00000000000E+00 -0.41040075053E+03  0.41040075053E+03  0.00000000000E+00 0. -1.
         -6    2    1    2    0  503 -0.15486389862E+02  0.47851059028E+02 -0.25899010293E+03  0.31556501089E+03  0.17313535330E+03 0.  0.
        -24    2    3    3    0    0  0.35549438929E+02 -0.16816556488E+02 -0.18849562950E+03  0.20703797692E+03  0.76076030181E+02 0.  0.
          6    2    1    2  501    0  0.15486389862E+02 -0.47851059028E+02 -0.57052619914E+02  0.18919376734E+03  0.17323316091E+03 0.  0.
         24    2    5    5    0    0  0.64334397413E+02 -0.68618578734E+02 -0.54517452786E+02  0.13584646385E+03  0.81453576010E+02 0.  0.
          5    1    5    5  501    0 -0.48848007552E+02  0.20767519706E+02 -0.25351671283E+01  0.53347303483E+02  0.47000000000E+01 0. -1.
        -13    1    6    6    0    0  0.27284967393E+02  0.98053350753E+01 -0.37594507880E+02  0.47475899826E+02  0.00000000000E+00 0.  1.
         14    1    6    6    0    0  0.37049430020E+02 -0.78423913810E+02 -0.16922944906E+02  0.88370564026E+02  0.00000000000E+00 0. -1.
         -5    1    3    3    0  503 -0.51035828791E+02  0.64667615516E+02 -0.70494473426E+02  0.10852703396E+03  0.47000000000E+01 0.  1.
         13    1    4    4    0    0  0.31713466651E+02  0.26537610151E+02 -0.78087668905E+02  0.88361036406E+02  0.00000000000E+00 0. -1.
        -14    1    4    4    0    0  0.38359722781E+01 -0.43354166639E+02 -0.11040796059E+03  0.11867694052E+03  0.00000000000E+00 0.  1.
<mgrwt>
<rscale>  2 0.18036299E+03</rscale>
<asrwt>0</asrwt>
<pdfrwt beam="1">  1       21 0.14516619E-01 0.18038647E+03</pdfrwt>
<pdfrwt beam="2">  1       21 0.63138578E-01 0.18038647E+03</pdfrwt>
<totfact> 0.97114960E+04</totfact>
</mgrwt>
</event>
<event>
11    1  0.1074575E-001  0.1783021E+03  0.7546771E-02  0.1169863E+00
         21   -1    0    0  501  502  0.00000000000E+00  0.00000000000E+00  0.74701340635E+02  0.74701340635E+02  0.00000000000E+00 0. -1.
         21   -1    0    0  502  503 -0.00000000000E+00 -0.00000000000E+00 -0.44944766281E+03  0.44944766281E+03  0.00000000000E+00 0. -1.
         -6    2    1    2    0  503 -0.34476965834E+02 -0.22843268687E+02 -0.12137582759E+03  0.21432927835E+03  0.17173954681E+03 0.  0.
        -24    2    3    3    0    0 -0.48161683570E+02  0.44847195228E+02 -0.53907457481E+02  0.11766831741E+03  0.81295757982E+02 0.  0.
          6    2    1    2  501    0  0.34476965834E+02  0.22843268687E+02 -0.25337049458E+03  0.30981972509E+03  0.17343926440E+03 0.  0.
          5    1    5    5  501    0  0.57864582953E+02 -0.52901735858E+01 -0.80164931362E+02  0.99120139816E+02  0.47000000000E+01 0. -1.
        -13    1    5    5    0    0 -0.53810360596E+02 -0.24544371268E+02 -0.85199188697E+02  0.10371539338E+03  0.00000000000E+00 0.  1.
         14    1    5    5    0    0  0.30422743477E+02  0.52677813540E+02 -0.88006374526E+02  0.10698419190E+03  0.00000000000E+00 0. -1.
         -5    1    3    3    0  503  0.13684717736E+02 -0.67690463915E+02 -0.67468370108E+02  0.96660960938E+02  0.47000000000E+01 0.  1.
         13    1    4    4    0    0 -0.53011833269E+02 -0.56980155136E+01 -0.21866486655E+02  0.57626947568E+02  0.00000000000E+00 0. -1.
        -14    1    4    4    0    0  0.48501496991E+01  0.50545210742E+02 -0.32040970826E+02  0.60041369842E+02  0.00000000000E+00 0.  1.
<mgrwt>
<rscale>  2 0.17788747E+03</rscale>
<asrwt>0</asrwt>
<pdfrwt beam="1">  1       21 0.11492514E-01 0.17830214E+03</pdfrwt>
<pdfrwt beam="2">  1       21 0.69145795E-01 0.17830214E+03</pdfrwt>
<totfact> 0.12130843E+05</totfact>
</mgrwt>
</event>
<event>
12    1  0.1074575E-001  0.1850509E+03  0.7546771E-02  0.1163074E+00
         21   -1    0    0  503  502  0.00000000000E+00  0.00000000000E+00  0.38697828432E+02  0.38697828432E+02  0.00000000000E+00 0. -1.
         21   -1    0    0  501  503 -0.00000000000E+00 -0.00000000000E+00 -0.88987896993E+03  0.88987896993E+03  0.00000000000E+00 0. -1.
          6    2    1    2  501    0 -0.40239188515E+02  0.51212461290E+02 -0.46475844961E+03  0.50013040060E+03  0.17288173020E+03 0.  0.
         24    2    3    3    0    0 -0.32249385714E+02  0.66695097920E+01 -0.10236315760E+03  0.13489027528E+03  0.81441175641E+02 0.  0.
         -6    2    1    2    0  502  0.40239188515E+02 -0.51212461290E+02 -0.38642269189E+03  0.42844639777E+03  0.17321059571E+03 0.  0.
        -24    2    5    5    0    0  0.24684567922E+02 -0.86844285629E+02 -0.17021494897E+03  0.20872054306E+03  0.80248852968E+02 0.  0.
          5    1    3    3  501    0 -0.79898028005E+01  0.44542951498E+02 -0.36239529201E+03  0.36524012532E+03  0.47000000000E+01 0. -1.
        -11    1    4    4    0    0 -0.29666039595E+02 -0.32106594758E+02 -0.30862056123E+02  0.53510502150E+02  0.00000000000E+00 0.  1.
         12    1    4    4    0    0 -0.25833461198E+01  0.38776104550E+02 -0.71501101480E+02  0.81379773126E+02  0.00000000000E+00 0. -1.
         -5    1    5    5    0  502  0.15554620593E+02  0.35631824338E+02 -0.21620774292E+03  0.21972585471E+03  0.47000000000E+01 0.  1.
         11    1    6    6    0    0  0.33757260203E+02 -0.55295571157E+02 -0.44019827310E+02  0.78325589704E+02  0.00000000000E+00 0. -1.
        -12    1    6    6    0    0 -0.90726922814E+01 -0.31548714471E+02 -0.12619512166E+03  0.13039495336E+03  0.00000000000E+00 0.  1.
<mgrwt>
<rscale>  2 0.18497386E+03</rscale>
<asrwt>0</asrwt>
<pdfrwt beam="1">  1       21 0.59535122E-02 0.18505086E+03</pdfrwt>
<pdfrwt beam="2">  1       21 0.13690445E+00 0.18505086E+03</pdfrwt>
<totfact> 0.76022973E+04</totfact>
</mgrwt>
</event>
<event>
12    1  0.1074575E-001  0.1842463E+03  0.7546771E-02  0.1163960E+00
         21   -1    0    0  501  502  0.00000000000E+00  0.00000000000E+00  0.10878749007E+04  0.10878749007E+04  0.00000000000E+00 0. -1.
         21   -1    0    0  502  503 -0.00000000000E+00 -0.00000000000E+00 -0.36119760811E+02  0.36119760811E+02  0.00000000000E+00 0. -1.
         -6    2    1    2    0  503 -0.24508739373E+02  0.56774646042E+02  0.31655257704E+03  0.36626798441E+03  0.17355881895E+03 0.  0.
        -24    2    3    3    0    0 -0.76589098883E+02  0.64711395938E+02  0.24771679293E+03  0.27945893523E+03  0.81732687144E+02 0.  0.
          6    2    1    2  501    0  0.24508739373E+02 -0.56774646042E+02  0.73520256281E+03  0.75772667707E+03  0.17263507764E+03 0.  0.
         24    2    5    5    0    0  0.26276179978E+01 -0.81710930515E+02  0.69905444482E+03  0.70843795432E+03  0.80769039547E+02 0.  0.
          5    1    5    5  501    0  0.21881121375E+02  0.24936284472E+02  0.36148117989E+02  0.49288722748E+02  0.47000000000E+01 0. -1.
        -11    1    6    6    0    0 -0.10889647842E+02 -0.44544099336E+02  0.12712248067E+03  0.13514024681E+03  0.00000000000E+00 0.  1.
         12    1    6    6    0    0  0.13517265840E+02 -0.37166831178E+02  0.57193196415E+03  0.57329770751E+03  0.00000000000E+00 0. -1.
         -5    1    3    3    0  503  0.52080359510E+02 -0.79367498954E+01  0.68835784111E+02  0.86809049181E+02  0.47000000000E+01 0.  1.
         13    1    4    4    0    0 -0.19648291483E+02  0.58190832066E+02  0.18290222934E+03  0.19293898982E+03  0.00000000000E+00 0. -1.
        -14    1    4    4    0    0 -0.56940807400E+02  0.65205638717E+01  0.64814563595E+02  0.86519945415E+02  0.00000000000E+00 0.  1.
<mgrwt>
<rscale>  2 0.18402845E+03</rscale>
<asrwt>0</asrwt>
<pdfrwt beam="1">  1       21 0.16736534E+00 0.18424631E+03</pdfrwt>
<pdfrwt beam="2">  1       21 0.55568871E-02 0.18424631E+03</pdfrwt>
<totfact> 0.50313851E+04</totfact>
</mgrwt>
</event>
<event>
11    1  0.1074575E-001  0.2078492E+03  0.7546771E-02  0.1144846E+00
         21   -1    0    0  501  502  0.00000000000E+00  0.00000000000E+00  0.32909524435E+03  0.32909524435E+03  0.00000000000E+00 0. -1.
         21   -1    0    0  502  503 -0.00000000000E+00 -0.00000000000E+00 -0.15639265693E+03  0.15639265693E+03  0.00000000000E+00 0.  1.
         -6    2    1    2    0  503  0.92003279820E+01 -0.10161917320E+03  0.19379365094E+03  0.28417822861E+03  0.18108060104E+03 0.  0.
          6    2    1    2  501    0 -0.92003279820E+01  0.10161917320E+03 -0.21091063522E+02  0.20130967267E+03  0.17224879957E+03 0.  0.
         24    2    4    4    0    0 -0.67826466537E+02  0.55497292510E+02  0.12269381799E+02  0.11946065733E+03  0.80249186167E+02 0.  0.
          5    1    4    4  501    0  0.58626138555E+02  0.46121880690E+02 -0.33360445321E+02  0.81849015341E+02  0.47000000000E+01 0. -1.
        -11    1    5    5    0    0 -0.61667444705E+02  0.13647551244E+02 -0.20006960637E+02  0.66252606479E+02  0.00000000000E+00 0.  1.
         12    1    5    5    0    0 -0.61590218327E+01  0.41849741266E+02  0.32276342436E+02  0.53208050848E+02  0.00000000000E+00 0. -1.
         -5    1    3    3    0  503  0.16850862323E+02  0.14730161250E+02  0.51134094971E+02  0.56015309335E+02  0.47000000000E+01 0.  1.
         11    1    3    3    0    0 -0.13386823284E+01 -0.72919554308E+02  0.16390950224E+03  0.17940283831E+03  0.00000000000E+00 0. -1.
        -12    1    3    3    0    0 -0.63118520123E+01 -0.43429780142E+02 -0.21249946267E+02  0.48760080961E+02  0.00000000000E+00 0.  1.
<mgrwt>
<rscale>  2 0.20591038E+03</rscale>
<asrwt>0</asrwt>
<pdfrwt beam="1">  1       21 0.50630037E-01 0.20784919E+03</pdfrwt>
<pdfrwt beam="2">  1       21 0.24060409E-01 0.20784919E+03</pdfrwt>
<totfact> 0.60059275E+04</totfact>
</mgrwt>
</event>
<event>
12    1  0.1074575E-001  0.3373539E+03  0.7546771E-02  0.1067996E+00
         21   -1    0    0  501  502  0.00000000000E+00  0.00000000000E+00  0.32312360653E+03  0.32312360653E+03  0.00000000000E+00 0.  1.
         21   -1    0    0  502  503 -0.00000000000E+00 -0.00000000000E+00 -0.40597915641E+03  0.40597915641E+03  0.00000000000E+00 0.  1.
         -6    2    1    2    0  503  0.13860824952E+03  0.25376253476E+03 -0.17493412817E+03  0.38001263696E+03  0.17378142641E+03 0.  0.
        -24    2    3    3    0    0  0.10230681996E+03  0.14879418652E+03 -0.18175050202E+03  0.26863624416E+03  0.80782370235E+02 0.  0.
          6    2    1    2  501    0 -0.13860824952E+03 -0.25376253476E+03  0.92078578289E+02  0.34909012597E+03  0.17256239621E+03 0.  0.
         24    2    5    5    0    0 -0.69820410601E+02 -0.14598473570E+03 -0.16889032586E+02  0.18103105608E+03  0.79376136516E+02 0.  0.
          5    1    5    5  501    0 -0.68787838923E+02 -0.10777779906E+03  0.10896761087E+03  0.16805906990E+03  0.47000000000E+01 0. -1.
        -11    1    6    6    0    0 -0.64938160650E+02 -0.59254446000E+02  0.13627096691E+02  0.88959270701E+02  0.00000000000E+00 0.  1.
         12    1    6    6    0    0 -0.48822499506E+01 -0.86730289700E+02 -0.30516129276E+02  0.92071785375E+02  0.00000000000E+00 0. -1.
         -5    1    3    3    0  503  0.36301429568E+02  0.10496834824E+03  0.68163738439E+01  0.11137639281E+03  0.47000000000E+01 0.  1.
         11    1    4    4    0    0  0.20637986478E+02  0.39180659158E+02 -0.40857640792E+01  0.44471833851E+02  0.00000000000E+00 0. -1.
        -12    1    4    4    0    0  0.81668833478E+02  0.10961352736E+03 -0.17766473794E+03  0.22416441031E+03  0.00000000000E+00 0.  1.
<mgrwt>
<rscale>  2 0.33719721E+03</rscale>
<asrwt>0</asrwt>
<pdfrwt beam="1">  1       21 0.49711324E-01 0.33735390E+03</pdfrwt>
<pdfrwt beam="2">  1       21 0.62458332E-01 0.33735390E+03</pdfrwt>
<totfact> 0.84749013E+03</totfact>
</mgrwt>
</event>
<event>
12    1  0.1074575E-001  0.1856759E+03  0.7546771E-02  0.1164872E+00
         21   -1    0    0  503  502  0.00000000000E+00  0.00000000000E+00  0.51575706742E+02  0.51575706742E+02  0.00000000000E+00 0. -1.
         21   -1    0    0  501  503 -0.00000000000E+00 -0.00000000000E+00 -0.71104275859E+03  0.71104275859E+03  0.00000000000E+00 0. -1.
          6    2    1    2  501    0 -0.10348929578E+02  0.42998181885E+02 -0.46504597874E+03  0.50074275130E+03  0.18033190691E+03 0.  0.
         24    2    3    3    0    0  0.23777929671E+02  0.87474003958E+02 -0.38010094099E+03  0.39885805810E+03  0.79962077635E+02 0.  0.
         -6    2    1    2    0  502  0.10348929578E+02 -0.42998181885E+02 -0.19442107311E+03  0.26187571403E+03  0.16977453266E+03 0.  0.
        -24    2    5    5    0    0  0.27751794064E+02 -0.47954378105E+02 -0.42814648758E+02  0.10912093840E+03  0.83692894537E+02 0.  0.
          5    1    3    3  501    0 -0.34126859249E+02 -0.44475822073E+02 -0.84945037752E+02  0.10188469321E+03  0.47000000000E+01 0. -1.
        -11    1    4    4    0    0 -0.35751652186E+01 -0.14659287163E+02 -0.51556794132E+02  0.53719452042E+02  0.00000000000E+00 0.  1.
         12    1    4    4    0    0  0.27353094890E+02  0.10213329112E+03 -0.32854414686E+03  0.34513860606E+03  0.00000000000E+00 0. -1.
         -5    1    5    5    0  502 -0.17402864486E+02  0.49561962201E+01 -0.15160642435E+03  0.15275477563E+03  0.47000000000E+01 0.  1.
         11    1    6    6    0    0 -0.64801045560E+01  0.32446410174E+01  0.19926075358E+02  0.21203016992E+02  0.00000000000E+00 0. -1.
        -12    1    6    6    0    0  0.34231898620E+02 -0.51199019122E+02 -0.62740724116E+02  0.87917921408E+02  0.00000000000E+00 0.  1.
<mgrwt>
<rscale>  2 0.18306236E+03</rscale>
<asrwt>0</asrwt>
<pdfrwt beam="1">  1       21 0.79347246E-02 0.18567590E+03</pdfrwt>
<pdfrwt beam="2">  1       21 0.10939119E+00 0.18567590E+03</pdfrwt>
<totfact> 0.80824600E+04</totfact>
</mgrwt>
</event>
<event>
12    1  0.1074575E-001  0.2137251E+03  0.7546771E-02  0.1138890E+00
         21   -1    0    0  503  502  0.00000000000E+00  0.00000000000E+00  0.89007660534E+03  0.89007660534E+03  0.00000000000E+00 0.  1.
         21   -1    0    0  501  503 -0.00000000000E+00 -0.00000000000E+00 -0.84480593708E+02  0.84480593708E+02  0.00000000000E+00 0. -1.
          6    2    1    2  501    0  0.10951124344E+03  0.56324641120E+02  0.95438957045E+02  0.23293637342E+03  0.17316345430E+03 0.  0.
         24    2    3    3    0    0  0.60291552301E+02  0.65853183334E+02  0.12589271161E+03  0.17409002876E+03  0.80539743258E+02 0.  0.
         -6    2    1    2    0  502 -0.10951124344E+03 -0.56324641120E+02  0.71015705459E+03  0.74162082563E+03  0.17468036290E+03 0.  0.
        -24    2    5    5    0    0 -0.38610249209E+02  0.26427231759E+02  0.45068127354E+03  0.46015218723E+03  0.80232631599E+02 0.  0.
          5    1    3    3  501    0  0.49219691139E+02 -0.95285422136E+01 -0.30453754566E+02  0.58846344659E+02  0.47000000000E+01 0. -1.
        -13    1    4    4    0    0  0.65670011891E+01  0.42255688629E+02  0.10224181666E+03  0.11082444586E+03  0.00000000000E+00 0.  1.
         14    1    4    4    0    0  0.53724551111E+02  0.23597494705E+02  0.23650894955E+02  0.63265582908E+02  0.00000000000E+00 0. -1.
         -5    1    5    5    0  502 -0.70900994231E+02 -0.82751872880E+02  0.25947578105E+03  0.28146863839E+03  0.47000000000E+01 0.  1.
         11    1    6    6    0    0 -0.41831323304E+02  0.18543108775E+02  0.10709642921E+03  0.11646180336E+03  0.00000000000E+00 0. -1.
        -12    1    6    6    0    0  0.32210740952E+01  0.78841229845E+01  0.34358484433E+03  0.34369038387E+03  0.00000000000E+00 0.  1.
<mgrwt>
<rscale>  2 0.21341490E+03</rscale>
<asrwt>0</asrwt>
<pdfrwt beam="1">  1       21 0.13693486E+00 0.21372507E+03</pdfrwt>
<pdfrwt beam="2">  1       21 0.12997015E-01 0.21372507E+03</pdfrwt>
<totfact> 0.19002374E+04</totfact>
</mgrwt>
</event>
<event>
12    1  0.1074575E-001  0.2205380E+03  0.7546771E-02  0.1133497E+00
         21   -1    0    0  501  502  0.00000000000E+00  0.00000000000E+00  0.10437519131E+04  0.10437519131E+04  0.00000000000E+00 0.  1.
         21   -1    0    0  502  503 -0.00000000000E+00 -0.00000000000E+00 -0.46630754230E+02  0.46630754230E+02  0.00000000000E+00 0. -1.
         -6    2    1    2    0  503  0.27189953929E+02 -0.13391345707E+03  0.51638926676E+03  0.56151126477E+03  0.17310377828E+03 0.  0.
        -24    2    3    3    0    0  0.31751836392E+02 -0.16319859882E+03  0.38699248220E+03  0.42868036416E+03  0.79760338334E+02 0.  0.
          6    2    1    2  501    0 -0.27189953929E+02  0.13391345707E+03  0.48073189208E+03  0.52887140254E+03  0.17300202536E+03 0.  0.
         24    2    5    5    0    0  0.24007231659E+02  0.50511272189E+02  0.11332747134E+03  0.14862782977E+03  0.78226467583E+02 0.  0.
          5    1    5    5  501    0 -0.51197185588E+02  0.83402184878E+02  0.36740442074E+03  0.38024357277E+03  0.47000000000E+01 0. -1.
        -11    1    6    6    0    0  0.33070301229E+02  0.56724885183E+02  0.11925952396E+03  0.13614033744E+03  0.00000000000E+00 0.  1.
         12    1    6    6    0    0 -0.90630695701E+01 -0.62136129934E+01 -0.59320526172E+01  0.12487492331E+02  0.00000000000E+00 0. -1.
         -5    1    3    3    0  503 -0.45618824630E+01  0.29285141753E+02  0.12939678457E+03  0.13283090060E+03  0.47000000000E+01 0.  1.
         13    1    4    4    0    0  0.30213884411E+02 -0.13464038036E+02  0.93811412588E+02  0.99472309027E+02  0.00000000000E+00 0. -1.
        -14    1    4    4    0    0  0.15379519811E+01 -0.14973456078E+03  0.29318106961E+03  0.32920805514E+03  0.00000000000E+00 0.  1.
<mgrwt>
<rscale>  2 0.22051807E+03</rscale>
<asrwt>0</asrwt>
<pdfrwt beam="1">  1       21 0.16057720E+00 0.22053804E+03</pdfrwt>
<pdfrwt beam="2">  1       21 0.71739630E-02 0.22053804E+03</pdfrwt>
<totfact> 0.35534861E+04</totfact>
</mgrwt>
</event>
<event>
12    1  0.1074575E-001  0.1816753E+03  0.7546771E-02  0.1166303E+00
         21   -1    0    0  501  502  0.00000000000E+00  0.00000000000E+00  0.28389102990E+03  0.28389102990E+03  0.00000000000E+00 0. -1.
         21   -1    0    0  502  503 -0.00000000000E+00 -0.00000000000E+00 -0.24470794703E+03  0.24470794703E+03  0.00000000000E+00 0. -1.
         -6    2    1    2    0  503  0.50124663601E+02 -0.16555934028E+02 -0.17212514999E+03  0.24992878047E+03  0.17335151339E+03 0.  0.
        -24    2    3    3    0    0  0.84803715030E+02 -0.33433274834E+02 -0.68272554378E+02  0.13904626221E+03  0.79770090911E+02 0.  0.
          6    2    1    2  501    0 -0.50124663601E+02  0.16555934028E+02  0.21130823286E+03  0.27867019645E+03  0.17383707390E+03 0.  0.
         24    2    5    5    0    0  0.34419072714E+02  0.36790422454E+02  0.94927265734E+02  0.13333025913E+03  0.78914919171E+02 0.  0.
          5    1    5    5  501    0 -0.84543736314E+02 -0.20234488427E+02  0.11638096713E+03  0.14533993732E+03  0.47000000000E+01 0. -1.
        -13    1    6    6    0    0  0.37114902860E+01  0.25224920455E+02 -0.68446460391E+01  0.26399260435E+02  0.00000000000E+00 0.  1.
         14    1    6    6    0    0  0.30707582428E+02  0.11565502000E+02  0.10177191177E+03  0.10693099869E+03  0.00000000000E+00 0. -1.
         -5    1    3    3    0  503 -0.34679051429E+02  0.16877340806E+02 -0.10385259562E+03  0.11088251827E+03  0.47000000000E+01 0.  1.
         13    1    4    4    0    0  0.14159533632E+02 -0.18893819055E+02 -0.62359223769E+02  0.66679393970E+02  0.00000000000E+00 0. -1.
        -14    1    4    4    0    0  0.70644181399E+02 -0.14539455779E+02 -0.59133306094E+01  0.72366868239E+02  0.00000000000E+00 0.  1.
<mgrwt>
<rscale>  2 0.18155903E+03</rscale>
<asrwt>0</asrwt>
<pdfrwt beam="1">  1       21 0.43675543E-01 0.18167528E+03</pdfrwt>
<pdfrwt beam="2">  1       21 0.37647377E-01 0.18167528E+03</pdfrwt>
<totfact> 0.34476146E+04</totfact>
</mgrwt>
</event>
<event>
12    1  0.1074575E-001  0.2014358E+03  0.7546771E-02  0.1148941E+00
         21   -1    0    0  503  502  0.00000000000E+00  0.00000000000E+00  0.71600019551E+02  0.71600019551E+02  0.00000000000E+00 0. -1.
         21   -1    0    0  501  503 -0.00000000000E+00 -0.00000000000E+00 -0.11296602311E+04  0.11296602311E+04  0.00000000000E+00 0. -1.
          6    2    1    2  501    0 -0.79845497385E+02 -0.61662148550E+02 -0.95635173290E+03  0.97733568195E+03  0.17435272917E+03 0.  0.
         24    2    3    3    0    0 -0.71239203545E+02  0.24914946352E+02 -0.63542112774E+03  0.64478763281E+03  0.79342946601E+02 0.  0.
         -6    2    1    2    0  502  0.79845497385E+02  0.61662148550E+02 -0.10170847866E+03  0.22392456872E+03  0.17210483383E+03 0.  0.
        -24    2    5    5    0    0  0.19816880647E+01  0.79123535233E+02 -0.33111985462E+02  0.11859061547E+03  0.81871054601E+02 0.  0.
          5    1    3    3  501    0 -0.86062938401E+01 -0.86577094902E+02 -0.32093060516E+03  0.33254804914E+03  0.47000000000E+01 0. -1.
        -13    1    4    4    0    0 -0.83954350568E+02  0.21618065734E+02 -0.41411822199E+03  0.42309523222E+03  0.00000000000E+00 0.  1.
         14    1    4    4    0    0  0.12715147023E+02  0.32968806178E+01 -0.22130290575E+03  0.22169240059E+03  0.00000000000E+00 0. -1.
         -5    1    5    5    0  502  0.77863809321E+02 -0.17461386683E+02 -0.68596493199E+02  0.10533395324E+03  0.47000000000E+01 0.  1.
         13    1    6    6    0    0  0.35356556505E+02  0.14962182940E+02  0.14808368741E+01  0.38420643983E+02  0.00000000000E+00 0. -1.
        -14    1    6    6    0    0 -0.33374868440E+02  0.64161352293E+02 -0.34592822336E+02  0.80169971490E+02  0.00000000000E+00 0.  1.
<mgrwt>
<rscale>  2 0.20094845E+03</rscale>
<asrwt>0</asrwt>
<pdfrwt beam="1">  1       21 0.11015388E-01 0.20143584E+03</pdfrwt>
<pdfrwt beam="2">  1       21 0.17379387E+00 0.20143584E+03</pdfrwt>
<totfact> 0.13633490E+04</totfact>
</mgrwt>
</event>
<event>
12    1  0.1074575E-001  0.2219283E+03  0.7546771E-02  0.1133623E+00
         21   -1    0    0  501  502  0.00000000000E+00  0.00000000000E+00  0.22880153438E+03  0.22880153438E+03  0.00000000000E+00 0.  1.
         21   -1    0    0  502  503 -0.00000000000E+00 -0.00000000000E+00 -0.22775816737E+03  0.22775816737E+03  0.00000000000E+00 0. -1.
         -6    2    1    2    0  503  0.77235930173E+02 -0.11277464525E+03 -0.64569530730E+02  0.22513532147E+03  0.16683278800E+03 0.  0.
        -24    2    3    3    0    0  0.53112953095E+02 -0.81439481280E+02 -0.10799011197E+03  0.16621802859E+03  0.80704360772E+02 0.  0.
          6    2    1    2  501    0 -0.77235930173E+02  0.11277464525E+03  0.65612897740E+02  0.23142438028E+03  0.17483901714E+03 0.  0.
         24    2    5    5    0    0 -0.10729683303E+03  0.12793794159E+03  0.64848290163E+02  0.19742058547E+03  0.82999153955E+02 0.  0.
          5    1    5    5  501    0  0.30060902853E+02 -0.15163296338E+02  0.76460757685E+00  0.34003794802E+02  0.47000000000E+01 0. -1.
        -13    1    6    6    0    0 -0.63096284473E+01  0.68958282492E+02  0.18999116080E+02  0.71805449286E+02  0.00000000000E+00 0.  1.
         14    1    6    6    0    0 -0.10098720458E+03  0.58979659096E+02  0.45849174083E+02  0.12561513619E+03  0.00000000000E+00 0. -1.
         -5    1    3    3    0  503  0.24122977078E+02 -0.31335163969E+02  0.43420581244E+02  0.58917292874E+02  0.47000000000E+01 0.  1.
         11    1    4    4    0    0  0.52641455131E+02 -0.89223220882E+01 -0.52762357256E+02  0.75063952553E+02  0.00000000000E+00 0. -1.
        -12    1    4    4    0    0  0.47149796480E+00 -0.72517159191E+02 -0.55227754718E+02  0.91154076040E+02  0.00000000000E+00 0.  1.
<mgrwt>
<rscale>  2 0.22034880E+03</rscale>
<asrwt>0</asrwt>
<pdfrwt beam="1">  1       21 0.35200236E-01 0.22192835E+03</pdfrwt>
<pdfrwt beam="2">  1       21 0.35039718E-01 0.22192835E+03</pdfrwt>
<totfact> 0.60294132E+04</totfact>
</mgrwt>
</event>
<event>
12    1  0.1074575E-001  0.1987706E+03  0.7546771E-02  0.1151052E+00
         21   -1    0    0  501  502  0.00000000000E+00  0.00000000000E+00  0.58782859815E+02  0.58782859815E+02  0.00000000000E+00 0. -1.
         21   -1    0    0  502  503 -0.00000000000E+00 -0.00000000000E+00 -0.86474717432E+03  0.86474717432E+03  0.00000000000E+00 0. -1.
         -6    2    1    2    0  503 -0.93495201773E+02  0.21877610796E+02 -0.62233219561E+03  0.65291867571E+03  0.17258462502E+03 0.  0.
        -24    2    3    3    0    0 -0.10483980397E+03  0.39990560714E+02 -0.30430554353E+03  0.33414003717E+03  0.80355903201E+02 0.  0.
          6    2    1    2  501    0  0.93495201773E+02 -0.21877610796E+02 -0.18363211890E+03  0.27061135843E+03  0.17403956334E+03 0.  0.
         24    2    5    5    0    0  0.52658913591E+01 -0.61910130978E+02 -0.10167141817E+03  0.14362056997E+03  0.80182273084E+02 0.  0.
          5    1    5    5  501    0  0.88229310414E+02  0.40032520182E+02 -0.81960700727E+02  0.12699078845E+03  0.47000000000E+01 0. -1.
        -13    1    6    6    0    0 -0.83721390901E+01 -0.31880617844E+01 -0.78541367518E+02  0.79050634801E+02  0.00000000000E+00 0.  1.
         14    1    6    6    0    0  0.13638030449E+02 -0.58722069193E+02 -0.23130050654E+02  0.64569935172E+02  0.00000000000E+00 0. -1.
         -5    1    3    3    0  503  0.11344602194E+02 -0.18112949918E+02 -0.31802665208E+03  0.31877863853E+03  0.47000000000E+01 0.  1.
         13    1    4    4    0    0 -0.20043953138E+02  0.29648763745E+02 -0.17863593460E+03  0.18218563714E+03  0.00000000000E+00 0. -1.
        -14    1    4    4    0    0 -0.84795850829E+02  0.10341796969E+02 -0.12566960893E+03  0.15195440004E+03  0.00000000000E+00 0.  1.
<mgrwt>
<rscale>  2 0.19845167E+03</rscale>
<asrwt>0</asrwt>
<pdfrwt beam="1">  1       21 0.90435175E-02 0.19877060E+03</pdfrwt>
<pdfrwt beam="2">  1       21 0.13303802E+00 0.19877060E+03</pdfrwt>
<totfact> 0.39352813E+04</totfact>
</mgrwt>
</event>
<event>
12    1  0.1074575E-001  0.2094206E+03  0.7546771E-02  0.1142617E+00
         21   -1    0    0  503  502  0.00000000000E+00  0.00000000000E+00  0.67511163276E+03  0.67511163276E+03  0.00000000000E+00 0. -1.
         21   -1    0    0  501  503 -0.00000000000E+00 -0.00000000000E+00 -0.12116396289E+03  0.12116396289E+03  0.00000000000E+00 0. -1.
          6    2    1    2  501    0 -0.12086872895E+03  0.10118051363E+01  0.25877293187E+01  0.20648344017E+03  0.16738710027E+03 0.  0.
         24    2    3    3    0    0 -0.67257610193E+02 -0.16644316818E+02  0.62925891778E+02  0.12372672114E+03  0.80919801386E+02 0.  0.
         -6    2    1    2    0  502  0.12086872895E+03 -0.10118051363E+01  0.55135994055E+03  0.58979215547E+03  0.17101675128E+03 0.  0.
        -24    2    5    5    0    0  0.10091017241E+02  0.11890783058E+02  0.36550334827E+03  0.37299053858E+03  0.72705054287E+02 0.  0.
          5    1    3    3  501    0 -0.53611118753E+02  0.17656121954E+02 -0.60338162459E+02  0.82756719035E+02  0.47000000000E+01 0. -1.
        -13    1    4    4    0    0  0.76638141799E+01 -0.26905573032E+02  0.30673724286E+02  0.41515313675E+02  0.00000000000E+00 0.  1.
         14    1    4    4    0    0 -0.74921424373E+02  0.10261256214E+02  0.32252167492E+02  0.82211407463E+02  0.00000000000E+00 0. -1.
         -5    1    5    5    0  502  0.11077771171E+03 -0.12902588194E+02  0.18585659228E+03  0.21680161689E+03  0.47000000000E+01 0.  1.
         11    1    6    6    0    0  0.75115188432E+01 -0.15453832785E+02  0.19875838120E+02  0.26273423912E+02  0.00000000000E+00 0. -1.
        -12    1    6    6    0    0  0.25794983976E+01  0.27344615843E+02  0.34562751015E+03  0.34671711466E+03  0.00000000000E+00 0.  1.
<mgrwt>
<rscale>  2 0.20867835E+03</rscale>
<asrwt>0</asrwt>
<pdfrwt beam="1">  1       21 0.10386333E+00 0.20942064E+03</pdfrwt>
<pdfrwt beam="2">  1       21 0.18640610E-01 0.20942064E+03</pdfrwt>
<totfact> 0.19530406E+04</totfact>
</mgrwt>
</event>
<event>
12    1  0.1074575E-001  0.2543091E+03  0.7546771E-02  0.1110695E+00
         21   -1    0    0  501  502  0.00000000000E+00  0.00000000000E+00  0.86022306939E+03  0.86022306939E+03  0.00000000000E+00 0. -1.
         21   -1    0    0  502  503 -0.00000000000E+00 -0.00000000000E+00 -0.84870276299E+02  0.84870276299E+02  0.00000000000E+00 0.  1.
         -6    2    1    2    0  503 -0.56772071873E+02  0.17619337730E+03  0.22634834715E+03  0.34004871532E+03  0.17358680879E+03 0.  0.
        -24    2    3    3    0    0 -0.95265197689E+02  0.88142689959E+02  0.10336531254E+03  0.18390275451E+03  0.79317359989E+02 0.  0.
          6    2    1    2  501    0  0.56772071873E+02 -0.17619337730E+03  0.54900444595E+03  0.60504463037E+03  0.17437301605E+03 0.  0.
         24    2    5    5    0    0 -0.17113783965E+01 -0.30540516106E+02  0.28479580371E+03  0.29769569746E+03  0.81107499875E+02 0.  0.
          5    1    5    5  501    0  0.58483450270E+02 -0.14565286119E+03  0.26420864224E+03  0.30734893291E+03  0.47000000000E+01 0. -1.
        -13    1    6    6    0    0 -0.36852777178E+02 -0.23424659564E+02  0.95169815330E+02  0.10470976846E+03  0.00000000000E+00 0.  1.
         14    1    6    6    0    0  0.35141398781E+02 -0.71158565425E+01  0.18962598838E+03  0.19298592900E+03  0.00000000000E+00 0. -1.
         -5    1    3    3    0  503  0.38493125816E+02  0.88050687341E+02  0.12298303460E+03  0.15614596081E+03  0.47000000000E+01 0.  1.
         13    1    4    4    0    0 -0.42993859905E+02  0.17421633723E+01  0.60401801909E+02  0.74161208166E+02  0.00000000000E+00 0. -1.
        -14    1    4    4    0    0 -0.52271337784E+02  0.86400526586E+02  0.42963510633E+02  0.10974154634E+03  0.00000000000E+00 0.  1.
<mgrwt>
<rscale>  2 0.25417439E+03</rscale>
<asrwt>0</asrwt>
<pdfrwt beam="1">  1       21 0.13234200E+00 0.25430911E+03</pdfrwt>
<pdfrwt beam="2">  1       21 0.13056966E-01 0.25430911E+03</pdfrwt>
<totfact> 0.20099214E+04</totfact>
</mgrwt>
</event>
<event>
12    1  0.1074575E-001  0.2446955E+03  0.7546771E-02  0.1116887E+00
         21   -1    0    0  501  502  0.00000000000E+00  0.00000000000E+00  0.20944491889E+03  0.20944491889E+03  0.00000000000E+00 0. -1.
         21   -1    0    0  502  503 -0.00000000000E+00 -0.00000000000E+00 -0.41735898881E+03  0.41735898881E+03  0.00000000000E+00 0.  1.
         -6    2    1    2    0  503 -0.38978875366E+02  0.16826383260E+03 -0.28089916049E+03  0.37253220567E+03  0.17333157765E+03 0.  0.
        -24    2    3    3    0    0 -0.33347750891E+02  0.17037749396E+03 -0.15394893638E+03  0.24535270052E+03  0.79731485032E+02 0.  0.
          6    2    1    2  501    0  0.38978875366E+02 -0.16826383260E+03  0.72985090575E+02  0.25427170203E+03  0.17174168080E+03 0.  0.
         24    2    5    5    0    0 -0.30746217175E+02 -0.56785100329E+02  0.18905172872E+01  0.10472029071E+03  0.82418976822E+02 0.  0.
          5    1    5    5  501    0  0.69725092541E+02 -0.11147873227E+03  0.71094573288E+02  0.14955141133E+03  0.47000000000E+01 0. -1.
        -11    1    6    6    0    0 -0.68574856391E+01 -0.47585301566E+02 -0.35248128815E+02  0.59613896194E+02  0.00000000000E+00 0.  1.
         12    1    6    6    0    0 -0.23888731536E+02 -0.91997987628E+01  0.37138646103E+02  0.45106394514E+02  0.00000000000E+00 0. -1.
         -5    1    3    3    0  503 -0.56311244746E+01 -0.21136613564E+01 -0.12695022412E+03  0.12717950515E+03  0.47000000000E+01 0.  1.
         13    1    4    4    0    0 -0.47394739006E+02  0.99889573947E+02 -0.12751278750E+03  0.16877114458E+03  0.00000000000E+00 0. -1.
        -14    1    4    4    0    0  0.14046988115E+02  0.70487920009E+02 -0.26436148880E+02  0.76581555938E+02  0.00000000000E+00 0.  1.
<mgrwt>
<rscale>  2 0.24441415E+03</rscale>
<asrwt>0</asrwt>
<pdfrwt beam="1">  1       21 0.32222296E-01 0.24469554E+03</pdfrwt>
<pdfrwt beam="2">  1       21 0.64209074E-01 0.24469554E+03</pdfrwt>
<totfact> 0.20150425E+04</totfact>
</mgrwt>
</event>
<event>
12    1  0.1074575E-001  0.2600950E+03  0.7546771E-02  0.1107187E+00
         21   -1    0    0  503  502  0.00000000000E+00  0.00000000000E+00  0.54395776886E+03  0.54395776886E+03  0.00000000000E+00 0.  1.
         21   -1    0    0  501  503 -0.00000000000E+00 -0.00000000000E+00 -0.22029117292E+03  0.22029117292E+03  0.00000000000E+00 0. -1.
          6    2    1    2  501    0  0.19319476057E+03  0.15037200230E+02 -0.90628496970E+02  0.27543231324E+03  0.17349092717E+03 0.  0.
         24    2    3    3    0    0  0.22875229795E+02 -0.16649294533E+02 -0.41689104700E+02  0.95349191794E+02  0.80950674972E+02 0.  0.
         -6    2    1    2    0  502 -0.19319476057E+03 -0.15037200230E+02  0.41429509291E+03  0.48881662853E+03  0.17248460633E+03 0.  0.
        -24    2    5    5    0    0 -0.13531375852E+03 -0.85359232696E+01  0.39819392608E+03  0.42820462828E+03  0.80113205463E+02 0.  0.
          5    1    3    3  501    0  0.17031953078E+03  0.31686494763E+02 -0.48939392269E+02  0.18008312145E+03  0.47000000000E+01 0. -1.
        -13    1    4    4    0    0  0.94638126951E+01  0.13998602073E+02  0.19383247899E+02  0.25714488326E+02  0.00000000000E+00 0.  1.
         14    1    4    4    0    0  0.13411417100E+02 -0.30647896606E+02 -0.61072352600E+02  0.69634703468E+02  0.00000000000E+00 0. -1.
         -5    1    5    5    0  502 -0.57881002053E+02 -0.65012769606E+01  0.16101166830E+02  0.60612000248E+02  0.47000000000E+01 0.  1.
         13    1    6    6    0    0 -0.38398258336E+02  0.11846311549E+02  0.40495996680E+02  0.57049864922E+02  0.00000000000E+00 0. -1.
        -14    1    6    6    0    0 -0.96915500185E+02 -0.20382234819E+02  0.35769792940E+03  0.37115476336E+03  0.00000000000E+00 0.  1.
<mgrwt>
<rscale>  2 0.25992735E+03</rscale>
<asrwt>0</asrwt>
<pdfrwt beam="1">  1       21 0.83685810E-01 0.26009505E+03</pdfrwt>
<pdfrwt beam="2">  1       21 0.33890950E-01 0.26009505E+03</pdfrwt>
<totfact> 0.99911993E+03</totfact>
</mgrwt>
</event>
<event>
12    1  0.1074575E-001  0.1885633E+03  0.7546771E-02  0.1159918E+00
         21   -1    0    0  503  502  0.00000000000E+00  0.00000000000E+00  0.33614094199E+03  0.33614094199E+03  0.00000000000E+00 0. -1.
         21   -1    0    0  501  503 -0.00000000000E+00 -0.00000000000E+00 -0.33149461080E+03  0.33149461080E+03  0.00000000000E+00 0. -1.
          6    2    1    2  501    0 -0.42019365026E+02  0.59125159936E+02 -0.27336330244E+03  0.33208977449E+03  0.17405376073E+03 0.  0.
         24    2    3    3    0    0 -0.38550596013E+02 -0.31072462811E+02 -0.14614126456E+03  0.17602831086E+03  0.84717475281E+02 0.  0.
         -6    2    1    2    0  502  0.42019365026E+02 -0.59125159936E+02  0.27800963364E+03  0.33554577830E+03  0.17332109325E+03 0.  0.
        -24    2    5    5    0    0 -0.38968395120E+01 -0.93341406017E+02  0.15170515930E+03  0.19678714047E+03  0.83563866959E+02 0.  0.
          5    1    3    3  501    0 -0.34687690129E+01  0.90197622747E+02 -0.12722203788E+03  0.15606146363E+03  0.47000000000E+01 0. -1.
        -11    1    4    4    0    0  0.10280927280E+02 -0.45228297529E+02 -0.57886717385E+02  0.74176602866E+02  0.00000000000E+00 0.  1.
         12    1    4    4    0    0 -0.48831523293E+02  0.14155834718E+02 -0.88254547173E+02  0.10185170799E+03  0.00000000000E+00 0. -1.
         -5    1    5    5    0  502  0.45916204538E+02  0.34216246081E+02  0.12630447434E+03  0.13875863784E+03  0.47000000000E+01 0.  1.
         13    1    6    6    0    0 -0.26112104838E+02 -0.25866211208E+02  0.10630748476E+03  0.11248192840E+03  0.00000000000E+00 0. -1.
        -14    1    6    6    0    0  0.22215265326E+02 -0.67475194809E+02  0.45397674535E+02  0.84305212064E+02  0.00000000000E+00 0.  1.
<mgrwt>
<rscale>  2 0.18839407E+03</rscale>
<asrwt>0</asrwt>
<pdfrwt beam="1">  1       21 0.51713991E-01 0.18856331E+03</pdfrwt>
<pdfrwt beam="2">  1       21 0.50999171E-01 0.18856331E+03</pdfrwt>
<totfact> 0.13018519E+04</totfact>
</mgrwt>
</event>
<event>
12    1  0.1074575E-001  0.3512424E+03  0.7546771E-02  0.1062347E+00
         21   -1    0    0  503  502  0.00000000000E+00  0.00000000000E+00  0.92944682879E+03  0.92944682879E+03  0.00000000000E+00 0.  1.
         21   -1    0    0  501  503 -0.00000000000E+00 -0.00000000000E+00 -0.50616645230E+03  0.50616645230E+03  0.00000000000E+00 0. -1.
          6    2    1    2  501    0 -0.23215396995E+03 -0.19633473974E+03 -0.40545174514E+03  0.53643487142E+03  0.17586488520E+03 0.  0.
         24    2    3    3    0    0 -0.22527087096E+03 -0.17926562995E+03 -0.27772119912E+03  0.40729961695E+03  0.76686257832E+02 0.  0.
         -6    2    1    2    0  502  0.23215396995E+03  0.19633473974E+03  0.82873212163E+03  0.89917840966E+03  0.17112009580E+03 0.  0.
        -24    2    5    5    0    0  0.48969571964E+02  0.10790498597E+03  0.30918159882E+03  0.34120781835E+03  0.82389376005E+02 0.  0.
          5    1    3    3  501    0 -0.68830989889E+01 -0.17069109786E+02 -0.12773054602E+03  0.12913525448E+03  0.47000000000E+01 0. -1.
        -13    1    4    4    0    0 -0.72116054640E+02 -0.88327508452E+02 -0.70564465593E+02  0.13409630081E+03  0.00000000000E+00 0.  1.
         14    1    4    4    0    0 -0.15315481632E+03 -0.90938121500E+02 -0.20715673353E+03  0.27320331614E+03  0.00000000000E+00 0. -1.
         -5    1    5    5    0  502  0.18318439798E+03  0.88429753770E+02  0.51955052281E+03  0.55797059131E+03  0.47000000000E+01 0.  1.
         13    1    6    6    0    0  0.53835031737E+02  0.58470799685E+02  0.10866136836E+03  0.13462666167E+03  0.00000000000E+00 0. -1.
        -14    1    6    6    0    0 -0.48654597731E+01  0.49434186283E+02  0.20052023046E+03  0.20658115668E+03  0.00000000000E+00 0.  1.
<mgrwt>
<rscale>  2 0.35065308E+03</rscale>
<asrwt>0</asrwt>
<pdfrwt beam="1">  1       21 0.14299182E+00 0.35124244E+03</pdfrwt>
<pdfrwt beam="2">  1       21 0.77871762E-01 0.35124244E+03</pdfrwt>
<totfact> 0.43353551E+02</totfact>
</mgrwt>
</event>
<event>
12    1  0.1074575E-001  0.2426727E+03  0.7546771E-02  0.1118363E+00
         21   -1    0    0  501  502  0.00000000000E+00  0.00000000000E+00  0.29803342453E+03  0.29803342453E+03  0.00000000000E+00 0. -1.
         21   -1    0    0  502  503 -0.00000000000E+00 -0.00000000000E+00 -0.23798946494E+03  0.23798946494E+03  0.00000000000E+00 0. -1.
         -6    2    1    2    0  503 -0.14951343078E+03 -0.79642409330E+02  0.14258581181E+03  0.27969658377E+03  0.17088676337E+03 0.  0.
        -24    2    3    3    0    0 -0.59255633806E+02  0.19297762595E+02  0.34971058874E+02  0.10782845821E+03  0.80748793564E+02 0.  0.
          6    2    1    2  501    0  0.14951343078E+03  0.79642409330E+02 -0.82541852213E+02  0.25632630570E+03  0.17376086522E+03 0.  0.
         24    2    5    5    0    0  0.52825346613E+02  0.27349415041E+02 -0.10483370460E+03  0.14406696509E+03  0.78909296437E+02 0.  0.
          5    1    5    5  501    0  0.96688084165E+02  0.52292994289E+02  0.22291852384E+02  0.11225934061E+03  0.47000000000E+01 0. -1.
        -11    1    6    6    0    0  0.13962812507E+02  0.85925309259E+01  0.11474684378E+02  0.20011499254E+02  0.00000000000E+00 0.  1.
         12    1    6    6    0    0  0.38862534106E+02  0.18756884115E+02 -0.11630838897E+03  0.12405546584E+03  0.00000000000E+00 0. -1.
         -5    1    3    3    0  503 -0.90257796973E+02 -0.98940171925E+02  0.10761475293E+03  0.17186812556E+03  0.47000000000E+01 0.  1.
         13    1    4    4    0    0 -0.26185684036E+02 -0.88282234627E+01 -0.22617442658E+02  0.35709610616E+02  0.00000000000E+00 0. -1.
        -14    1    4    4    0    0 -0.33069949770E+02  0.28125986057E+02  0.57588501532E+02  0.72118847594E+02  0.00000000000E+00 0.  1.
<mgrwt>
<rscale>  2 0.24215863E+03</rscale>
<asrwt>0</asrwt>
<pdfrwt beam="1">  1       21 0.45851296E-01 0.24267266E+03</pdfrwt>
<pdfrwt beam="2">  1       21 0.36613764E-01 0.24267266E+03</pdfrwt>
<totfact> 0.31990015E+04</totfact>
</mgrwt>
</event>
<event>
12    1  0.1074575E-001  0.2763931E+03  0.7546771E-02  0.1097728E+00
         21   -1    0    0  503  502  0.00000000000E+00  0.00000000000E+00  0.31102778275E+03  0.31102778275E+03  0.00000000000E+00 0. -1.
         21   -1    0    0  501  503 -0.00000000000E+00 -0.00000000000E+00 -0.24835759756E+03  0.24835759756E+03  0.00000000000E+00 0. -1.
          6    2    1    2  501    0 -0.12618985241E+03  0.17463305172E+03  0.62458001982E+02  0.28299216897E+03  0.17251951798E+03 0.  0.
         24    2    3    3    0    0 -0.26221923792E+02  0.69745108732E+02  0.79491605591E+02  0.13702196315E+03  0.83091115924E+02 0.  0.
         -6    2    1    2    0  502  0.12618985241E+03 -0.17463305172E+03  0.21218321680E+00  0.27639321134E+03  0.17312590981E+03 0.  0.
        -24    2    5    5    0    0  0.14527233549E+03 -0.12044013274E+03  0.36400250417E+02  0.20832941895E+03  0.80413254721E+02 0.  0.
          5    1    3    3  501    0 -0.99967928623E+02  0.10488794299E+03 -0.17033603609E+02  0.14597020583E+03  0.47000000000E+01 0. -1.
        -11    1    4    4    0    0  0.12453646726E+02  0.38715373925E+02 -0.29949122999E+01  0.40779198063E+02  0.00000000000E+00 0.  1.
         12    1    4    4    0    0 -0.38675570519E+02  0.31029734807E+02  0.82486517891E+02  0.96242765083E+02  0.00000000000E+00 0. -1.
         -5    1    5    5    0  502 -0.19082483070E+02 -0.54192918974E+02 -0.36188067201E+02  0.68063792392E+02  0.47000000000E+01 0.  1.
         11    1    6    6    0    0  0.11559779397E+03 -0.71896944280E+02 -0.76916048769E+01  0.13634948241E+03  0.00000000000E+00 0. -1.
        -12    1    6    6    0    0  0.29674541513E+02 -0.48543188464E+02  0.44091855294E+02  0.71979936535E+02  0.00000000000E+00 0.  1.
<mgrwt>
<rscale>  2 0.27629822E+03</rscale>
<asrwt>0</asrwt>
<pdfrwt beam="1">  1       21 0.47850428E-01 0.27639313E+03</pdfrwt>
<pdfrwt beam="2">  1       21 0.38208861E-01 0.27639313E+03</pdfrwt>
<totfact> 0.26475550E+04</totfact>
</mgrwt>
</event>
<event>
12    1  0.1074575E-001  0.1755917E+03  0.7546771E-02  0.1172330E+00
         21   -1    0    0  503  502  0.00000000000E+00  0.00000000000E+00  0.51062445766E+03  0.51062445766E+03  0.00000000000E+00 0.  1.
         21   -1    0    0  501  503 -0.00000000000E+00 -0.00000000000E+00 -0.64998219762E+02  0.64998219762E+02  0.00000000000E+00 0.  1.
          6    2    1    2  501    0  0.23372924268E+02 -0.13079476558E+02  0.30121694650E+03  0.34827602213E+03  0.17276334228E+03 0.  0.
         24    2    3    3    0    0 -0.89589006078E+01  0.42727631919E+02  0.10621175446E+03  0.14282798690E+03  0.84929291930E+02 0.  0.
         -6    2    1    2    0  502 -0.23372924268E+02  0.13079476558E+02  0.14440929141E+03  0.22734665530E+03  0.17353700451E+03 0.  0.
        -24    2    5    5    0    0 -0.55213652605E+02  0.51790390699E+02  0.13993581512E+03  0.17680490182E+03  0.77117760283E+02 0.  0.
          5    1    3    3  501    0  0.32331824876E+02 -0.55807108477E+02  0.19500519204E+03  0.20544803522E+03  0.47000000000E+01 0. -1.
        -13    1    4    4    0    0 -0.10771898562E+02  0.54708956801E+02  0.11503629422E+03  0.12783760300E+03  0.00000000000E+00 0.  1.
         14    1    4    4    0    0  0.18129979539E+01 -0.11981324881E+02 -0.88245397620E+01  0.14990383901E+02  0.00000000000E+00 0. -1.
         -5    1    5    5    0  502  0.31840728337E+02 -0.38710914141E+02  0.44734762825E+01  0.50541753479E+02  0.47000000000E+01 0.  1.
         13    1    6    6    0    0 -0.68668178555E+02  0.17358042459E+02  0.85920144787E+02  0.11135031057E+03  0.00000000000E+00 0. -1.
        -14    1    6    6    0    0  0.13454525950E+02  0.34432348240E+02  0.54015670338E+02  0.65454591251E+02  0.00000000000E+00 0.  1.
<mgrwt>
<rscale>  2 0.17540028E+03</rscale>
<asrwt>0</asrwt>
<pdfrwt beam="1">  1       21 0.78557606E-01 0.17559174E+03</pdfrwt>
<pdfrwt beam="2">  1       21 0.99997265E-02 0.17559174E+03</pdfrwt>
<totfact> 0.11703423E+05</totfact>
</mgrwt>
</event>
<event>
12    1  0.1074575E-001  0.1823619E+03  0.7546771E-02  0.1166108E+00
         21   -1    0    0  503  502  0.00000000000E+00  0.00000000000E+00  0.19281441553E+03  0.19281441553E+03  0.00000000000E+00 0. -1.
         21   -1    0    0  501  503 -0.00000000000E+00 -0.00000000000E+00 -0.20296543740E+03  0.20296543740E+03  0.00000000000E+00 0. -1.
          6    2    1    2  501    0  0.43064996259E+02 -0.33798807308E+02 -0.84523139970E+02  0.19883550687E+03  0.17144808055E+03 0.  0.
         24    2    3    3    0    0  0.56964000639E+02  0.25137089701E+02 -0.87104456243E+01  0.10169500603E+03  0.79932670054E+02 0.  0.
         -6    2    1    2    0  502 -0.43064996259E+02  0.33798807308E+02  0.74372118101E+02  0.19694434606E+03  0.17395088450E+03 0.  0.
        -24    2    5    5    0    0 -0.13438365139E+02  0.79072449040E+02  0.16452036660E+02  0.11754493963E+03  0.84339204813E+02 0.  0.
          5    1    3    3  501    0 -0.13899004381E+02 -0.58935897009E+02 -0.75812694346E+02  0.97140500838E+02  0.47000000000E+01 0. -1.
        -13    1    4    4    0    0 -0.98626791058E+01 -0.17527246795E+02  0.61475582076E+01  0.21030199506E+02  0.00000000000E+00 0.  1.
         14    1    4    4    0    0  0.66826679745E+02  0.42664336496E+02 -0.14858003832E+02  0.80664806528E+02  0.00000000000E+00 0. -1.
         -5    1    5    5    0  502 -0.29626631120E+02 -0.45273641732E+02  0.57920081441E+02  0.79399406429E+02  0.47000000000E+01 0.  1.
         13    1    6    6    0    0 -0.42615734787E+02  0.14508047000E+02  0.10015199173E+01  0.45028738838E+02  0.00000000000E+00 0. -1.
        -14    1    6    6    0    0  0.29177369647E+02  0.64564402040E+02  0.15450516743E+02  0.72516200796E+02  0.00000000000E+00 0.  1.
<mgrwt>
<rscale>  2 0.18176250E+03</rscale>
<asrwt>0</asrwt>
<pdfrwt beam="1">  1       21 0.29663756E-01 0.18236190E+03</pdfrwt>
<pdfrwt beam="2">  1       21 0.31225452E-01 0.18236190E+03</pdfrwt>
<totfact> 0.10774567E+05</totfact>
</mgrwt>
</event>
<event>
12    1  0.1074575E-001  0.2114823E+03  0.7546771E-02  0.1140586E+00
         21   -1    0    0  503  502  0.00000000000E+00  0.00000000000E+00  0.83579117499E+03  0.83579117499E+03  0.00000000000E+00 0.  1.
         21   -1    0    0  501  503 -0.00000000000E+00 -0.00000000000E+00 -0.62293341512E+02  0.62293341512E+02  0.00000000000E+00 0. -1.
          6    2    1    2  501    0 -0.10622252798E+03  0.57166265497E+02  0.21659203187E+03  0.30271579632E+03  0.17370531860E+03 0.  0.
         24    2    3    3    0    0  0.57842714410E+01 -0.77329711579E+00  0.10781367059E+03  0.13611046053E+03  0.82874689227E+02 0.  0.
         -6    2    1    2    0  502  0.10622252798E+03 -0.57166265497E+02  0.55690580161E+03  0.59536872018E+03  0.17253589118E+03 0.  0.
        -24    2    5    5    0    0 -0.11124585235E+02 -0.49222170444E+01  0.18674808895E+03  0.20352869183E+03  0.80006843794E+02 0.  0.
          5    1    3    3  501    0 -0.11200679942E+03  0.57939562613E+02  0.10877836128E+03  0.16660533579E+03  0.47000000000E+01 0. -1.
        -11    1    4    4    0    0 -0.17674453269E+02 -0.36294961570E+02  0.56450624793E+02  0.69400169836E+02  0.00000000000E+00 0.  1.
         12    1    4    4    0    0  0.23458724710E+02  0.35521664454E+02  0.51363045796E+02  0.66710290691E+02  0.00000000000E+00 0. -1.
         -5    1    5    5    0  502  0.11734711321E+03 -0.52244048453E+02  0.37015771266E+03  0.39184002836E+03  0.47000000000E+01 0.  1.
         11    1    6    6    0    0  0.53987940844E+01 -0.40806559223E+02  0.10340376753E+03  0.11129537902E+03  0.00000000000E+00 0. -1.
        -12    1    6    6    0    0 -0.16523379320E+02  0.35884342178E+02  0.83344321421E+02  0.92233312804E+02  0.00000000000E+00 0.  1.
<mgrwt>
<rscale>  2 0.21124198E+03</rscale>
<asrwt>0</asrwt>
<pdfrwt beam="1">  1       21 0.12858325E+00 0.21148226E+03</pdfrwt>
<pdfrwt beam="2">  1       21 0.95835916E-02 0.21148226E+03</pdfrwt>
<totfact> 0.38456751E+04</totfact>
</mgrwt>
</event>
<event>
12    1  0.1074575E-001  0.2140271E+03  0.7546771E-02  0.1138512E+00
         21   -1    0    0  501  502  0.00000000000E+00  0.00000000000E+00  0.43282928175E+03  0.43282928175E+03  0.00000000000E+00 0. -1.
         21   -1    0    0  502  503 -0.00000000000E+00 -0.00000000000E+00 -0.15161084954E+03  0.15161084954E+03  0.00000000000E+00 0. -1.
         -6    2    1    2    0  503  0.90913392033E+02  0.85612226157E+02 -0.20508280424E+02  0.21451230123E+03  0.17320577269E+03 0.  0.
        -24    2    3    3    0    0 -0.70414978875E+01  0.54473114703E+02 -0.47099777988E+02  0.10823905688E+03  0.80500940552E+02 0.  0.
          6    2    1    2  501    0 -0.90913392033E+02 -0.85612226157E+02  0.30172671263E+03  0.36992783006E+03  0.17381856122E+03 0.  0.
         24    2    5    5    0    0 -0.91321371072E+02  0.24586982281E+01  0.13529566512E+03  0.18157168404E+03  0.79484095481E+02 0.  0.
          5    1    5    5  501    0  0.40797903894E+00 -0.88070924385E+02  0.16643104751E+03  0.18835614602E+03  0.47000000000E+01 0. -1.
        -13    1    6    6    0    0 -0.61325727099E+01  0.82753696821E+01  0.78151306624E+02  0.78827133136E+02  0.00000000000E+00 0.  1.
         14    1    6    6    0    0 -0.85188798362E+02 -0.58166714540E+01  0.57144358498E+02  0.10274455091E+03  0.00000000000E+00 0. -1.
         -5    1    3    3    0  503  0.97954889921E+02  0.31139111453E+02  0.26591497564E+02  0.10627324435E+03  0.47000000000E+01 0.  1.
         11    1    4    4    0    0 -0.29485928211E+02  0.65818673139E+02 -0.31970730420E+02  0.78890083660E+02  0.00000000000E+00 0. -1.
        -12    1    4    4    0    0  0.22444430324E+02 -0.11345558436E+02 -0.15129047567E+02  0.29348973220E+02  0.00000000000E+00 0.  1.
<mgrwt>
<rscale>  2 0.21390263E+03</rscale>
<asrwt>0</asrwt>
<pdfrwt beam="1">  1       21 0.66589120E-01 0.21402708E+03</pdfrwt>
<pdfrwt beam="2">  1       21 0.23324746E-01 0.21402708E+03</pdfrwt>
<totfact> 0.35336503E+04</totfact>
</mgrwt>
</event>
<event>
12    1  0.1074575E-001  0.1893032E+03  0.7546771E-02  0.1159430E+00
         21   -1    0    0  501  502  0.00000000000E+00  0.00000000000E+00  0.18096206291E+03  0.18096206291E+03  0.00000000000E+00 0. -1.
         21   -1    0    0  502  503 -0.00000000000E+00 -0.00000000000E+00 -0.27272393690E+03  0.27272393690E+03  0.00000000000E+00 0. -1.
         -6    2    1    2    0  503 -0.71417112805E+02 -0.21261246766E+02 -0.16569464545E+03  0.25045764751E+03  0.17240032787E+03 0.  0.
        -24    2    3    3    0    0  0.18091207083E+02 -0.21562218260E+01 -0.32728106927E+02  0.88967921289E+02  0.80698333125E+02 0.  0.
          6    2    1    2  501    0  0.71417112805E+02  0.21261246766E+02  0.73932771462E+02  0.20322835230E+03  0.17402087193E+03 0.  0.
         24    2    5    5    0    0  0.25215106314E+02 -0.41156475373E+02 -0.34266353341E+01  0.93514336515E+02  0.80022073533E+02 0.  0.
          5    1    5    5  501    0  0.46202006490E+02  0.62417722139E+02  0.77359406796E+02  0.10971401579E+03  0.47000000000E+01 0. -1.
        -13    1    6    6    0    0 -0.20387942022E+02  0.21598202556E+01 -0.19820768918E+02  0.28516589627E+02  0.00000000000E+00 0.  1.
         14    1    6    6    0    0  0.45603048336E+02 -0.43316295629E+02  0.16394133584E+02  0.64997746888E+02  0.00000000000E+00 0. -1.
         -5    1    3    3    0  503 -0.89508319888E+02 -0.19105024940E+02 -0.13296653852E+03  0.16148972622E+03  0.47000000000E+01 0.  1.
         13    1    4    4    0    0  0.37132302998E+01 -0.22165015434E+02 -0.52673663668E+02  0.57267711956E+02  0.00000000000E+00 0. -1.
        -14    1    4    4    0    0  0.14377976784E+02  0.20008793608E+02  0.19945556741E+02  0.31700209333E+02  0.00000000000E+00 0.  1.
<mgrwt>
<rscale>  2 0.18892996E+03</rscale>
<asrwt>0</asrwt>
<pdfrwt beam="1">  1       21 0.27840317E-01 0.18930322E+03</pdfrwt>
<pdfrwt beam="2">  1       21 0.41957529E-01 0.18930322E+03</pdfrwt>
<totfact> 0.67451436E+04</totfact>
</mgrwt>
</event>
<event>
12    1  0.1074575E-001  0.2642110E+03  0.7546771E-02  0.1104676E+00
         21   -1    0    0  503  502  0.00000000000E+00  0.00000000000E+00  0.44087986330E+03  0.44087986330E+03  0.00000000000E+00 0. -1.
         21   -1    0    0  501  503 -0.00000000000E+00 -0.00000000000E+00 -0.15838780653E+03  0.15838780653E+03  0.00000000000E+00 0.  1.
          6    2    1    2  501    0  0.16578344298E+03  0.11046744297E+03  0.13054588584E+03  0.29448070698E+03  0.17317463021E+03 0.  0.
         24    2    3    3    0    0  0.78086112903E+02 -0.14789145213E+02  0.39871498407E+02  0.11664941298E+03  0.75506220403E+02 0.  0.
         -6    2    1    2    0  502 -0.16578344298E+03 -0.11046744297E+03  0.15194617092E+03  0.30478696285E+03  0.17355185952E+03 0.  0.
        -24    2    5    5    0    0 -0.19004315029E+02 -0.49246179381E+01  0.27951398620E+02  0.85514999582E+02  0.78397185007E+02 0.  0.
          5    1    3    3  501    0  0.87697330079E+02  0.12525658819E+03  0.90674387435E+02  0.17783129400E+03  0.47000000000E+01 0. -1.
        -11    1    4    4    0    0  0.38758171511E+02 -0.19033989361E+02 -0.17809225066E+02  0.46708212419E+02  0.00000000000E+00 0.  1.
         12    1    4    4    0    0  0.39327941391E+02  0.42448441478E+01  0.57680723473E+02  0.69941200564E+02  0.00000000000E+00 0. -1.
         -5    1    5    5    0  502 -0.14677912795E+03 -0.10554282504E+03  0.12399477230E+03  0.21927196327E+03  0.47000000000E+01 0.  1.
         13    1    6    6    0    0 -0.11748773050E+02 -0.24779603783E+02  0.48702585891E+02  0.55892792955E+02  0.00000000000E+00 0. -1.
        -14    1    6    6    0    0 -0.72555419788E+01  0.19854985845E+02 -0.20751187271E+02  0.29622206627E+02  0.00000000000E+00 0.  1.
<mgrwt>
<rscale>  2 0.26414907E+03</rscale>
<asrwt>0</asrwt>
<pdfrwt beam="1">  1       21 0.67827671E-01 0.26421100E+03</pdfrwt>
<pdfrwt beam="2">  1       21 0.24367355E-01 0.26421100E+03</pdfrwt>
<totfact> 0.30502262E+04</totfact>
</mgrwt>
</event>
<event>
12    1  0.1074575E-001  0.2161384E+03  0.7546771E-02  0.1136949E+00
         21   -1    0    0  501  502  0.00000000000E+00  0.00000000000E+00  0.40878980723E+03  0.40878980723E+03  0.00000000000E+00 0. -1.
         21   -1    0    0  502  503 -0.00000000000E+00 -0.00000000000E+00 -0.35701837644E+03  0.35701837644E+03  0.00000000000E+00 0. -1.
         -6    2    1    2    0  503  0.12887329217E+03  0.76253602013E+01 -0.29010559228E+03  0.36176937508E+03  0.17334749642E+03 0.  0.
        -24    2    3    3    0    0  0.55443408217E+02  0.56409589572E+02 -0.22822205999E+03  0.25395698960E+03  0.78439980824E+02 0.  0.
          6    2    1    2  501    0 -0.12887329217E+03 -0.76253602013E+01  0.34187702307E+03  0.40403880859E+03  0.17233974699E+03 0.  0.
         24    2    5    5    0    0 -0.14938144836E+03  0.29427794351E+02  0.24195609143E+03  0.29541190901E+03  0.74462296571E+02 0.  0.
          5    1    5    5  501    0  0.20508156193E+02 -0.37053154553E+02  0.99920931640E+02  0.10862689958E+03  0.47000000000E+01 0. -1.
        -11    1    6    6    0    0 -0.55273865826E+02  0.17397958502E+02  0.15954882528E+03  0.16974603633E+03  0.00000000000E+00 0.  1.
         12    1    6    6    0    0 -0.94107582535E+02  0.12029835850E+02  0.82407266152E+02  0.12566587268E+03  0.00000000000E+00 0. -1.
         -5    1    3    3    0  503  0.73429883950E+02 -0.48784229371E+02 -0.61883532296E+02  0.10781238547E+03  0.47000000000E+01 0.  1.
         13    1    4    4    0    0  0.30903959289E+02  0.58126544242E+02 -0.79518480307E+02  0.10323244914E+03  0.00000000000E+00 0. -1.
        -14    1    4    4    0    0  0.24539448929E+02 -0.17169546701E+01 -0.14870357968E+03  0.15072454046E+03  0.00000000000E+00 0.  1.
<mgrwt>
<rscale>  2 0.21593631E+03</rscale>
<asrwt>0</asrwt>
<pdfrwt beam="1">  1       21 0.62890739E-01 0.21613844E+03</pdfrwt>
<pdfrwt beam="2">  1       21 0.54925905E-01 0.21613844E+03</pdfrwt>
<totfact> 0.72021336E+03</totfact>
</mgrwt>
</event>
<event>
12    1  0.1074575E-001  0.2020571E+03  0.7546771E-02  0.1149283E+00
         21   -1    0    0  503  502  0.00000000000E+00  0.00000000000E+00  0.74153881461E+03  0.74153881461E+03  0.00000000000E+00 0. -1.
         21   -1    0    0  501  503 -0.00000000000E+00 -0.00000000000E+00 -0.53436234581E+02  0.53436234581E+02  0.00000000000E+00 0. -1.
          6    2    1    2  501    0 -0.82850847580E+02  0.53877861369E+02  0.34776760118E+03  0.40220566169E+03  0.17623848325E+03 0.  0.
         24    2    3    3    0    0 -0.12554229694E+03  0.29225060229E+02  0.25010467720E+03  0.29270471570E+03  0.80676691604E+02 0.  0.
         -6    2    1    2    0  502  0.82850847580E+02 -0.53877861369E+02  0.34033497885E+03  0.39276938750E+03  0.16933046695E+03 0.  0.
        -24    2    5    5    0    0  0.13125759776E+02 -0.78387338602E+02  0.26132267076E+03  0.28447655684E+03  0.79501652261E+02 0.  0.
          5    1    3    3  501    0  0.42691449365E+02  0.24652801140E+02  0.97662923986E+02  0.10950094600E+03  0.47000000000E+01 0. -1.
        -13    1    4    4    0    0 -0.57003491003E+00  0.26808923770E+02  0.50906563585E+02  0.57537131919E+02  0.00000000000E+00 0.  1.
         14    1    4    4    0    0 -0.12497226203E+03  0.24161364592E+01  0.19919811361E+03  0.23516758378E+03  0.00000000000E+00 0. -1.
         -5    1    5    5    0  502  0.69725087804E+02  0.24509477234E+02  0.79012308085E+02  0.10829283066E+03  0.47000000000E+01 0.  1.
         13    1    6    6    0    0  0.41389506044E+02 -0.30455014764E+02  0.82486825548E+02  0.97183720467E+02  0.00000000000E+00 0. -1.
        -14    1    6    6    0    0 -0.28263746268E+02 -0.47932323838E+02  0.17883584521E+03  0.18729283637E+03  0.00000000000E+00 0.  1.
<mgrwt>
<rscale>  2 0.20054112E+03</rscale>
<asrwt>0</asrwt>
<pdfrwt beam="1">  1       21 0.11408289E+00 0.20205715E+03</pdfrwt>
<pdfrwt beam="2">  1       21 0.82209597E-02 0.20205715E+03</pdfrwt>
<totfact> 0.68097910E+04</totfact>
</mgrwt>
</event>
<event>
12    1  0.1074575E-001  0.3104856E+03  0.7546771E-02  0.1080230E+00
         21   -1    0    0  503  502  0.00000000000E+00  0.00000000000E+00  0.44360823018E+03  0.44360823018E+03  0.00000000000E+00 0.  1.
         21   -1    0    0  501  503 -0.00000000000E+00 -0.00000000000E+00 -0.42166023245E+03  0.42166023245E+03  0.00000000000E+00 0. -1.
          6    2    1    2  501    0 -0.56105716151E+02  0.25084361850E+03 -0.29069671412E+03  0.42533030403E+03  0.17415773195E+03 0.  0.
         24    2    3    3    0    0  0.29153326466E+01  0.18391442490E+03 -0.26393367459E+03  0.33204926929E+03  0.82235745292E+02 0.  0.
         -6    2    1    2    0  502  0.56105716151E+02 -0.25084361850E+03  0.31264471186E+03  0.43993815861E+03  0.17241953259E+03 0.  0.
        -24    2    5    5    0    0  0.76495475363E+02 -0.84570330085E+02  0.10564409264E+03  0.17360397928E+03  0.77291453803E+02 0.  0.
          5    1    3    3  501    0 -0.59021048797E+02  0.66929193594E+02 -0.26763039533E+02  0.93281034736E+02  0.47000000000E+01 0. -1.
        -11    1    4    4    0    0  0.63311225111E+01  0.26336745609E+02 -0.30612298617E+01  0.27259464591E+02  0.00000000000E+00 0.  1.
         12    1    4    4    0    0 -0.34157898645E+01  0.15757767929E+03 -0.26087244472E+03  0.30478980470E+03  0.00000000000E+00 0. -1.
         -5    1    5    5    0  502 -0.20389759212E+02 -0.16627328841E+03  0.20700061922E+03  0.26633417932E+03  0.47000000000E+01 0.  1.
         13    1    6    6    0    0  0.18027974038E+02  0.30368977725E+00 -0.83986411159E+01  0.19890632167E+02  0.00000000000E+00 0. -1.
        -14    1    6    6    0    0  0.58467501325E+02 -0.84874019863E+02  0.11404273376E+03  0.15371334711E+03  0.00000000000E+00 0.  1.
<mgrwt>
<rscale>  2 0.31024237E+03</rscale>
<asrwt>0</asrwt>
<pdfrwt beam="1">  1       21 0.68247420E-01 0.31048557E+03</pdfrwt>
<pdfrwt beam="2">  1       21 0.64870805E-01 0.31048557E+03</pdfrwt>
<totfact> 0.39754608E+03</totfact>
</mgrwt>
</event>
<event>
12    1  0.1074575E-001  0.1904926E+03  0.7546771E-02  0.1158054E+00
         21   -1    0    0  503  502  0.00000000000E+00  0.00000000000E+00  0.12665769150E+03  0.12665769150E+03  0.00000000000E+00 0. -1.
         21   -1    0    0  501  503 -0.00000000000E+00 -0.00000000000E+00 -0.28898878249E+03  0.28898878249E+03  0.00000000000E+00 0.  1.
          6    2    1    2  501    0 -0.10862310723E+02  0.77699919534E+02 -0.60931386887E+02  0.19984716950E+03  0.17340989002E+03 0.  0.
         24    2    3    3    0    0 -0.19487602327E+02  0.11827808216E+03 -0.28405181423E+02  0.14692244013E+03  0.80061711936E+02 0.  0.
         -6    2    1    2    0  502  0.10862310723E+02 -0.77699919534E+02 -0.10139970411E+03  0.21579930450E+03  0.17358621068E+03 0.  0.
        -24    2    5    5    0    0 -0.30506521490E+02 -0.74548228038E+01  0.95677147608E+00  0.84861563614E+02  0.78831131737E+02 0.  0.
          5    1    3    3  501    0  0.86252916036E+01 -0.40578162621E+02 -0.32526205464E+02  0.52924729370E+02  0.47000000000E+01 0. -1.
        -11    1    4    4    0    0  0.14106954131E+02  0.25122687821E+02 -0.37711152152E+02  0.47458261608E+02  0.00000000000E+00 0.  1.
         12    1    4    4    0    0 -0.33594556458E+02  0.93155394334E+02  0.93059707286E+01  0.99464178518E+02  0.00000000000E+00 0. -1.
         -5    1    5    5    0  502  0.41368832213E+02 -0.70245096730E+02 -0.10235647559E+03  0.13093774088E+03  0.47000000000E+01 0.  1.
         11    1    6    6    0    0 -0.35516240253E+02 -0.26292404073E+02  0.27411782841E+02  0.52000958378E+02  0.00000000000E+00 0. -1.
        -12    1    6    6    0    0  0.50097187627E+01  0.18837581269E+02 -0.26455011365E+02  0.32860605236E+02  0.00000000000E+00 0.  1.
<mgrwt>
<rscale>  2 0.19045245E+03</rscale>
<asrwt>0</asrwt>
<pdfrwt beam="1">  1       21 0.19485799E-01 0.19049262E+03</pdfrwt>
<pdfrwt beam="2">  1       21 0.44459813E-01 0.19049262E+03</pdfrwt>
<totfact> 0.11780433E+05</totfact>
</mgrwt>
</event>
<event>
12    1  0.1074575E-001  0.1846849E+03  0.7546771E-02  0.1163559E+00
         21   -1    0    0  501  502  0.00000000000E+00  0.00000000000E+00  0.36561920108E+02  0.36561920108E+02  0.00000000000E+00 0. -1.
         21   -1    0    0  502  503 -0.00000000000E+00 -0.00000000000E+00 -0.96084174925E+03  0.96084174925E+03  0.00000000000E+00 0. -1.
         -6    2    1    2    0  503  0.51851748970E+02  0.30899588698E+02 -0.55504614499E+03  0.58496557136E+03  0.17454256831E+03 0.  0.
        -24    2    3    3    0    0 -0.19608590792E+01 -0.34741779053E+02 -0.34012931041E+03  0.35384672373E+03  0.91152179952E+02 0.  0.
          6    2    1    2  501    0 -0.51851748970E+02 -0.30899588698E+02 -0.36923368415E+03  0.41243809800E+03  0.17357500603E+03 0.  0.
         24    2    5    5    0    0 -0.35341190798E+02  0.41965070428E+02 -0.12743599250E+03  0.15931743355E+03  0.78307378625E+02 0.  0.
          5    1    5    5  501    0 -0.16510558172E+02 -0.72864659126E+02 -0.24179769165E+03  0.25312066444E+03  0.47000000000E+01 0. -1.
        -13    1    6    6    0    0 -0.75908053233E+01 -0.23341824278E+02 -0.36179568555E+02  0.43719815495E+02  0.00000000000E+00 0.  1.
         14    1    6    6    0    0 -0.27750385474E+02  0.65306894706E+02 -0.91256423943E+02  0.11559761806E+03  0.00000000000E+00 0. -1.
         -5    1    3    3    0  503  0.53812608049E+02  0.65641367752E+02 -0.21491683458E+03  0.23111884763E+03  0.47000000000E+01 0.  1.
         11    1    4    4    0    0  0.42334033164E+02 -0.78186077438E+01 -0.11413532834E+03  0.12198431935E+03  0.00000000000E+00 0. -1.
        -12    1    4    4    0    0 -0.44294892243E+02 -0.26923171310E+02 -0.22599398207E+03  0.23186240438E+03  0.00000000000E+00 0.  1.
<mgrwt>
<rscale>  2 0.18445589E+03</rscale>
<asrwt>0</asrwt>
<pdfrwt beam="1">  1       21 0.56249108E-02 0.18468486E+03</pdfrwt>
<pdfrwt beam="2">  1       21 0.14782181E+00 0.18468486E+03</pdfrwt>
<totfact> 0.68669446E+04</totfact>
</mgrwt>
</event>
<event>
12    1  0.1074575E-001  0.1971365E+03  0.7546771E-02  0.1152427E+00
         21   -1    0    0  501  502  0.00000000000E+00  0.00000000000E+00  0.44580374767E+02  0.44580374767E+02  0.00000000000E+00 0. -1.
         21   -1    0    0  502  503 -0.00000000000E+00 -0.00000000000E+00 -0.12176173477E+04  0.12176173477E+04  0.00000000000E+00 0.  1.
         -6    2    1    2    0  503 -0.63252972609E+02 -0.69179266564E+02 -0.92411770458E+03  0.94467037304E+03  0.17211005875E+03 0.  0.
        -24    2    3    3    0    0 -0.62235626180E+02 -0.11207787061E+03 -0.66355690315E+03  0.68055799835E+03  0.80104326714E+02 0.  0.
          6    2    1    2  501    0  0.63252972609E+02  0.69179266564E+02 -0.24891926836E+03  0.31752734943E+03  0.17342464072E+03 0.  0.
         24    2    5    5    0    0  0.75430146401E+02  0.39330762184E+02 -0.71879389176E+02  0.13751505653E+03  0.80666773476E+02 0.  0.
          5    1    5    5  501    0 -0.12177173792E+02  0.29848504380E+02 -0.17703987918E+03  0.18001229290E+03  0.47000000000E+01 0. -1.
        -13    1    6    6    0    0 -0.94558358809E+01 -0.10877035071E+02  0.16387064059E+01  0.14505450108E+02  0.00000000000E+00 0.  1.
         14    1    6    6    0    0  0.84885982281E+02  0.50207797255E+02 -0.73518095581E+02  0.12300960642E+03  0.00000000000E+00 0. -1.
         -5    1    3    3    0  503 -0.10173464287E+01  0.42898604047E+02 -0.26056080143E+03  0.26411237469E+03  0.47000000000E+01 0.  1.
         13    1    4    4    0    0 -0.49153108392E+02 -0.62145416781E+02 -0.21673096428E+03  0.23076046405E+03  0.00000000000E+00 0. -1.
        -14    1    4    4    0    0 -0.13082517788E+02 -0.49932453830E+02 -0.44682593887E+03  0.44979753430E+03  0.00000000000E+00 0.  1.
<mgrwt>
<rscale>  2 0.19684704E+03</rscale>
<asrwt>0</asrwt>
<pdfrwt beam="1">  1       21 0.68585201E-02 0.19713654E+03</pdfrwt>
<pdfrwt beam="2">  1       21 0.18732572E+00 0.19713654E+03</pdfrwt>
<totfact> 0.25374487E+04</totfact>
</mgrwt>
</event>
<event>
12    1  0.1074575E-001  0.2091156E+03  0.7546771E-02  0.1143446E+00
         21   -1    0    0  503  502  0.00000000000E+00  0.00000000000E+00  0.73591404261E+03  0.73591404261E+03  0.00000000000E+00 0.  1.
         21   -1    0    0  501  503 -0.00000000000E+00 -0.00000000000E+00 -0.10654845333E+03  0.10654845333E+03  0.00000000000E+00 0. -1.
          6    2    1    2  501    0 -0.98612869866E+02  0.37277587657E+02  0.27299931942E+02  0.20511457737E+03  0.17381768299E+03 0.  0.
         24    2    3    3    0    0 -0.67390950494E+02  0.32916391360E+02  0.85011986032E+02  0.13918583197E+03  0.80750411910E+02 0.  0.
         -6    2    1    2    0  502  0.98612869866E+02 -0.37277587657E+02  0.60206565735E+03  0.63734791857E+03  0.18059677989E+03 0.  0.
        -24    2    5    5    0    0 -0.19485141891E+02 -0.61165650312E+01  0.31440982178E+03  0.32480013111E+03  0.78895538620E+02 0.  0.
          5    1    3    3  501    0 -0.31221919372E+02  0.43611962964E+01 -0.57712054090E+02  0.65928745398E+02  0.47000000000E+01 0. -1.
        -11    1    4    4    0    0 -0.62641491447E+02 -0.11929827771E+02  0.60293931506E+02  0.87758962037E+02  0.00000000000E+00 0.  1.
         12    1    4    4    0    0 -0.47494590468E+01  0.44846219132E+02  0.24718054526E+02  0.51426869934E+02  0.00000000000E+00 0. -1.
         -5    1    5    5    0  502  0.11809801176E+03 -0.31161022626E+02  0.28765583556E+03  0.31254778746E+03  0.47000000000E+01 0.  1.
         13    1    6    6    0    0  0.10312986828E+01 -0.37666658299E+02  0.21932722915E+03  0.22254050007E+03  0.00000000000E+00 0. -1.
        -14    1    6    6    0    0 -0.20516440574E+02  0.31550093268E+02  0.95082592627E+02  0.10225963104E+03  0.00000000000E+00 0.  1.
<mgrwt>
<rscale>  2 0.20764362E+03</rscale>
<asrwt>0</asrwt>
<pdfrwt beam="1">  1       21 0.11321754E+00 0.20911555E+03</pdfrwt>
<pdfrwt beam="2">  1       21 0.16392070E-01 0.20911555E+03</pdfrwt>
<totfact> 0.20104871E+04</totfact>
</mgrwt>
</event>
<event>
12    1  0.1074575E-001  0.2107722E+03  0.7546771E-02  0.1141045E+00
         21   -1    0    0  503  502  0.00000000000E+00  0.00000000000E+00  0.13154628832E+04  0.13154628832E+04  0.00000000000E+00 0.  1.
         21   -1    0    0  501  503 -0.00000000000E+00 -0.00000000000E+00 -0.81063059243E+02  0.81063059243E+02  0.00000000000E+00 0.  1.
          6    2    1    2  501    0 -0.52083753605E+02  0.10730821855E+03  0.83181622675E+02  0.22617202822E+03  0.17322480434E+03 0.  0.
         24    2    3    3    0    0  0.22196708332E+02  0.10582641349E+03  0.61131369017E+02  0.14853127566E+03  0.81440603621E+02 0.  0.
         -6    2    1    2    0  502  0.52083753605E+02 -0.10730821855E+03  0.11512182013E+04  0.11703539142E+04  0.17377331907E+03 0.  0.
        -24    2    5    5    0    0  0.29836743063E+02 -0.87567966998E+02  0.46960886371E+03  0.48807978598E+03  0.95556331683E+02 0.  0.
          5    1    3    3  501    0 -0.74280461937E+02  0.14818050656E+01  0.22050253658E+02  0.77640752561E+02  0.47000000000E+01 0. -1.
        -11    1    4    4    0    0 -0.24019825603E+02  0.17193602820E+02 -0.31201613172E+01  0.29703659818E+02  0.00000000000E+00 0.  1.
         12    1    4    4    0    0  0.46216533935E+02  0.88632810668E+02  0.64251530334E+02  0.11882761584E+03  0.00000000000E+00 0. -1.
         -5    1    5    5    0  502  0.22247010542E+02 -0.19740251556E+02  0.68160933759E+03  0.68227412826E+03  0.47000000000E+01 0.  1.
         13    1    6    6    0    0 -0.20134881933E+02  0.44614701396E+00  0.18340023488E+03  0.18450273351E+03  0.00000000000E+00 0. -1.
        -14    1    6    6    0    0  0.49971624996E+02 -0.88014114012E+02  0.28620862882E+03  0.30357705247E+03  0.00000000000E+00 0.  1.
<mgrwt>
<rscale>  2 0.21065915E+03</rscale>
<asrwt>0</asrwt>
<pdfrwt beam="1">  1       21 0.20237889E+00 0.21077224E+03</pdfrwt>
<pdfrwt beam="2">  1       21 0.12471241E-01 0.21077224E+03</pdfrwt>
<totfact> 0.69895076E+03</totfact>
</mgrwt>
</event>
<event>
12    1  0.1074575E-001  0.2701013E+03  0.7546771E-02  0.1101374E+00
         21   -1    0    0  503  502  0.00000000000E+00  0.00000000000E+00  0.21928832781E+03  0.21928832781E+03  0.00000000000E+00 0.  1.
         21   -1    0    0  501  503 -0.00000000000E+00 -0.00000000000E+00 -0.37554608594E+03  0.37554608594E+03  0.00000000000E+00 0. -1.
          6    2    1    2  501    0  0.16055161467E+03  0.13068692836E+03 -0.17999060329E+03  0.32369246562E+03  0.17182636820E+03 0.  0.
         24    2    3    3    0    0  0.17252913947E+03  0.10828669710E+03 -0.10191680284E+03  0.24145597872E+03  0.80135149722E+02 0.  0.
         -6    2    1    2    0  502 -0.16055161467E+03 -0.13068692836E+03  0.23732845161E+02  0.27114194812E+03  0.17349009735E+03 0.  0.
        -24    2    5    5    0    0 -0.79346270388E+02 -0.11385232832E+03 -0.44434289671E+02  0.16368702749E+03  0.74571131017E+02 0.  0.
          5    1    3    3  501    0 -0.11977524807E+02  0.22400231262E+02 -0.78073800455E+02  0.82236486906E+02  0.47000000000E+01 0. -1.
        -11    1    4    4    0    0  0.82608211303E+02  0.44869338149E+02 -0.91074193553E+02  0.13088881851E+03  0.00000000000E+00 0.  1.
         12    1    4    4    0    0  0.89920928170E+02  0.63417358948E+02 -0.10842609286E+02  0.11056716020E+03  0.00000000000E+00 0. -1.
         -5    1    5    5    0  502 -0.81205344278E+02 -0.16834600041E+02  0.68167134833E+02  0.10745492064E+03  0.47000000000E+01 0.  1.
         11    1    6    6    0    0 -0.60084606693E+02 -0.31868293371E+02 -0.40969792804E+02  0.79399445881E+02  0.00000000000E+00 0. -1.
        -12    1    6    6    0    0 -0.19261663695E+02 -0.81984034947E+02 -0.34644968671E+01  0.84287581607E+02  0.00000000000E+00 0.  1.
<mgrwt>
<rscale>  2 0.26983449E+03</rscale>
<asrwt>0</asrwt>
<pdfrwt beam="1">  1       21 0.33736666E-01 0.27010129E+03</pdfrwt>
<pdfrwt beam="2">  1       21 0.57776320E-01 0.27010129E+03</pdfrwt>
<totfact> 0.22857738E+04</totfact>
</mgrwt>
</event>
<event>
12    1  0.1074575E-001  0.1846133E+03  0.7546771E-02  0.1163653E+00
         21   -1    0    0  501  502  0.00000000000E+00  0.00000000000E+00  0.24411775283E+03  0.24411775283E+03  0.00000000000E+00 0. -1.
         21   -1    0    0  502  503 -0.00000000000E+00 -0.00000000000E+00 -0.18667695344E+03  0.18667695344E+03  0.00000000000E+00 0. -1.
         -6    2    1    2    0  503 -0.27851550957E+02 -0.51828861828E+02  0.13770113185E+03  0.22948947043E+03  0.17390191349E+03 0.  0.
        -24    2    3    3    0    0 -0.44564074981E+02  0.33310064371E+01  0.14456069037E+03  0.17125663545E+03  0.80212153707E+02 0.  0.
          6    2    1    2  501    0  0.27851550957E+02  0.51828861828E+02 -0.80260332462E+02  0.20130523584E+03  0.17498610574E+03 0.  0.
         24    2    5    5    0    0 -0.20167945521E+02  0.47334870221E+02  0.13193276241E+02  0.96035415943E+02  0.80008765845E+02 0.  0.
          5    1    5    5  501    0  0.48019496478E+02  0.44939916069E+01 -0.93453608703E+02  0.10526981990E+03  0.47000000000E+01 0. -1.
        -11    1    6    6    0    0 -0.13428175488E+02  0.70073458301E+02  0.11373406015E+02  0.72249289406E+02  0.00000000000E+00 0.  1.
         12    1    6    6    0    0 -0.67397700329E+01 -0.22738588081E+02  0.18198702258E+01  0.23786126537E+02  0.00000000000E+00 0. -1.
         -5    1    3    3    0  503  0.16712524025E+02 -0.55159868265E+02 -0.68595585184E+01  0.58232834976E+02  0.47000000000E+01 0.  1.
         11    1    4    4    0    0  0.33138142498E+00  0.28614292999E+02  0.97011567156E+02  0.10114411372E+03  0.00000000000E+00 0. -1.
        -12    1    4    4    0    0 -0.44895456406E+02 -0.25283286562E+02  0.47549123216E+02  0.70112521734E+02  0.00000000000E+00 0.  1.
<mgrwt>
<rscale>  2 0.18435595E+03</rscale>
<asrwt>0</asrwt>
<pdfrwt beam="1">  1       21 0.37556577E-01 0.18461332E+03</pdfrwt>
<pdfrwt beam="2">  1       21 0.28719531E-01 0.18461332E+03</pdfrwt>
<totfact> 0.79569218E+04</totfact>
</mgrwt>
</event>
<event>
12    1  0.1074575E-001  0.1749996E+03  0.7546771E-02  0.1172850E+00
         21   -1    0    0  503  502  0.00000000000E+00  0.00000000000E+00  0.64781713449E+02  0.64781713449E+02  0.00000000000E+00 0. -1.
         21   -1    0    0  501  503 -0.00000000000E+00 -0.00000000000E+00 -0.16659903309E+04  0.16659903309E+04  0.00000000000E+00 0. -1.
          6    2    1    2  501    0  0.21671799055E+02  0.27002136611E+00 -0.15336808958E+04  0.15436327094E+04  0.17365227212E+03 0.  0.
         24    2    3    3    0    0 -0.13245509744E+02 -0.35504171247E+02 -0.13549411771E+04  0.13579744525E+04  0.82419843274E+02 0.  0.
         -6    2    1    2    0  502 -0.21671799055E+02 -0.27002136611E+00 -0.67527721658E+02  0.18713933495E+03  0.17318024630E+03 0.  0.
        -24    2    5    5    0    0  0.14726659616E+02 -0.83654525456E+01  0.26573339206E+02  0.85810743452E+02  0.79815324565E+02 0.  0.
          5    1    3    3  501    0  0.34917308799E+02  0.35774192613E+02 -0.17873971866E+03  0.18565825685E+03  0.47000000000E+01 0. -1.
        -13    1    4    4    0    0 -0.71834823924E+01 -0.34199041462E+02 -0.20090009460E+03  0.20391671061E+03  0.00000000000E+00 0.  1.
         14    1    4    4    0    0 -0.60620273511E+01 -0.13051297845E+01 -0.11540410825E+04  0.11540577419E+04  0.00000000000E+00 0. -1.
         -5    1    5    5    0  502 -0.36398458671E+02  0.80954311795E+01 -0.94101060864E+02  0.10132859150E+03  0.47000000000E+01 0.  1.
         11    1    6    6    0    0  0.13617024734E+02 -0.26110624724E+02 -0.20241140489E+02  0.35733623583E+02  0.00000000000E+00 0. -1.
        -12    1    6    6    0    0  0.11096348812E+01  0.17745172178E+02  0.46814479695E+02  0.50077119869E+02  0.00000000000E+00 0.  1.
<mgrwt>
<rscale>  2 0.17488236E+03</rscale>
<asrwt>0</asrwt>
<pdfrwt beam="1">  1       21 0.99664187E-02 0.17499958E+03</pdfrwt>
<pdfrwt beam="2">  1       21 0.25630617E+00 0.17499958E+03</pdfrwt>
<totfact> 0.50819800E+03</totfact>
</mgrwt>
</event>
<event>
12    1  0.1074575E-001  0.2010342E+03  0.7546771E-02  0.1149410E+00
         21   -1    0    0  501  502  0.00000000000E+00  0.00000000000E+00  0.11502906170E+03  0.11502906170E+03  0.00000000000E+00 0. -1.
         21   -1    0    0  502  503 -0.00000000000E+00 -0.00000000000E+00 -0.40895180145E+03  0.40895180145E+03  0.00000000000E+00 0. -1.
         -6    2    1    2    0  503 -0.68057504511E+02 -0.73814554086E+02 -0.24982913928E+03  0.32067018553E+03  0.17416761105E+03 0.  0.
        -24    2    3    3    0    0 -0.81949273272E+02 -0.95654811164E+02 -0.25659217244E+03  0.29350758835E+03  0.66645593769E+02 0.  0.
          6    2    1    2  501    0  0.68057504511E+02  0.73814554086E+02 -0.44093600463E+02  0.20331067762E+03  0.17120331106E+03 0.  0.
         24    2    5    5    0    0  0.23465537038E+02  0.11013136327E+03 -0.47681798440E+02  0.14549788183E+03  0.78844981526E+02 0.  0.
          5    1    5    5  501    0  0.44591967473E+02 -0.36316809181E+02  0.35881979771E+01  0.57812795789E+02  0.47000000000E+01 0. -1.
        -13    1    6    6    0    0  0.16594268918E+02  0.66110177706E+01 -0.37144036745E+02  0.41215953011E+02  0.00000000000E+00 0.  1.
         14    1    6    6    0    0  0.68712681206E+01  0.10352034550E+03 -0.10537761695E+02  0.10428192882E+03  0.00000000000E+00 0. -1.
         -5    1    3    3    0  503  0.13891768761E+02  0.21840257078E+02  0.67630331576E+01  0.27162597189E+02  0.47000000000E+01 0.  1.
         11    1    4    4    0    0 -0.60241265187E+02 -0.66555370309E+02 -0.23429197023E+03  0.25090108542E+03  0.00000000000E+00 0. -1.
        -12    1    4    4    0    0 -0.21708008085E+02 -0.29099440856E+02 -0.22300202210E+02  0.42606502928E+02  0.00000000000E+00 0.  1.
<mgrwt>
<rscale>  2 0.20039051E+03</rscale>
<asrwt>0</asrwt>
<pdfrwt beam="1">  1       21 0.17696779E-01 0.20103425E+03</pdfrwt>
<pdfrwt beam="2">  1       21 0.62915661E-01 0.20103425E+03</pdfrwt>
<totfact> 0.67511171E+04</totfact>
</mgrwt>
</event>
<event>
12    1  0.1074575E-001  0.3156219E+03  0.7546771E-02  0.1077767E+00
         21   -1    0    0  501  502  0.00000000000E+00  0.00000000000E+00  0.10746517368E+03  0.10746517368E+03  0.00000000000E+00 0. -1.
         21   -1    0    0  502  503 -0.00000000000E+00 -0.00000000000E+00 -0.93596125724E+03  0.93596125724E+03  0.00000000000E+00 0.  1.
         -6    2    1    2    0  503 -0.56889559769E+02 -0.25765546115E+03 -0.47062328752E+03  0.56625756322E+03  0.17186794488E+03 0.  0.
        -24    2    3    3    0    0  0.16284252412E+02 -0.75068583964E+02 -0.10616061153E+03  0.15207462454E+03  0.77176076679E+02 0.  0.
          6    2    1    2  501    0  0.56889559769E+02  0.25765546115E+03 -0.35787279605E+03  0.47716886770E+03  0.17318900508E+03 0.  0.
         24    2    5    5    0    0 -0.21754468104E+02  0.61849789939E+02 -0.12879978549E+03  0.16568647949E+03  0.81018339566E+02 0.  0.
          5    1    5    5  501    0  0.78644027872E+02  0.19580567122E+03 -0.22907301055E+03  0.31148238821E+03  0.47000000000E+01 0. -1.
        -13    1    6    6    0    0 -0.25393525686E+02  0.68013760566E+02 -0.13684953786E+03  0.15491448863E+03  0.00000000000E+00 0.  1.
         14    1    6    6    0    0  0.36390575818E+01 -0.61639706265E+01  0.80497523718E+01  0.10771990866E+02  0.00000000000E+00 0. -1.
         -5    1    3    3    0  503 -0.73173812180E+02 -0.18258687719E+03 -0.36446267598E+03  0.41418293868E+03  0.47000000000E+01 0.  1.
         13    1    4    4    0    0  0.21264853165E+01 -0.46941616509E+02 -0.63528079234E+01  0.47417248643E+02  0.00000000000E+00 0. -1.
        -14    1    4    4    0    0  0.14157767095E+02 -0.28126967454E+02 -0.99807803611E+02  0.10465737589E+03  0.00000000000E+00 0.  1.
<mgrwt>
<rscale>  2 0.31544101E+03</rscale>
<asrwt>0</asrwt>
<pdfrwt beam="1">  1       21 0.16533104E-01 0.31562191E+03</pdfrwt>
<pdfrwt beam="2">  1       21 0.14399404E+00 0.31562191E+03</pdfrwt>
<totfact> 0.10155849E+04</totfact>
</mgrwt>
</event>
<event>
12    1  0.1074575E-001  0.1900026E+03  0.7546771E-02  0.1161945E+00
         21   -1    0    0  503  502  0.00000000000E+00  0.00000000000E+00  0.13329364659E+04  0.13329364659E+04  0.00000000000E+00 0.  1.
         21   -1    0    0  501  503 -0.00000000000E+00 -0.00000000000E+00 -0.30049638578E+02  0.30049638578E+02  0.00000000000E+00 0.  1.
          6    2    1    2  501    0 -0.18305698758E+02 -0.18394208566E+02  0.95219742795E+03  0.97096907626E+03  0.18822210218E+03 0.  0.
         24    2    3    3    0    0  0.34714079048E+02 -0.72841309739E+02  0.55976702744E+03  0.57122003885E+03  0.80263840494E+02 0.  0.
         -6    2    1    2    0  502  0.18305698758E+02  0.18394208566E+02  0.35068939939E+03  0.39201702823E+03  0.17326525925E+03 0.  0.
        -24    2    5    5    0    0 -0.35416708079E+02 -0.25866005891E+00  0.70608789749E+02  0.10618269789E+03  0.70956000633E+02 0.  0.
          5    1    3    3  501    0 -0.53019777806E+02  0.54447101173E+02  0.39243040051E+03  0.39974903741E+03  0.47000000000E+01 0. -1.
        -11    1    4    4    0    0  0.14803226470E+02 -0.96065397437E+01  0.36600881852E+03  0.36643399999E+03  0.00000000000E+00 0.  1.
         12    1    4    4    0    0  0.19910852578E+02 -0.63234769995E+02  0.19375820892E+03  0.20478603886E+03  0.00000000000E+00 0. -1.
         -5    1    5    5    0  502  0.53722406836E+02  0.18652868625E+02  0.28008060964E+03  0.28583433034E+03  0.47000000000E+01 0.  1.
         13    1    6    6    0    0 -0.31678135606E+01 -0.19360729709E+02  0.65475115992E+02  0.68351032997E+02  0.00000000000E+00 0. -1.
        -14    1    6    6    0    0 -0.32248894518E+02  0.19102069650E+02  0.51336737573E+01  0.37831664896E+02  0.00000000000E+00 0.  1.
<mgrwt>
<rscale>  2 0.18618811E+03</rscale>
<asrwt>0</asrwt>
<pdfrwt beam="1">  1       21 0.20506710E+00 0.19000265E+03</pdfrwt>
<pdfrwt beam="2">  1       21 0.46230224E-02 0.19000265E+03</pdfrwt>
<totfact> 0.38353932E+04</totfact>
</mgrwt>
</event>
<event>
12    1  0.1074575E-001  0.2243345E+03  0.7546771E-02  0.1131009E+00
         21   -1    0    0  503  502  0.00000000000E+00  0.00000000000E+00  0.68951769544E+02  0.68951769544E+02  0.00000000000E+00 0. -1.
         21   -1    0    0  501  503 -0.00000000000E+00 -0.00000000000E+00 -0.73546690457E+03  0.73546690457E+03  0.00000000000E+00 0.  1.
          6    2    1    2  501    0  0.88372989266E+02 -0.10976043986E+03 -0.38167836827E+03  0.44184737482E+03  0.17231827076E+03 0.  0.
         24    2    3    3    0    0  0.52723730037E+02  0.83622759583E+01 -0.20348973056E+03  0.22505916876E+03  0.79961488440E+02 0.  0.
         -6    2    1    2    0  502 -0.88372989266E+02  0.10976043986E+03 -0.28483676675E+03  0.36257129929E+03  0.17455321248E+03 0.  0.
        -24    2    5    5    0    0 -0.57199584630E+02 -0.10858384951E+02 -0.13659374408E+03  0.16887368489E+03  0.80441118348E+02 0.  0.
          5    1    3    3  501    0  0.35649259228E+02 -0.11812271581E+03 -0.17818863772E+03  0.21678820606E+03  0.47000000000E+01 0. -1.
        -13    1    4    4    0    0  0.66441512963E+02  0.12411781104E+02 -0.19884842046E+03  0.21002195427E+03  0.00000000000E+00 0.  1.
         14    1    4    4    0    0 -0.13717782925E+02 -0.40495051455E+01 -0.46413100956E+01  0.15037214493E+02  0.00000000000E+00 0. -1.
         -5    1    5    5    0  502 -0.31173404636E+02  0.12061882481E+03 -0.14824302268E+03  0.19369761441E+03  0.47000000000E+01 0.  1.
         13    1    6    6    0    0  0.18773112104E+02  0.16284547765E+01 -0.11777257706E+02  0.22221282639E+02  0.00000000000E+00 0. -1.
        -14    1    6    6    0    0 -0.75972696734E+02 -0.12486839727E+02 -0.12481648637E+03  0.14665240225E+03  0.00000000000E+00 0.  1.
<mgrwt>
<rscale>  2 0.22389959E+03</rscale>
<asrwt>0</asrwt>
<pdfrwt beam="1">  1       21 0.10607964E-01 0.22433449E+03</pdfrwt>
<pdfrwt beam="2">  1       21 0.11314876E+00 0.22433449E+03</pdfrwt>
<totfact> 0.43851814E+04</totfact>
</mgrwt>
</event>
<event>
12    1  0.1074575E-001  0.1749893E+03  0.7546771E-02  0.1173450E+00
         21   -1    0    0  501  502  0.00000000000E+00  0.00000000000E+00  0.11093081393E+03  0.11093081393E+03  0.00000000000E+00 0.  1.
         21   -1    0    0  502  503 -0.00000000000E+00 -0.00000000000E+00 -0.55595807468E+03  0.55595807468E+03  0.00000000000E+00 0.  1.
         -6    2    1    2    0  503 -0.70576484102E+01  0.27869125206E+02 -0.46008459546E+03  0.49125291500E+03  0.16977954227E+03 0.  0.
        -24    2    3    3    0    0  0.48784811809E+02 -0.19731881844E+02 -0.29701803300E+03  0.31237577831E+03  0.81176412377E+02 0.  0.
          6    2    1    2  501    0  0.70576484102E+01 -0.27869125206E+02  0.15057334712E+02  0.17563597361E+03  0.17261162578E+03 0.  0.
         24    2    5    5    0    0 -0.48511418691E+02 -0.15995416575E+02  0.51411358352E+02  0.10801488806E+03  0.80092928406E+02 0.  0.
          5    1    5    5  501    0  0.55569067101E+02 -0.11873708631E+02 -0.36354023641E+02  0.67621085543E+02  0.47000000000E+01 0. -1.
        -11    1    6    6    0    0  0.48059341335E+01 -0.27900699493E+02  0.44785984380E+02  0.52984247017E+02  0.00000000000E+00 0.  1.
         12    1    6    6    0    0 -0.53317352825E+02  0.11905282918E+02  0.66253739724E+01  0.55030641045E+02  0.00000000000E+00 0. -1.
         -5    1    3    3    0  503 -0.55842460219E+02  0.47601007050E+02 -0.16306656246E+03  0.17887713669E+03  0.47000000000E+01 0.  1.
         11    1    4    4    0    0 -0.22498191292E+02 -0.37460204031E+01 -0.54116023252E+02  0.58726018534E+02  0.00000000000E+00 0. -1.
        -12    1    4    4    0    0  0.71283003102E+02 -0.15985861441E+02 -0.24290200975E+03  0.25364975978E+03  0.00000000000E+00 0.  1.
<mgrwt>
<rscale>  2 0.17428689E+03</rscale>
<asrwt>0</asrwt>
<pdfrwt beam="1">  1       21 0.17066279E-01 0.17498935E+03</pdfrwt>
<pdfrwt beam="2">  1       21 0.85532013E-01 0.17498935E+03</pdfrwt>
<totfact> 0.36935058E+04</totfact>
</mgrwt>
</event>
<event>
12    1  0.1074575E-001  0.2154085E+03  0.7546771E-02  0.1137821E+00
         21   -1    0    0  501  502  0.00000000000E+00  0.00000000000E+00  0.34257019795E+03  0.34257019795E+03  0.00000000000E+00 0. -1.
         21   -1    0    0  502  503 -0.00000000000E+00 -0.00000000000E+00 -0.13393264503E+03  0.13393264503E+03  0.00000000000E+00 0.  1.
         -6    2    1    2    0  503 -0.92187135173E+02 -0.82488978645E+02  0.10538068251E+03  0.23762464108E+03  0.17337093850E+03 0.  0.
        -24    2    3    3    0    0  0.17407671928E+01 -0.57948367916E+02  0.68715966733E+01  0.99238144598E+02  0.80249279672E+02 0.  0.
          6    2    1    2  501    0  0.92187135173E+02  0.82488978645E+02  0.10325687042E+03  0.23887820190E+03  0.17634600808E+03 0.  0.
         24    2    5    5    0    0  0.11547578327E+03  0.22284254581E+02  0.39724214129E+02  0.14818388926E+03  0.80927172960E+02 0.  0.
          5    1    5    5  501    0 -0.23288648101E+02  0.60204724065E+02  0.63532656289E+02  0.90694312640E+02  0.47000000000E+01 0. -1.
        -13    1    6    6    0    0  0.70239609759E+01 -0.69787164902E+00 -0.20739012273E+02  0.21907297476E+02  0.00000000000E+00 0.  1.
         14    1    6    6    0    0  0.10845182230E+03  0.22982126230E+02  0.60463226402E+02  0.12627659178E+03  0.00000000000E+00 0. -1.
         -5    1    3    3    0  503 -0.93927902366E+02 -0.24540610729E+02  0.98509085833E+02  0.13838649649E+03  0.47000000000E+01 0.  1.
         11    1    4    4    0    0 -0.34287334749E+02 -0.33521869293E+02  0.22528614980E+02  0.52979954115E+02  0.00000000000E+00 0. -1.
        -12    1    4    4    0    0  0.36028101942E+02 -0.24426498624E+02 -0.15657018307E+02  0.46258190483E+02  0.00000000000E+00 0.  1.
<mgrwt>
<rscale>  2 0.21479872E+03</rscale>
<asrwt>0</asrwt>
<pdfrwt beam="1">  1       21 0.52703107E-01 0.21540848E+03</pdfrwt>
<pdfrwt beam="2">  1       21 0.20605022E-01 0.21540848E+03</pdfrwt>
<totfact> 0.73773290E+04</totfact>
</mgrwt>
</event>
<event>
12    1  0.1074575E-001  0.2274239E+03  0.7546771E-02  0.1128539E+00
         21   -1    0    0  503  502  0.00000000000E+00  0.00000000000E+00  0.17743732102E+03  0.17743732102E+03  0.00000000000E+00 0. -1.
         21   -1    0    0  501  503 -0.00000000000E+00 -0.00000000000E+00 -0.50244738472E+03  0.50244738472E+03  0.00000000000E+00 0. -1.
          6    2    1    2  501    0  0.73615356445E+02  0.12542226465E+03 -0.38313326910E+03  0.44554766067E+03  0.17484750747E+03 0.  0.
         24    2    3    3    0    0  0.31376413455E+02 -0.57270404726E+01 -0.18081152018E+03  0.20072027531E+03  0.81108228783E+02 0.  0.
         -6    2    1    2    0  502 -0.73615356445E+02 -0.12542226465E+03  0.58123205395E+02  0.23433704507E+03  0.17431459638E+03 0.  0.
        -24    2    5    5    0    0 -0.92353173127E+02 -0.25906277648E+02  0.36892643967E+02  0.13076405543E+03  0.80857449906E+02 0.  0.
          5    1    3    3  501    0  0.42238942990E+02  0.13114930513E+03 -0.20232174892E+03  0.24482738537E+03  0.47000000000E+01 0. -1.
        -13    1    4    4    0    0 -0.25719414420E+02  0.11178097958E+01 -0.31272023379E+02  0.40505274015E+02  0.00000000000E+00 0.  1.
         14    1    4    4    0    0  0.57095827875E+02 -0.68448502683E+01 -0.14953949680E+03  0.16021500129E+03  0.00000000000E+00 0. -1.
         -5    1    5    5    0  502  0.18737816682E+02 -0.99515987006E+02  0.21230561428E+02  0.10357298964E+03  0.47000000000E+01 0.  1.
         13    1    6    6    0    0 -0.27853743100E+02 -0.49162734626E+02  0.21758847848E+02  0.60549590752E+02  0.00000000000E+00 0. -1.
        -14    1    6    6    0    0 -0.64499430027E+02  0.23256456978E+02  0.15133796120E+02  0.70214464677E+02  0.00000000000E+00 0.  1.
<mgrwt>
<rscale>  2 0.22732144E+03</rscale>
<asrwt>0</asrwt>
<pdfrwt beam="1">  1       21 0.27298049E-01 0.22742387E+03</pdfrwt>
<pdfrwt beam="2">  1       21 0.77299598E-01 0.22742387E+03</pdfrwt>
<totfact> 0.18629124E+04</totfact>
</mgrwt>
</event>
<event>
12    1  0.1074575E-001  0.1839194E+03  0.7546771E-02  0.1164769E+00
         21   -1    0    0  501  502  0.00000000000E+00  0.00000000000E+00  0.59468518981E+03  0.59468518981E+03  0.00000000000E+00 0. -1.
         21   -1    0    0  502  503 -0.00000000000E+00 -0.00000000000E+00 -0.56439979707E+02  0.56439979707E+02  0.00000000000E+00 0. -1.
         -6    2    1    2    0  503 -0.19870796958E+02 -0.57351411835E+02  0.24143121814E+03  0.30350517918E+03  0.17361545924E+03 0.  0.
        -24    2    3    3    0    0 -0.25177934958E+02  0.34190991842E+02  0.10170520721E+03  0.13631180158E+03  0.80212254329E+02 0.  0.
          6    2    1    2  501    0  0.19870796958E+02  0.57351411835E+02  0.29681399196E+03  0.34761999033E+03  0.17046137053E+03 0.  0.
         24    2    5    5    0    0  0.48054066200E+00  0.64654617525E+02  0.30714274905E+03  0.32399601786E+03  0.80351109530E+02 0.  0.
          5    1    5    5  501    0  0.19390256296E+02 -0.73032056894E+01 -0.10328757090E+02  0.23623972477E+02  0.47000000000E+01 0. -1.
        -13    1    6    6    0    0  0.10426665000E+02 -0.17491955007E+02  0.57901070281E+02  0.61377665096E+02  0.00000000000E+00 0.  1.
         14    1    6    6    0    0 -0.99461243375E+01  0.82146572532E+02  0.24924167877E+03  0.26261835276E+03  0.00000000000E+00 0. -1.
         -5    1    3    3    0  503  0.53071379994E+01 -0.91542403678E+02  0.13972601092E+03  0.16719337760E+03  0.47000000000E+01 0.  1.
         11    1    4    4    0    0 -0.46858495711E+02  0.33143883107E+01  0.80036564651E+02  0.92803854830E+02  0.00000000000E+00 0. -1.
        -12    1    4    4    0    0  0.21680560753E+02  0.30876603531E+02  0.21668642564E+02  0.43507946754E+02  0.00000000000E+00 0.  1.
<mgrwt>
<rscale>  2 0.18317129E+03</rscale>
<asrwt>0</asrwt>
<pdfrwt beam="1">  1       21 0.91490025E-01 0.18391944E+03</pdfrwt>
<pdfrwt beam="2">  1       21 0.86830742E-02 0.18391944E+03</pdfrwt>
<totfact> 0.10555657E+05</totfact>
</mgrwt>
</event>
<event>
12    1  0.1074575E-001  0.1861587E+03  0.7546771E-02  0.1162419E+00
         21   -1    0    0  501  502  0.00000000000E+00  0.00000000000E+00  0.21002242957E+03  0.21002242957E+03  0.00000000000E+00 0. -1.
         21   -1    0    0  502  503 -0.00000000000E+00 -0.00000000000E+00 -0.31346638223E+03  0.31346638223E+03  0.00000000000E+00 0. -1.
         -6    2    1    2    0  503 -0.46036579123E+02 -0.41717270859E+02 -0.23301723682E+03  0.29824835075E+03  0.17548603581E+03 0.  0.
        -24    2    3    3    0    0 -0.77259691209E+02  0.25128922494E+02 -0.12415849331E+03  0.16665955057E+03  0.75891710379E+02 0.  0.
          6    2    1    2  501    0  0.46036579123E+02  0.41717270859E+02  0.12957328417E+03  0.22524046105E+03  0.17344835548E+03 0.  0.
         24    2    5    5    0    0  0.14959125578E+02  0.17389773705E+02 -0.13751306992E+02  0.76506928627E+02  0.71680067079E+02 0.  0.
          5    1    5    5  501    0  0.31077453544E+02  0.24327497154E+02  0.14332459116E+03  0.14873353242E+03  0.47000000000E+01 0. -1.
        -11    1    6    6    0    0 -0.72559682030E+01  0.40261529186E+02  0.19691797689E+01  0.40957508175E+02  0.00000000000E+00 0.  1.
         12    1    6    6    0    0  0.22215093781E+02 -0.22871755481E+02 -0.15720486761E+02  0.35549420452E+02  0.00000000000E+00 0. -1.
         -5    1    3    3    0  503  0.31223112087E+02 -0.66846193353E+02 -0.10885874351E+03  0.13158880018E+03  0.47000000000E+01 0.  1.
         13    1    4    4    0    0 -0.62260127674E+02  0.11604363264E+02 -0.29491703710E+02  0.69862331284E+02  0.00000000000E+00 0. -1.
        -14    1    4    4    0    0 -0.14999563535E+02  0.13524559230E+02 -0.94666789600E+02  0.96797219288E+02  0.00000000000E+00 0.  1.
<mgrwt>
<rscale>  2 0.18567689E+03</rscale>
<asrwt>0</asrwt>
<pdfrwt beam="1">  1       21 0.32311143E-01 0.18615866E+03</pdfrwt>
<pdfrwt beam="2">  1       21 0.48225597E-01 0.18615866E+03</pdfrwt>
<totfact> 0.37979125E+04</totfact>
</mgrwt>
</event>
<event>
12    1  0.1074575E-001  0.2256707E+03  0.7546771E-02  0.1129973E+00
         21   -1    0    0  503  502  0.00000000000E+00  0.00000000000E+00  0.38334576541E+03  0.38334576541E+03  0.00000000000E+00 0. -1.
         21   -1    0    0  501  503 -0.00000000000E+00 -0.00000000000E+00 -0.16271483237E+03  0.16271483237E+03  0.00000000000E+00 0.  1.
          6    2    1    2  501    0  0.13816089182E+03  0.32750534220E+02 -0.79532166479E+01  0.22581083803E+03  0.17540311114E+03 0.  0.
         24    2    3    3    0    0  0.97728727185E+02 -0.19573108145E+02  0.51109432901E+02  0.13702452119E+03  0.78927400793E+02 0.  0.
         -6    2    1    2    0  502 -0.13816089182E+03 -0.32750534220E+02  0.22858414969E+03  0.32024975975E+03  0.17363227123E+03 0.  0.
        -24    2    5    5    0    0 -0.17978129783E+02  0.26648771343E+02  0.97516889312E+02  0.13270539024E+03  0.84070248805E+02 0.  0.
          5    1    3    3  501    0  0.40432164631E+02  0.52323642365E+02 -0.59062649549E+02  0.88786316844E+02  0.47000000000E+01 0. -1.
        -13    1    4    4    0    0  0.10958427918E+03 -0.27362100763E+02  0.45647190703E+02  0.12182390907E+03  0.00000000000E+00 0.  1.
         14    1    4    4    0    0 -0.11855551993E+02  0.77889926181E+01  0.54622421979E+01  0.15200612123E+02  0.00000000000E+00 0. -1.
         -5    1    5    5    0  502 -0.12018276203E+03 -0.59399305563E+02  0.13106726038E+03  0.18754436951E+03  0.47000000000E+01 0.  1.
         13    1    6    6    0    0 -0.43707144357E+02  0.34765837813E+02  0.87746516286E+02  0.10401167755E+03  0.00000000000E+00 0. -1.
        -14    1    6    6    0    0  0.25729014574E+02 -0.81170664702E+01  0.97703730258E+01  0.28693712693E+02  0.00000000000E+00 0.  1.
<mgrwt>
<rscale>  2 0.22532654E+03</rscale>
<asrwt>0</asrwt>
<pdfrwt beam="1">  1       21 0.58976272E-01 0.22567074E+03</pdfrwt>
<pdfrwt beam="2">  1       21 0.25033051E-01 0.22567074E+03</pdfrwt>
<totfact> 0.39960328E+04</totfact>
</mgrwt>
</event>
<event>
12    1  0.1074575E-001  0.2034917E+03  0.7546771E-02  0.1147040E+00
         21   -1    0    0  501  502  0.00000000000E+00  0.00000000000E+00  0.21398469197E+03  0.21398469197E+03  0.00000000000E+00 0.  1.
         21   -1    0    0  502  503 -0.00000000000E+00 -0.00000000000E+00 -0.38488315864E+03  0.38488315864E+03  0.00000000000E+00 0.  1.
         -6    2    1    2    0  503  0.34585047875E+02 -0.10008644871E+03 -0.29724143956E+03  0.36022404136E+03  0.17376842013E+03 0.  0.
        -24    2    3    3    0    0  0.97297542227E+00 -0.38107613931E+02 -0.46177075629E+02  0.99405038585E+02  0.79346723069E+02 0.  0.
          6    2    1    2  501    0 -0.34585047875E+02  0.10008644871E+03  0.12634297289E+03  0.23864380925E+03  0.17255404413E+03 0.  0.
         24    2    5    5    0    0 -0.44128783873E+02 -0.94182286537E+01  0.59519329917E+02  0.10991989336E+03  0.80646014944E+02 0.  0.
          5    1    5    5  501    0  0.95437359975E+01  0.10950467737E+03  0.66823642972E+02  0.12872391589E+03  0.47000000000E+01 0. -1.
        -13    1    6    6    0    0 -0.57290055041E+02  0.13140575251E+02  0.59731797007E+02  0.83801627062E+02  0.00000000000E+00 0.  1.
         14    1    6    6    0    0  0.13161271168E+02 -0.22558803904E+02 -0.21246708947E+00  0.26118266302E+02  0.00000000000E+00 0. -1.
         -5    1    3    3    0  503  0.33612072453E+02 -0.61978834783E+02 -0.25106436393E+03  0.26081900278E+03  0.47000000000E+01 0.  1.
         11    1    4    4    0    0 -0.39677019144E+01 -0.42372503611E+02  0.92860624473E+01  0.43559185903E+02  0.00000000000E+00 0. -1.
        -12    1    4    4    0    0  0.49406773367E+01  0.42648896798E+01 -0.55463138076E+02  0.55845852682E+02  0.00000000000E+00 0.  1.
<mgrwt>
<rscale>  2 0.20323224E+03</rscale>
<asrwt>0</asrwt>
<pdfrwt beam="1">  1       21 0.32920722E-01 0.20349174E+03</pdfrwt>
<pdfrwt beam="2">  1       21 0.59212793E-01 0.20349174E+03</pdfrwt>
<totfact> 0.23528977E+04</totfact>
</mgrwt>
</event>
<event>
12    1  0.1074575E-001  0.1897326E+03  0.7546771E-02  0.1158832E+00
         21   -1    0    0  501  502  0.00000000000E+00  0.00000000000E+00  0.93093275088E+03  0.93093275088E+03  0.00000000000E+00 0. -1.
         21   -1    0    0  502  503 -0.00000000000E+00 -0.00000000000E+00 -0.55134444777E+02  0.55134444777E+02  0.00000000000E+00 0. -1.
         -6    2    1    2    0  503  0.69981321532E+02 -0.34157666372E+02  0.16705549342E+03  0.25236776734E+03  0.17238857438E+03 0.  0.
        -24    2    3    3    0    0 -0.22312104676E+02 -0.30154493003E+02  0.11504917880E+03  0.14625062132E+03  0.82132863290E+02 0.  0.
          6    2    1    2  501    0 -0.69981321532E+02  0.34157666372E+02  0.70874281268E+03  0.73369942831E+03  0.17301544743E+03 0.  0.
         24    2    5    5    0    0  0.18870940887E+02  0.46433024405E+02  0.42678949076E+03  0.43778529433E+03  0.83633464237E+02 0.  0.
          5    1    5    5  501    0 -0.88852262419E+02 -0.12275358033E+02  0.28195332192E+03  0.29591413399E+03  0.47000000000E+01 0. -1.
        -11    1    6    6    0    0  0.30709234901E+02 -0.11391940407E+01  0.30433300723E+03  0.30588058807E+03  0.00000000000E+00 0.  1.
         12    1    6    6    0    0 -0.11838294014E+02  0.47572218446E+02  0.12245648354E+03  0.13190470626E+03  0.00000000000E+00 0. -1.
         -5    1    3    3    0  503  0.92293426209E+02 -0.40031733691E+01  0.52006314628E+02  0.10611714602E+03  0.47000000000E+01 0.  1.
         13    1    4    4    0    0  0.12987923629E+01 -0.51948850429E+02  0.43320741557E+02  0.67653947199E+02  0.00000000000E+00 0. -1.
        -14    1    4    4    0    0 -0.23610897039E+02  0.21794357426E+02  0.71728437238E+02  0.78596674123E+02  0.00000000000E+00 0.  1.
<mgrwt>
<rscale>  2 0.18958962E+03</rscale>
<asrwt>0</asrwt>
<pdfrwt beam="1">  1       21 0.14322041E+00 0.18973265E+03</pdfrwt>
<pdfrwt beam="2">  1       21 0.84822230E-02 0.18973265E+03</pdfrwt>
<totfact> 0.36616787E+04</totfact>
</mgrwt>
</event>
<event>
12    1  0.1074575E-001  0.4112526E+03  0.7546771E-02  0.1040039E+00
         21   -1    0    0  501  502  0.00000000000E+00  0.00000000000E+00  0.27808989343E+03  0.27808989343E+03  0.00000000000E+00 0. -1.
         21   -1    0    0  502  503 -0.00000000000E+00 -0.00000000000E+00 -0.15745853242E+04  0.15745853242E+04  0.00000000000E+00 0.  1.
         -6    2    1    2    0  503 -0.36691634889E+03  0.61523481109E+02 -0.13742233307E+04  0.14341416518E+04  0.17279979507E+03 0.  0.
        -24    2    3    3    0    0 -0.32808914662E+03  0.10261126644E+03 -0.11952528690E+04  0.12463964151E+04  0.81872112376E+02 0.  0.
          6    2    1    2  501    0  0.36691634889E+03 -0.61523481109E+02  0.77727899851E+02  0.41853356583E+03  0.17525973155E+03 0.  0.
         24    2    5    5    0    0  0.25042519899E+03 -0.51374925369E+02  0.12007305900E+03  0.29408123081E+03  0.81939414038E+02 0.  0.
          5    1    5    5  501    0  0.11649114990E+03 -0.10148555739E+02 -0.42345159148E+02  0.12445233502E+03  0.47000000000E+01 0. -1.
        -13    1    6    6    0    0  0.37816467929E+02 -0.40311408276E+02  0.19366154960E+02  0.58567421334E+02  0.00000000000E+00 0.  1.
         14    1    6    6    0    0  0.21260873106E+03 -0.11063517093E+02  0.10070690404E+03  0.23551380947E+03  0.00000000000E+00 0. -1.
         -5    1    3    3    0  503 -0.38827202273E+02 -0.41087785329E+02 -0.17897046172E+03  0.18774523671E+03  0.47000000000E+01 0.  1.
         13    1    4    4    0    0 -0.28031428511E+02 -0.33878555440E+01 -0.46697117653E+02  0.54569765866E+02  0.00000000000E+00 0. -1.
        -14    1    4    4    0    0 -0.30005771810E+03  0.10599912198E+03 -0.11485557513E+04  0.11918266493E+04  0.00000000000E+00 0.  1.
<mgrwt>
<rscale>  2 0.41099180E+03</rscale>
<asrwt>0</asrwt>
<pdfrwt beam="1">  1       21 0.42783059E-01 0.41125262E+03</pdfrwt>
<pdfrwt beam="2">  1       21 0.24224390E+00 0.41125262E+03</pdfrwt>
<totfact> 0.31964677E+02</totfact>
</mgrwt>
</event>
<event>
12    1  0.1074575E-001  0.2164554E+03  0.7546771E-02  0.1137445E+00
         21   -1    0    0  501  502  0.00000000000E+00  0.00000000000E+00  0.12226713870E+03  0.12226713870E+03  0.00000000000E+00 0. -1.
         21   -1    0    0  502  503 -0.00000000000E+00 -0.00000000000E+00 -0.95763294758E+03  0.95763294758E+03  0.00000000000E+00 0.  1.
         -6    2    1    2    0  503  0.18793180059E+02 -0.13113089485E+03 -0.83705108200E+03  0.86343812088E+03  0.16529482599E+03 0.  0.
        -24    2    3    3    0    0  0.65094522751E+02 -0.29934834500E+02 -0.25819894370E+03  0.27396687902E+03  0.57076834704E+02 0.  0.
          6    2    1    2  501    0 -0.18793180059E+02  0.13113089485E+03  0.16852731163E+01  0.21646196540E+03  0.17118541737E+03 0.  0.
         24    2    5    5    0    0  0.26613936346E+02  0.14041201861E+03 -0.19696605562E+02  0.16520554908E+03  0.80505158840E+02 0.  0.
          5    1    5    5  501    0 -0.45407116405E+02 -0.92811237565E+01  0.21381878678E+02  0.51256416322E+02  0.47000000000E+01 0. -1.
        -11    1    6    6    0    0  0.35899706582E+02  0.52768037506E+02 -0.39253553816E+02  0.74927272752E+02  0.00000000000E+00 0.  1.
         12    1    6    6    0    0 -0.92857702365E+01  0.87643981101E+02  0.19556948254E+02  0.90278276330E+02  0.00000000000E+00 0. -1.
         -5    1    3    3    0  503 -0.46301342691E+02 -0.10119606035E+03 -0.57885213830E+03  0.58947124186E+03  0.47000000000E+01 0.  1.
         13    1    4    4    0    0  0.30227434216E+02 -0.44516350915E+02 -0.15104343383E+03  0.16034189154E+03  0.00000000000E+00 0. -1.
        -14    1    4    4    0    0  0.34867088535E+02  0.14581516414E+02 -0.10715550987E+03  0.11362498748E+03  0.00000000000E+00 0.  1.
<mgrwt>
<rscale>  2 0.21528903E+03</rscale>
<asrwt>0</asrwt>
<pdfrwt beam="1">  1       21 0.18810329E-01 0.21645540E+03</pdfrwt>
<pdfrwt beam="2">  1       21 0.14732814E+00 0.21645540E+03</pdfrwt>
<totfact> 0.79630340E+03</totfact>
</mgrwt>
</event>
<event>
11    1  0.1074575E-001  0.1790605E+03  0.7546771E-02  0.1168896E+00
         21   -1    0    0  501  502  0.00000000000E+00  0.00000000000E+00  0.63008815443E+02  0.63008815443E+02  0.00000000000E+00 0.  1.
         21   -1    0    0  502  503 -0.00000000000E+00 -0.00000000000E+00 -0.66564028319E+03  0.66564028319E+03  0.00000000000E+00 0.  1.
         -6    2    1    2    0  503  0.13355475303E+01  0.43471433496E+02 -0.47978141249E+03  0.51210629474E+03  0.17369831354E+03 0.  0.
          6    2    1    2  501    0 -0.13355475303E+01 -0.43471433496E+02 -0.12285005526E+03  0.21654280389E+03  0.17293669542E+03 0.  0.
         24    2    4    4    0    0 -0.63239255212E+02 -0.36144279833E+01 -0.88891819593E+02  0.13532764716E+03  0.79997181242E+02 0.  0.
          5    1    4    4  501    0  0.61903707682E+02 -0.39857005512E+02 -0.33958235667E+02  0.81215156731E+02  0.47000000000E+01 0. -1.
        -11    1    5    5    0    0  0.10743690983E+02 -0.81203812874E+01  0.61464336135E+01  0.14803585186E+02  0.00000000000E+00 0.  1.
         12    1    5    5    0    0 -0.73982946195E+02  0.45059533041E+01 -0.95038253207E+02  0.12052406198E+03  0.00000000000E+00 0. -1.
         -5    1    3    3    0  503 -0.34463313096E+02 -0.56121901633E+02 -0.19350071810E+03  0.20445538804E+03  0.47000000000E+01 0.  1.
         13    1    3    3    0    0  0.16598071004E+02  0.85925048014E+02 -0.24437173572E+03  0.25956917201E+03  0.00000000000E+00 0. -1.
        -14    1    3    3    0    0  0.19200789622E+02  0.13668287115E+02 -0.41908958671E+02  0.48081734699E+02  0.00000000000E+00 0.  1.
<mgrwt>
<rscale>  2 0.17887551E+03</rscale>
<asrwt>0</asrwt>
<pdfrwt beam="1">  1       21 0.96936638E-02 0.17906047E+03</pdfrwt>
<pdfrwt beam="2">  1       21 0.10240620E+00 0.17906047E+03</pdfrwt>
<totfact> 0.66921189E+04</totfact>
</mgrwt>
</event>
<event>
12    1  0.1074575E-001  0.2595399E+03  0.7546771E-02  0.1107516E+00
         21   -1    0    0  501  502  0.00000000000E+00  0.00000000000E+00  0.10889819445E+03  0.10889819445E+03  0.00000000000E+00 0. -1.
         21   -1    0    0  502  503 -0.00000000000E+00 -0.00000000000E+00 -0.70559282703E+03  0.70559282703E+03  0.00000000000E+00 0.  1.
         -6    2    1    2    0  503  0.16407010273E+03 -0.10120199716E+03 -0.44228696582E+03  0.51249319921E+03  0.17283135208E+03 0.  0.
        -24    2    3    3    0    0  0.28704379192E+02  0.70472098963E+01 -0.15628259496E+03  0.17803489076E+03  0.79991051311E+02 0.  0.
          6    2    1    2  501    0 -0.16407010273E+03  0.10120199716E+03 -0.15440766676E+03  0.30199782226E+03  0.17378180071E+03 0.  0.
         24    2    5    5    0    0 -0.14579430708E+02 -0.66658898185E+01 -0.37900386227E+02  0.83871761279E+02  0.73082413597E+02 0.  0.
          5    1    5    5  501    0 -0.14949067202E+03  0.10786788698E+03 -0.11650728053E+03  0.21812606098E+03  0.47000000000E+01 0. -1.
        -13    1    6    6    0    0 -0.34034931340E+02 -0.20699960868E+01 -0.49988353143E+02  0.60510303958E+02  0.00000000000E+00 0.  1.
         14    1    6    6    0    0  0.19455500632E+02 -0.45958937317E+01  0.12087966916E+02  0.23361457322E+02  0.00000000000E+00 0. -1.
         -5    1    3    3    0  503  0.13536572354E+03 -0.10824920706E+03 -0.28600437086E+03  0.33445830845E+03  0.47000000000E+01 0.  1.
         11    1    4    4    0    0  0.54222194946E+01 -0.28322470488E+02 -0.19407414170E+02  0.34759322830E+02  0.00000000000E+00 0. -1.
        -12    1    4    4    0    0  0.23282159697E+02  0.35369680384E+02 -0.13687518079E+03  0.14327556793E+03  0.00000000000E+00 0.  1.
<mgrwt>
<rscale>  2 0.25938089E+03</rscale>
<asrwt>0</asrwt>
<pdfrwt beam="1">  1       21 0.16753568E-01 0.25953990E+03</pdfrwt>
<pdfrwt beam="2">  1       21 0.10855275E+00 0.25953990E+03</pdfrwt>
<totfact> 0.20823554E+04</totfact>
</mgrwt>
</event>
<event>
12    1  0.1074575E-001  0.2585603E+03  0.7546771E-02  0.1108087E+00
         21   -1    0    0  503  502  0.00000000000E+00  0.00000000000E+00  0.80169700551E+03  0.80169700551E+03  0.00000000000E+00 0. -1.
         21   -1    0    0  501  503 -0.00000000000E+00 -0.00000000000E+00 -0.89106793209E+02  0.89106793209E+02  0.00000000000E+00 0.  1.
          6    2    1    2  501    0  0.15292825453E+03 -0.11613519051E+03  0.47037202713E+03  0.53651146370E+03  0.17239568808E+03 0.  0.
         24    2    3    3    0    0  0.51046268471E+02 -0.11735984940E+03  0.26889818309E+03  0.31069020981E+03  0.88561378892E+02 0.  0.
         -6    2    1    2    0  502 -0.15292825453E+03  0.11613519051E+03  0.24221818517E+03  0.35429233502E+03  0.17314437883E+03 0.  0.
        -24    2    5    5    0    0 -0.46452426640E+02  0.85583431198E+02  0.70633571864E+02  0.15000361422E+03  0.89608209272E+02 0.  0.
          5    1    3    3  501    0  0.10188198606E+03  0.12246588925E+01  0.20147384404E+03  0.22582125388E+03  0.47000000000E+01 0. -1.
        -13    1    4    4    0    0 -0.12353718903E+02 -0.45786560855E+02  0.15439867282E+03  0.16151771945E+03  0.00000000000E+00 0.  1.
         14    1    4    4    0    0  0.63399987373E+02 -0.71573288544E+02  0.11449951026E+03  0.14917249037E+03  0.00000000000E+00 0. -1.
         -5    1    5    5    0  502 -0.10647582789E+03  0.30551759308E+02  0.17158461331E+03  0.20428872080E+03  0.47000000000E+01 0.  1.
         11    1    6    6    0    0  0.21539749921E+02  0.32432212012E+02  0.45980717031E+02  0.60249776276E+02  0.00000000000E+00 0. -1.
        -12    1    6    6    0    0 -0.67992176562E+02  0.53151219186E+02  0.24652854834E+02  0.89753837946E+02  0.00000000000E+00 0.  1.
<mgrwt>
<rscale>  2 0.25843498E+03</rscale>
<asrwt>0</asrwt>
<pdfrwt beam="1">  1       21 0.12333800E+00 0.25856026E+03</pdfrwt>
<pdfrwt beam="2">  1       21 0.13708738E-01 0.25856026E+03</pdfrwt>
<totfact> 0.21953865E+04</totfact>
</mgrwt>
</event>
<event>
12    1  0.1074575E-001  0.1994353E+03  0.7546771E-02  0.1150484E+00
         21   -1    0    0  501  502  0.00000000000E+00  0.00000000000E+00  0.56758240794E+03  0.56758240794E+03  0.00000000000E+00 0.  1.
         21   -1    0    0  502  503 -0.00000000000E+00 -0.00000000000E+00 -0.70043234953E+02  0.70043234953E+02  0.00000000000E+00 0.  1.
         -6    2    1    2    0  503 -0.97909508823E+02  0.17478415695E+02  0.22522804366E+03  0.30083568785E+03  0.17286605363E+03 0.  0.
        -24    2    3    3    0    0  0.14363858911E+02  0.97304128062E+01  0.66002001543E+02  0.10579629916E+03  0.80843004226E+02 0.  0.
          6    2    1    2  501    0  0.97909508823E+02 -0.17478415695E+02  0.27231112933E+03  0.33678995505E+03  0.17141282254E+03 0.  0.
         24    2    5    5    0    0  0.53998245273E+02  0.33903299462E+02  0.65130354682E+02  0.11881233440E+03  0.76217868626E+02 0.  0.
          5    1    5    5  501    0  0.43911263550E+02 -0.51381715157E+02  0.20718077465E+03  0.21797762065E+03  0.47000000000E+01 0. -1.
        -13    1    6    6    0    0  0.69547487911E+02  0.41540758370E+02  0.46646593463E+02  0.93479368646E+02  0.00000000000E+00 0.  1.
         14    1    6    6    0    0 -0.15549242638E+02 -0.76374589075E+01  0.18483761219E+02  0.25332965756E+02  0.00000000000E+00 0. -1.
         -5    1    3    3    0  503 -0.11227336773E+03  0.77480028886E+01  0.15922604211E+03  0.19503938868E+03  0.47000000000E+01 0.  1.
         11    1    4    4    0    0 -0.12556832882E+02  0.26143203985E+02  0.68280485356E+02  0.74184673937E+02  0.00000000000E+00 0. -1.
        -12    1    4    4    0    0  0.26920691792E+02 -0.16412791179E+02 -0.22784838128E+01  0.31611625225E+02  0.00000000000E+00 0.  1.
<mgrwt>
<rscale>  2 0.19911998E+03</rscale>
<asrwt>0</asrwt>
<pdfrwt beam="1">  1       21 0.87320367E-01 0.19943530E+03</pdfrwt>
<pdfrwt beam="2">  1       21 0.10775883E-01 0.19943530E+03</pdfrwt>
<totfact> 0.79832732E+04</totfact>
</mgrwt>
</event>
<event>
12    1  0.1074575E-001  0.1782606E+03  0.7546771E-02  0.1169621E+00
         21   -1    0    0  503  502  0.00000000000E+00  0.00000000000E+00  0.63819836256E+02  0.63819836256E+02  0.00000000000E+00 0.  1.
         21   -1    0    0  501  503 -0.00000000000E+00 -0.00000000000E+00 -0.51710292489E+03  0.51710292489E+03  0.00000000000E+00 0.  1.
          6    2    1    2  501    0  0.23072885305E+02  0.35947683847E+02 -0.28430073279E+03  0.33529729515E+03  0.17254789322E+03 0.  0.
         24    2    3    3    0    0 -0.59697177705E+01 -0.17539232526E+02 -0.56835769001E+02  0.99783552937E+02  0.79894872119E+02 0.  0.
         -6    2    1    2    0  502 -0.23072885305E+02 -0.35947683847E+02 -0.16898235584E+03  0.24562546599E+03  0.17306715156E+03 0.  0.
        -24    2    5    5    0    0  0.15508347028E+02  0.35782238333E+02 -0.50424259334E+02  0.10170949930E+03  0.79254898336E+02 0.  0.
          5    1    3    3  501    0  0.29042603075E+02  0.53486916373E+02 -0.22746496379E+03  0.23551374221E+03  0.47000000000E+01 0. -1.
        -13    1    4    4    0    0  0.29033921076E+02 -0.13539831745E+02 -0.56031260290E+02  0.64542991458E+02  0.00000000000E+00 0.  1.
         14    1    4    4    0    0 -0.35003638846E+02 -0.39994007816E+01 -0.80450871084E+00  0.35240561479E+02  0.00000000000E+00 0. -1.
         -5    1    5    5    0  502 -0.38581232333E+02 -0.71729922180E+02 -0.11855809650E+03  0.14391596670E+03  0.47000000000E+01 0.  1.
         11    1    6    6    0    0  0.42550573951E+02  0.23653775263E+01 -0.12573128111E+02  0.44432306995E+02  0.00000000000E+00 0. -1.
        -12    1    6    6    0    0 -0.27042226923E+02  0.33416860806E+02 -0.37851131223E+02  0.57277192302E+02  0.00000000000E+00 0.  1.
<mgrwt>
<rscale>  2 0.17813442E+03</rscale>
<asrwt>0</asrwt>
<pdfrwt beam="1">  1       21 0.98184363E-02 0.17826058E+03</pdfrwt>
<pdfrwt beam="2">  1       21 0.79554296E-01 0.17826058E+03</pdfrwt>
<totfact> 0.11736759E+05</totfact>
</mgrwt>
</event>
<event>
12    1  0.1074575E-001  0.2360266E+03  0.7546771E-02  0.1123093E+00
         21   -1    0    0  503  502  0.00000000000E+00  0.00000000000E+00  0.21062008987E+04  0.21062008987E+04  0.00000000000E+00 0. -1.
         21   -1    0    0  501  503 -0.00000000000E+00 -0.00000000000E+00 -0.96896965323E+02  0.96896965323E+02  0.00000000000E+00 0. -1.
          6    2    1    2  501    0 -0.51180550276E+02  0.15338821513E+03  0.64804148427E+02  0.24476134657E+03  0.17193355068E+03 0.  0.
         24    2    3    3    0    0 -0.66775451746E+02  0.58671810881E+02  0.85087955959E+02  0.14653751527E+03  0.79573492976E+02 0.  0.
         -6    2    1    2    0  502  0.51180550276E+02 -0.15338821513E+03  0.19444997850E+04  0.19583365175E+04  0.16689849811E+03 0.  0.
        -24    2    5    5    0    0 -0.21694950053E+02 -0.30615266039E+02  0.87026031170E+03  0.87464072459E+03  0.78964685973E+02 0.  0.
          5    1    3    3  501    0  0.15594901470E+02  0.94716404253E+02 -0.20283807532E+02  0.98223831296E+02  0.47000000000E+01 0. -1.
        -11    1    4    4    0    0 -0.74322242163E+02  0.70584177950E+02  0.83767417711E+02  0.13237409915E+03  0.00000000000E+00 0.  1.
         12    1    4    4    0    0  0.75467904178E+01 -0.11912367069E+02  0.13205382473E+01  0.14163416115E+02  0.00000000000E+00 0. -1.
         -5    1    5    5    0  502  0.72875500329E+02 -0.12277294909E+03  0.10742394733E+04  0.10836957929E+04  0.47000000000E+01 0.  1.
         13    1    6    6    0    0  0.28674560632E+02 -0.37625735669E+00  0.28485334058E+03  0.28629320222E+03  0.00000000000E+00 0. -1.
        -14    1    6    6    0    0 -0.50369510685E+02 -0.30239008683E+02  0.58540697112E+03  0.58834752238E+03  0.00000000000E+00 0.  1.
<mgrwt>
<rscale>  2 0.23511070E+03</rscale>
<asrwt>0</asrwt>
<pdfrwt beam="1">  1       21 0.32403087E+00 0.23602656E+03</pdfrwt>
<pdfrwt beam="2">  1       21 0.14907227E-01 0.23602656E+03</pdfrwt>
<totfact> 0.93052408E+02</totfact>
</mgrwt>
</event>
<event>
12    1  0.1074575E-001  0.1787890E+03  0.7546771E-02  0.1169160E+00
         21   -1    0    0  501  502  0.00000000000E+00  0.00000000000E+00  0.25485029947E+03  0.25485029947E+03  0.00000000000E+00 0. -1.
         21   -1    0    0  502  503 -0.00000000000E+00 -0.00000000000E+00 -0.17993041942E+03  0.17993041942E+03  0.00000000000E+00 0. -1.
         -6    2    1    2    0  503  0.40462802687E+02 -0.14152459023E+02 -0.82696319533E+02  0.19698782097E+03  0.17357416238E+03 0.  0.
        -24    2    3    3    0    0  0.59638630873E+02 -0.39414690054E+02  0.18024976515E+01  0.10661065123E+03  0.79071473203E+02 0.  0.
          6    2    1    2  501    0 -0.40462802687E+02  0.14152459023E+02  0.15761619959E+03  0.23779289792E+03  0.17281511922E+03 0.  0.
         24    2    5    5    0    0 -0.20613258570E+02 -0.33612724430E+02  0.30810177359E+02  0.10076233773E+03  0.87458904657E+02 0.  0.
          5    1    5    5  501    0 -0.19849544117E+02  0.47765183454E+02  0.12680602223E+03  0.13703056019E+03  0.47000000000E+01 0. -1.
        -13    1    6    6    0    0 -0.97749598390E+01 -0.61410534001E+02  0.33801556891E+02  0.70776753065E+02  0.00000000000E+00 0.  1.
         14    1    6    6    0    0 -0.10838298731E+02  0.27797809571E+02 -0.29913795316E+01  0.29985584667E+02  0.00000000000E+00 0. -1.
         -5    1    3    3    0  503 -0.19175828185E+02  0.25262231031E+02 -0.84498817185E+02  0.90377169733E+02  0.47000000000E+01 0.  1.
         13    1    4    4    0    0  0.22967865251E+02  0.23757659057E+02  0.53747648735E+01  0.33478908218E+02  0.00000000000E+00 0. -1.
        -14    1    4    4    0    0  0.36670765622E+02 -0.63172349111E+02 -0.35722672220E+01  0.73131743016E+02  0.00000000000E+00 0.  1.
<mgrwt>
<rscale>  2 0.17860455E+03</rscale>
<asrwt>0</asrwt>
<pdfrwt beam="1">  1       21 0.39207738E-01 0.17878904E+03</pdfrwt>
<pdfrwt beam="2">  1       21 0.27681603E-01 0.17878904E+03</pdfrwt>
<totfact> 0.78562388E+04</totfact>
</mgrwt>
</event>
<event>
12    1  0.1074575E-001  0.1757514E+03  0.7546771E-02  0.1172704E+00
         21   -1    0    0  503  502  0.00000000000E+00  0.00000000000E+00  0.80037194115E+02  0.80037194115E+02  0.00000000000E+00 0.  1.
         21   -1    0    0  501  503 -0.00000000000E+00 -0.00000000000E+00 -0.45313058243E+03  0.45313058243E+03  0.00000000000E+00 0.  1.
          6    2    1    2  501    0 -0.27245099928E+02 -0.16783122339E+02 -0.29261657285E+03  0.33986728341E+03  0.16988626478E+03 0.  0.
         24    2    3    3    0    0 -0.49163672498E+02  0.40829611248E+02 -0.23160660064E+03  0.25301132447E+03  0.79303146214E+02 0.  0.
         -6    2    1    2    0  502  0.27245099928E+02  0.16783122339E+02 -0.80476815467E+02  0.19330049314E+03  0.17281375569E+03 0.  0.
        -24    2    5    5    0    0  0.81497974665E+02  0.25165165796E+02 -0.37645978824E+02  0.12351364884E+03  0.81013556174E+02 0.  0.
          5    1    3    3  501    0  0.21918572570E+02 -0.57612733587E+02 -0.61009972211E+02  0.86855958944E+02  0.47000000000E+01 0. -1.
        -13    1    4    4    0    0 -0.52448981902E+02 -0.74297646315E+01 -0.13357619697E+03  0.14369654659E+03  0.00000000000E+00 0.  1.
         14    1    4    4    0    0  0.32853094035E+01  0.48259375879E+02 -0.98030403674E+02  0.10931477788E+03  0.00000000000E+00 0. -1.
         -5    1    5    5    0  502 -0.54252874737E+02 -0.83820434567E+01 -0.42830836643E+02  0.69786844300E+02  0.47000000000E+01 0.  1.
         13    1    6    6    0    0  0.12022919301E+02  0.41137014544E+02  0.82583013495E-01  0.42858037450E+02  0.00000000000E+00 0. -1.
        -14    1    6    6    0    0  0.69475055364E+02 -0.15971848748E+02 -0.37728561838E+02  0.80655611389E+02  0.00000000000E+00 0.  1.
<mgrwt>
<rscale>  2 0.17502753E+03</rscale>
<asrwt>0</asrwt>
<pdfrwt beam="1">  1       21 0.12313415E-01 0.17575142E+03</pdfrwt>
<pdfrwt beam="2">  1       21 0.69712397E-01 0.17575142E+03</pdfrwt>
<totfact> 0.10545509E+05</totfact>
</mgrwt>
</event>
<event>
12    1  0.1074575E-001  0.3147602E+03  0.7546771E-02  0.1078174E+00
         21   -1    0    0  501  502  0.00000000000E+00  0.00000000000E+00  0.17997466593E+03  0.17997466593E+03  0.00000000000E+00 0. -1.
         21   -1    0    0  502  503 -0.00000000000E+00 -0.00000000000E+00 -0.84222370151E+03  0.84222370151E+03  0.00000000000E+00 0. -1.
         -6    2    1    2    0  503 -0.79945794476E+02 -0.25052443016E+03 -0.63286007260E+03  0.70681386908E+03  0.17297443127E+03 0.  0.
        -24    2    3    3    0    0 -0.65627204746E+02 -0.24007040881E+03 -0.63657573748E+03  0.68810011104E+03  0.79450374945E+02 0.  0.
          6    2    1    2  501    0  0.79945794476E+02  0.25052443016E+03 -0.29388962981E+02  0.31538449836E+03  0.17160958743E+03 0.  0.
         24    2    5    5    0    0  0.68622274244E+02  0.17323895867E+03 -0.84172338663E+02  0.21986185986E+03  0.80830077964E+02 0.  0.
          5    1    5    5  501    0  0.11323520233E+02  0.77285471499E+02  0.54783375682E+02  0.95522638502E+02  0.47000000000E+01 0. -1.
        -11    1    6    6    0    0  0.50135342207E+02  0.29850463823E+02 -0.28507433175E+02  0.64940561092E+02  0.00000000000E+00 0.  1.
         12    1    6    6    0    0  0.18486932037E+02  0.14338849484E+03 -0.55664905488E+02  0.15492129877E+03  0.00000000000E+00 0. -1.
         -5    1    3    3    0  503 -0.14318589731E+02 -0.10454021353E+02  0.37156648851E+01  0.18713758037E+02  0.47000000000E+01 0.  1.
         11    1    4    4    0    0 -0.71152576264E+02 -0.24408153048E+03 -0.62364998134E+03  0.67348183483E+03  0.00000000000E+00 0. -1.
        -12    1    4    4    0    0  0.55253715180E+01  0.40111216673E+01 -0.12925756147E+02  0.14618276212E+02  0.00000000000E+00 0.  1.
<mgrwt>
<rscale>  2 0.31457303E+03</rscale>
<asrwt>0</asrwt>
<pdfrwt beam="1">  1       21 0.27688410E-01 0.31476018E+03</pdfrwt>
<pdfrwt beam="2">  1       21 0.12957288E+00 0.31476018E+03</pdfrwt>
<totfact> 0.50156017E+03</totfact>
</mgrwt>
</event>
<event>
12    1  0.1074575E-001  0.2304476E+03  0.7546771E-02  0.1126337E+00
         21   -1    0    0  501  502  0.00000000000E+00  0.00000000000E+00  0.74380374260E+03  0.74380374260E+03  0.00000000000E+00 0.  1.
         21   -1    0    0  502  503 -0.00000000000E+00 -0.00000000000E+00 -0.73780427025E+02  0.73780427025E+02  0.00000000000E+00 0.  1.
         -6    2    1    2    0  503  0.11463703169E+02  0.15216088106E+03  0.40873707912E+03  0.46919274700E+03  0.17260209665E+03 0.  0.
        -24    2    3    3    0    0  0.11850424064E+02  0.14244514166E+03  0.19314849982E+03  0.25333383319E+03  0.80253580127E+02 0.  0.
          6    2    1    2  501    0 -0.11463703169E+02 -0.15216088106E+03  0.26128623645E+03  0.34839142262E+03  0.17268970955E+03 0.  0.
         24    2    5    5    0    0  0.35857810396E+02 -0.28571283001E+02  0.12721237291E+03  0.15994619111E+03  0.85426550034E+02 0.  0.
          5    1    5    5  501    0 -0.47321513566E+02 -0.12358959806E+03  0.13407386354E+03  0.18844523151E+03  0.47000000000E+01 0. -1.
        -13    1    6    6    0    0  0.22992282140E+02 -0.32463738708E+02  0.13742378715E+03  0.14306584723E+03  0.00000000000E+00 0.  1.
         14    1    6    6    0    0  0.12865528256E+02  0.38924557072E+01 -0.10211414240E+02  0.16880343881E+02  0.00000000000E+00 0. -1.
         -5    1    3    3    0  503 -0.38672089442E+00  0.97157394074E+01  0.21558857930E+03  0.21585891381E+03  0.47000000000E+01 0.  1.
         11    1    4    4    0    0  0.29440694890E+02  0.17173638599E+02  0.22221497422E+02  0.40687631118E+02  0.00000000000E+00 0. -1.
        -12    1    4    4    0    0 -0.17590270827E+02  0.12527150306E+03  0.17092700240E+03  0.21264620207E+03  0.00000000000E+00 0.  1.
<mgrwt>
<rscale>  2 0.23043116E+03</rscale>
<asrwt>0</asrwt>
<pdfrwt beam="1">  1       21 0.11443134E+00 0.23044758E+03</pdfrwt>
<pdfrwt beam="2">  1       21 0.11350835E-01 0.23044758E+03</pdfrwt>
<totfact> 0.37691953E+04</totfact>
</mgrwt>
</event>
<event>
12    1  0.1074575E-001  0.1905466E+03  0.7546771E-02  0.1158573E+00
         21   -1    0    0  503  502  0.00000000000E+00  0.00000000000E+00  0.26096516748E+03  0.26096516748E+03  0.00000000000E+00 0.  1.
         21   -1    0    0  501  503 -0.00000000000E+00 -0.00000000000E+00 -0.21097871047E+03  0.21097871047E+03  0.00000000000E+00 0.  1.
          6    2    1    2  501    0 -0.45180578628E+02  0.65488975594E+02 -0.11444256981E+03  0.22227259588E+03  0.17314131363E+03 0.  0.
         24    2    3    3    0    0  0.31075244946E+02  0.84934668087E+02 -0.77285962807E+02  0.13511877193E+03  0.64065542918E+02 0.  0.
         -6    2    1    2    0  502  0.45180578628E+02 -0.65488975594E+02  0.16442902682E+03  0.24967128207E+03  0.17020209640E+03 0.  0.
        -24    2    5    5    0    0  0.31970322627E+02 -0.80108087736E+02  0.18476743432E+03  0.22096640229E+03  0.85133653207E+02 0.  0.
          5    1    3    3  501    0 -0.76255823574E+02 -0.19445692493E+02 -0.37156606998E+02  0.87153823950E+02  0.47000000000E+01 0. -1.
        -11    1    4    4    0    0 -0.11241907329E+02  0.60033842307E+02 -0.50090257694E+02  0.78990357755E+02  0.00000000000E+00 0.  1.
         12    1    4    4    0    0  0.42317152275E+02  0.24900825780E+02 -0.27195705113E+02  0.56128414175E+02  0.00000000000E+00 0. -1.
         -5    1    5    5    0  502  0.13210256001E+02  0.14619112143E+02 -0.20338407497E+02  0.28704879776E+02  0.47000000000E+01 0.  1.
         11    1    6    6    0    0 -0.14464852246E+02 -0.64415145056E+02  0.70266471224E+02  0.96415350652E+02  0.00000000000E+00 0. -1.
        -12    1    6    6    0    0  0.46435174874E+02 -0.15692942680E+02  0.11450096309E+03  0.12455105164E+03  0.00000000000E+00 0.  1.
<mgrwt>
<rscale>  2 0.18987639E+03</rscale>
<asrwt>0</asrwt>
<pdfrwt beam="1">  1       21 0.40148487E-01 0.19054660E+03</pdfrwt>
<pdfrwt beam="2">  1       21 0.32458263E-01 0.19054660E+03</pdfrwt>
<totfact> 0.54659254E+04</totfact>
</mgrwt>
</event>
<event>
12    1  0.1074575E-001  0.1742944E+03  0.7546771E-02  0.1173530E+00
         21   -1    0    0  501  502  0.00000000000E+00  0.00000000000E+00  0.65245503600E+02  0.65245503600E+02  0.00000000000E+00 0. -1.
         21   -1    0    0  502  503 -0.00000000000E+00 -0.00000000000E+00 -0.49716211474E+03  0.49716211474E+03  0.00000000000E+00 0. -1.
         -6    2    1    2    0  503 -0.15576920985E+02 -0.15280784002E+02 -0.28805099367E+03  0.33667775248E+03  0.17292307895E+03 0.  0.
        -24    2    3    3    0    0 -0.67392429568E+02 -0.49178918058E+01 -0.24632157323E+03  0.26918204155E+03  0.84963102743E+02 0.  0.
          6    2    1    2  501    0  0.15576920985E+02  0.15280784002E+02 -0.14386561747E+03  0.22572986586E+03  0.17257031501E+03 0.  0.
         24    2    5    5    0    0 -0.66408567353E+01 -0.21542734878E+02 -0.81578222544E+01  0.83292873222E+02  0.79768178250E+02 0.  0.
          5    1    5    5  501    0  0.22217777720E+02  0.36823518880E+02 -0.13570779521E+03  0.14243699264E+03  0.47000000000E+01 0. -1.
        -11    1    6    6    0    0 -0.13502031057E+02  0.27895907508E+02 -0.11997532423E+02  0.33232924677E+02  0.00000000000E+00 0.  1.
         12    1    6    6    0    0  0.68611743216E+01 -0.49438642386E+02  0.38397101687E+01  0.50059948544E+02  0.00000000000E+00 0. -1.
         -5    1    3    3    0  503  0.51815508584E+02 -0.10362892196E+02 -0.41729420435E+02  0.67495710932E+02  0.47000000000E+01 0.  1.
         13    1    4    4    0    0 -0.56991167307E+02 -0.34462847210E+02 -0.21420675918E+03  0.22432168123E+03  0.00000000000E+00 0. -1.
        -14    1    4    4    0    0 -0.10401262261E+02  0.29544955404E+02 -0.32114814050E+02  0.44860360319E+02  0.00000000000E+00 0.  1.
<mgrwt>
<rscale>  2 0.17420683E+03</rscale>
<asrwt>0</asrwt>
<pdfrwt beam="1">  1       21 0.10037769E-01 0.17429439E+03</pdfrwt>
<pdfrwt beam="2">  1       21 0.76486481E-01 0.17429439E+03</pdfrwt>
<totfact> 0.12348690E+05</totfact>
</mgrwt>
</event>
<event>
12    1  0.1074575E-001  0.2024091E+03  0.7546771E-02  0.1148621E+00
         21   -1    0    0  501  502  0.00000000000E+00  0.00000000000E+00  0.55862520453E+03  0.55862520453E+03  0.00000000000E+00 0.  1.
         21   -1    0    0  502  503 -0.00000000000E+00 -0.00000000000E+00 -0.93762414668E+02  0.93762414668E+02  0.00000000000E+00 0.  1.
         -6    2    1    2    0  503  0.95697081884E+02  0.13952805700E+02  0.76462380493E+02  0.21636991409E+03  0.17781122525E+03 0.  0.
        -24    2    3    3    0    0 -0.25695767237E+02  0.84490539180E+01  0.48298251190E+02  0.91542740440E+02  0.72908801206E+02 0.  0.
          6    2    1    2  501    0 -0.95697081884E+02 -0.13952805700E+02  0.38840040937E+03  0.43601770511E+03  0.17292758283E+03 0.  0.
         24    2    5    5    0    0 -0.43665139522E+02  0.90574633609E+01  0.36128189367E+03  0.37281723516E+03  0.80494733279E+02 0.  0.
          5    1    5    5  501    0 -0.52031942362E+02 -0.23010269061E+02  0.27118515696E+02  0.63200469949E+02  0.47000000000E+01 0. -1.
        -13    1    6    6    0    0 -0.51728992142E+02  0.13489453805E+02  0.12010730617E+03  0.13146717837E+03  0.00000000000E+00 0.  1.
         14    1    6    6    0    0  0.80638526208E+01 -0.44319904442E+01  0.24117458750E+03  0.24135005679E+03  0.00000000000E+00 0. -1.
         -5    1    3    3    0  503  0.12139284912E+03  0.55037517820E+01  0.28164129303E+02  0.12482717365E+03  0.47000000000E+01 0.  1.
         13    1    4    4    0    0 -0.16490030523E+02  0.28799976752E+02 -0.51788515720E+01  0.33588394888E+02  0.00000000000E+00 0. -1.
        -14    1    4    4    0    0 -0.92057367147E+01 -0.20350922834E+02  0.53477102762E+02  0.57954345552E+02  0.00000000000E+00 0.  1.
<mgrwt>
<rscale>  2 0.20133142E+03</rscale>
<asrwt>0</asrwt>
<pdfrwt beam="1">  1       21 0.85942337E-01 0.20240910E+03</pdfrwt>
<pdfrwt beam="2">  1       21 0.14424987E-01 0.20240910E+03</pdfrwt>
<totfact> 0.48966752E+04</totfact>
</mgrwt>
</event>
<event>
12    1  0.1074575E-001  0.3026402E+03  0.7546771E-02  0.1083973E+00
         21   -1    0    0  503  502  0.00000000000E+00  0.00000000000E+00  0.20490217354E+03  0.20490217354E+03  0.00000000000E+00 0.  1.
         21   -1    0    0  501  503 -0.00000000000E+00 -0.00000000000E+00 -0.88581420302E+03  0.88581420302E+03  0.00000000000E+00 0. -1.
          6    2    1    2  501    0  0.24816830319E+03  0.15928271741E+02 -0.72463261390E+03  0.78529201071E+03  0.17248159439E+03 0.  0.
         24    2    3    3    0    0  0.53426158929E+02  0.39558704489E+02 -0.20785949971E+03  0.23251769722E+03  0.80247506759E+02 0.  0.
         -6    2    1    2    0  502 -0.24816830319E+03 -0.15928271741E+02  0.43720584427E+02  0.30542436585E+03  0.17184684229E+03 0.  0.
        -24    2    5    5    0    0 -0.14405960197E+03  0.23490698774E+02 -0.34089639548E+02  0.16952367468E+03  0.79190851142E+02 0.  0.
          5    1    3    3  501    0  0.19474214426E+03 -0.23630432749E+02 -0.51677311419E+03  0.55277431349E+03  0.47000000000E+01 0. -1.
        -11    1    4    4    0    0  0.10869832875E+01  0.49342926656E+02 -0.12042291153E+03  0.13014447190E+03  0.00000000000E+00 0.  1.
         12    1    4    4    0    0  0.52339175641E+02 -0.97842221670E+01 -0.87436588177E+02  0.10237322532E+03  0.00000000000E+00 0. -1.
         -5    1    5    5    0  502 -0.10410870122E+03 -0.39418970515E+02  0.77810223975E+02  0.13590069117E+03  0.47000000000E+01 0.  1.
         13    1    6    6    0    0 -0.92259883222E+02 -0.21819580313E+02 -0.33958303848E+02  0.10070325982E+03  0.00000000000E+00 0. -1.
        -14    1    6    6    0    0 -0.51799718746E+02  0.45310279087E+02 -0.13133569929E+00  0.68820414865E+02  0.00000000000E+00 0.  1.
<mgrwt>
<rscale>  2 0.30254988E+03</rscale>
<asrwt>0</asrwt>
<pdfrwt beam="1">  1       21 0.31523412E-01 0.30264024E+03</pdfrwt>
<pdfrwt beam="2">  1       21 0.13627911E+00 0.30264024E+03</pdfrwt>
<totfact> 0.34341783E+03</totfact>
</mgrwt>
</event>
<event>
12    1  0.1074575E-001  0.1913179E+03  0.7546771E-02  0.1157501E+00
         21   -1    0    0  501  502  0.00000000000E+00  0.00000000000E+00  0.23136717049E+03  0.23136717049E+03  0.00000000000E+00 0.  1.
         21   -1    0    0  502  503 -0.00000000000E+00 -0.00000000000E+00 -0.17386652661E+03  0.17386652661E+03  0.00000000000E+00 0. -1.
         -6    2    1    2    0  503  0.76983501461E+02  0.23174566734E+02 -0.33576996234E+02  0.19424201927E+03  0.17360595420E+03 0.  0.
        -24    2    3    3    0    0  0.67024932793E+01  0.36040148763E+02  0.34505249631E+02  0.95438044073E+02  0.81080159504E+02 0.  0.
          6    2    1    2  501    0 -0.76983501461E+02 -0.23174566734E+02  0.91077640109E+02  0.21099167784E+03  0.17250748259E+03 0.  0.
         24    2    5    5    0    0 -0.10912560412E+03  0.17457965934E+02  0.76011685913E+02  0.15683274090E+03  0.81274560428E+02 0.  0.
          5    1    5    5  501    0  0.32142102661E+02 -0.40632532668E+02  0.15065954195E+02  0.54158936938E+02  0.47000000000E+01 0. -1.
        -11    1    6    6    0    0 -0.55808937517E+02  0.26081608064E+02 -0.23661457957E+01  0.61648085387E+02  0.00000000000E+00 0.  1.
         12    1    6    6    0    0 -0.53316666606E+02 -0.86236421299E+01  0.78377831709E+02  0.95184655512E+02  0.00000000000E+00 0. -1.
         -5    1    3    3    0  503  0.70281008182E+02 -0.12865582029E+02 -0.68082245866E+02  0.98803975194E+02  0.47000000000E+01 0.  1.
         13    1    4    4    0    0  0.22922905415E+02  0.56950642569E+02  0.16975323959E+02  0.63694559463E+02  0.00000000000E+00 0. -1.
        -14    1    4    4    0    0 -0.16220412136E+02 -0.20910493806E+02  0.17529925673E+02  0.31743484609E+02  0.00000000000E+00 0.  1.
<mgrwt>
<rscale>  2 0.19106838E+03</rscale>
<asrwt>0</asrwt>
<pdfrwt beam="1">  1       21 0.35594949E-01 0.19131792E+03</pdfrwt>
<pdfrwt beam="2">  1       21 0.26748696E-01 0.19131792E+03</pdfrwt>
<totfact> 0.10132004E+05</totfact>
</mgrwt>
</event>
<event>
12    1  0.1074575E-001  0.2374860E+03  0.7546771E-02  0.1124063E+00
         21   -1    0    0  503  502  0.00000000000E+00  0.00000000000E+00  0.11025175698E+03  0.11025175698E+03  0.00000000000E+00 0.  1.
         21   -1    0    0  501  503 -0.00000000000E+00 -0.00000000000E+00 -0.13434302638E+04  0.13434302638E+04  0.00000000000E+00 0. -1.
          6    2    1    2  501    0 -0.75315562382E+01 -0.15909180432E+03 -0.11920346513E+04  0.12126583287E+04  0.15564923975E+03 0.  0.
         24    2    3    3    0    0  0.16457671803E+02 -0.11167482332E+03 -0.50961772617E+03  0.52815938583E+03  0.80622508575E+02 0.  0.
         -6    2    1    2    0  502  0.75315562382E+01  0.15909180432E+03 -0.41143855519E+02  0.24102369203E+03  0.17616093985E+03 0.  0.
        -24    2    5    5    0    0 -0.17161793002E+02  0.84190329663E+02 -0.89326063075E+02  0.14848393015E+03  0.81766699947E+02 0.  0.
          5    1    3    3  501    0 -0.23989228042E+02 -0.47416981009E+02 -0.68241692513E+03  0.68449894292E+03  0.47000000000E+01 0. -1.
        -11    1    4    4    0    0 -0.15930548387E+02 -0.81606580641E+02 -0.21997805330E+03  0.23516751542E+03  0.00000000000E+00 0.  1.
         12    1    4    4    0    0  0.32388220191E+02 -0.30068242674E+02 -0.28963967287E+03  0.29299187041E+03  0.00000000000E+00 0. -1.
         -5    1    5    5    0  502  0.24693349240E+02  0.74901474661E+02  0.48182207557E+02  0.92539761876E+02  0.47000000000E+01 0.  1.
         11    1    6    6    0    0  0.32287761898E+02  0.39537991153E+02 -0.48075205145E+02  0.70121164156E+02  0.00000000000E+00 0. -1.
        -12    1    6    6    0    0 -0.49449554900E+02  0.44652338510E+02 -0.41250857931E+02  0.78362765994E+02  0.00000000000E+00 0.  1.
<mgrwt>
<rscale>  2 0.23369894E+03</rscale>
<asrwt>0</asrwt>
<pdfrwt beam="1">  1       21 0.16961808E-01 0.23748601E+03</pdfrwt>
<pdfrwt beam="2">  1       21 0.20668158E+00 0.23748601E+03</pdfrwt>
<totfact> 0.36630990E+03</totfact>
</mgrwt>
</event>
<event>
12    1  0.1074575E-001  0.1721839E+03  0.7546771E-02  0.1178587E+00
         21   -1    0    0  501  502  0.00000000000E+00  0.00000000000E+00  0.91563869100E+02  0.91563869100E+02  0.00000000000E+00 0.  1.
         21   -1    0    0  502  503 -0.00000000000E+00 -0.00000000000E+00 -0.33348728843E+03  0.33348728843E+03  0.00000000000E+00 0.  1.
         -6    2    1    2    0  503  0.11188922442E+01 -0.34693418259E+02 -0.52949438218E+02  0.16939813274E+03  0.15712160633E+03 0.  0.
        -24    2    3    3    0    0 -0.23209126746E+02 -0.55994428741E+02  0.32247697783E+01  0.10441184803E+03  0.84955254430E+02 0.  0.
          6    2    1    2  501    0 -0.11188922442E+01  0.34693418259E+02 -0.18897398111E+03  0.25565302479E+03  0.16864880183E+03 0.  0.
         24    2    5    5    0    0  0.24364992745E+01  0.65793668665E+02 -0.19751792038E+03  0.22286651412E+03  0.79507300784E+02 0.  0.
          5    1    5    5  501    0 -0.35553915187E+01 -0.31100250406E+02  0.85439392687E+01  0.32786510677E+02  0.47000000000E+01 0. -1.
        -13    1    6    6    0    0  0.24031961285E+02  0.62524164066E+02 -0.84861604930E+02  0.10811243336E+03  0.00000000000E+00 0.  1.
         14    1    6    6    0    0 -0.21595462011E+02  0.32695045992E+01 -0.11265631545E+03  0.11475408076E+03  0.00000000000E+00 0. -1.
         -5    1    3    3    0  503  0.24328018990E+02  0.21301010481E+02 -0.56174207996E+02  0.64986284703E+02  0.47000000000E+01 0.  1.
         11    1    4    4    0    0 -0.26191201826E+02 -0.35377617757E+01 -0.31737726006E+02  0.41301066131E+02  0.00000000000E+00 0. -1.
        -12    1    4    4    0    0  0.29820750808E+01 -0.52456666965E+02  0.34962495785E+02  0.63110781902E+02  0.00000000000E+00 0.  1.
<mgrwt>
<rscale>  2 0.16929352E+03</rscale>
<asrwt>0</asrwt>
<pdfrwt beam="1">  1       21 0.14086749E-01 0.17218392E+03</pdfrwt>
<pdfrwt beam="2">  1       21 0.51305736E-01 0.17218392E+03</pdfrwt>
<totfact> 0.15980985E+05</totfact>
</mgrwt>
</event>
<event>
12    1  0.1074575E-001  0.1743213E+03  0.7546771E-02  0.1173605E+00
         21   -1    0    0  503  502  0.00000000000E+00  0.00000000000E+00  0.68684020460E+03  0.68684020460E+03  0.00000000000E+00 0. -1.
         21   -1    0    0  501  503 -0.00000000000E+00 -0.00000000000E+00 -0.14359149656E+03  0.14359149656E+03  0.00000000000E+00 0. -1.
          6    2    1    2  501    0  0.13266676729E+02  0.15827215503E+02 -0.74262014275E+02  0.18878740744E+03  0.17233494417E+03 0.  0.
         24    2    3    3    0    0 -0.42336282891E+02  0.18150459791E+02 -0.91377607105E+02  0.13037405194E+03  0.80781967662E+02 0.  0.
         -6    2    1    2    0  502 -0.13266676729E+02 -0.15827215503E+02  0.61751072231E+03  0.64164429373E+03  0.17309362218E+03 0.  0.
        -24    2    5    5    0    0 -0.27962245060E+02  0.30334553877E+02  0.55674922725E+03  0.56379239610E+03  0.78677134912E+02 0.  0.
          5    1    3    3  501    0  0.55602959620E+02 -0.23232442886E+01  0.17115592830E+02  0.58413355497E+02  0.47000000000E+01 0. -1.
        -13    1    4    4    0    0 -0.34012242807E+02  0.16236835017E+02  0.90212883515E+00  0.37699884729E+02  0.00000000000E+00 0.  1.
         14    1    4    4    0    0 -0.83240400843E+01  0.19136247746E+01 -0.92279735941E+02  0.92674167212E+02  0.00000000000E+00 0. -1.
         -5    1    5    5    0  502  0.14695568331E+02 -0.46161769380E+02  0.60761495069E+02  0.77851897626E+02  0.47000000000E+01 0.  1.
         11    1    6    6    0    0  0.20617998758E+02  0.89564073275E+01  0.33603914308E+03  0.33679017917E+03  0.00000000000E+00 0. -1.
        -12    1    6    6    0    0 -0.48580243818E+02  0.21378146550E+02  0.22071008416E+03  0.22700221693E+03  0.00000000000E+00 0.  1.
<mgrwt>
<rscale>  2 0.17413264E+03</rscale>
<asrwt>0</asrwt>
<pdfrwt beam="1">  1       21 0.10566772E+00 0.17432128E+03</pdfrwt>
<pdfrwt beam="2">  1       21 0.22091000E-01 0.17432128E+03</pdfrwt>
<totfact> 0.13955344E+04</totfact>
</mgrwt>
</event>
<event>
12    1  0.1074575E-001  0.2995937E+03  0.7546771E-02  0.1086139E+00
         21   -1    0    0  501  502  0.00000000000E+00  0.00000000000E+00  0.14567348515E+03  0.14567348515E+03  0.00000000000E+00 0.  1.
         21   -1    0    0  502  503 -0.00000000000E+00 -0.00000000000E+00 -0.12137084122E+04  0.12137084122E+04  0.00000000000E+00 0.  1.
         -6    2    1    2    0  503  0.47855511961E+02  0.23948669031E+03 -0.10178581787E+04  0.10610332884E+04  0.17352908217E+03 0.  0.
        -24    2    3    3    0    0 -0.33104482135E+02  0.73966483348E+02 -0.36380454904E+03  0.38150426034E+03  0.81392894995E+02 0.  0.
          6    2    1    2  501    0 -0.47855511961E+02 -0.23948669031E+03 -0.50176748393E+02  0.29834860896E+03  0.16386018897E+03 0.  0.
         24    2    5    5    0    0 -0.26986032919E+02 -0.25216668769E+03 -0.34424986805E+02  0.26891180406E+03  0.82536018158E+02 0.  0.
          5    1    5    5  501    0 -0.20869479043E+02  0.12679997388E+02 -0.15751761588E+02  0.29436804895E+02  0.47000000000E+01 0. -1.
        -13    1    6    6    0    0 -0.48818159181E+02 -0.91486336004E+02 -0.23892067133E+02  0.10641331314E+03  0.00000000000E+00 0.  1.
         14    1    6    6    0    0  0.21832126262E+02 -0.16068035169E+03 -0.10532919671E+02  0.16249849093E+03  0.00000000000E+00 0. -1.
         -5    1    3    3    0  503  0.80959994097E+02  0.16552020696E+03 -0.65405362962E+03  0.67952902806E+03  0.47000000000E+01 0.  1.
         11    1    4    4    0    0 -0.29541750184E+02  0.84742413697E+02 -0.22501469194E+03  0.24225111614E+03  0.00000000000E+00 0. -1.
        -12    1    4    4    0    0 -0.35627319509E+01 -0.10775930350E+02 -0.13878985711E+03  0.13925314420E+03  0.00000000000E+00 0.  1.
<mgrwt>
<rscale>  2 0.29821044E+03</rscale>
<asrwt>0</asrwt>
<pdfrwt beam="1">  1       21 0.22411306E-01 0.29959367E+03</pdfrwt>
<pdfrwt beam="2">  1       21 0.18672437E+00 0.29959367E+03</pdfrwt>
<totfact> 0.28106971E+03</totfact>
</mgrwt>
</event>
<event>
12    1  0.1074575E-001  0.2173886E+03  0.7546771E-02  0.1135955E+00
         21   -1    0    0  501  502  0.00000000000E+00  0.00000000000E+00  0.79129051856E+02  0.79129051856E+02  0.00000000000E+00 0. -1.
         21   -1    0    0  502  503 -0.00000000000E+00 -0.00000000000E+00 -0.70080919422E+03  0.70080919422E+03  0.00000000000E+00 0. -1.
         -6    2    1    2    0  503  0.11382504097E+03 -0.67392129861E+02 -0.46155956491E+03  0.50994491164E+03  0.17178108695E+03 0.  0.
        -24    2    3    3    0    0  0.17387895233E+02 -0.91268904611E+02 -0.15956449783E+03  0.19199313230E+03  0.52613515675E+02 0.  0.
          6    2    1    2  501    0 -0.11382504097E+03  0.67392129861E+02 -0.16012057746E+03  0.26999333444E+03  0.17251075965E+03 0.  0.
         24    2    5    5    0    0  0.43947291856E-01  0.36676632518E+02 -0.11397977100E+03  0.14326270560E+03  0.78661536430E+02 0.  0.
          5    1    5    5  501    0 -0.11386898826E+03  0.30715497343E+02 -0.46140806461E+02  0.12673062884E+03  0.47000000000E+01 0. -1.
        -11    1    6    6    0    0  0.32307887737E+02  0.33307325637E+00 -0.21555104790E+02  0.38839838959E+02  0.00000000000E+00 0.  1.
         12    1    6    6    0    0 -0.32263940445E+02  0.36343559261E+02 -0.92424666211E+02  0.10442286664E+03  0.00000000000E+00 0. -1.
         -5    1    3    3    0  503  0.96437145740E+02  0.23876774750E+02 -0.30199506707E+03  0.31795177934E+03  0.47000000000E+01 0.  1.
         11    1    4    4    0    0  0.14553594892E+01 -0.50348719250E+02 -0.12901602944E+03  0.13849999081E+03  0.00000000000E+00 0. -1.
        -12    1    4    4    0    0  0.15932535744E+02 -0.40920185361E+02 -0.30548468388E+02  0.53493141486E+02  0.00000000000E+00 0.  1.
<mgrwt>
<rscale>  2 0.21724380E+03</rscale>
<asrwt>0</asrwt>
<pdfrwt beam="1">  1       21 0.12173700E-01 0.21738860E+03</pdfrwt>
<pdfrwt beam="2">  1       21 0.10781680E+00 0.21738860E+03</pdfrwt>
<totfact> 0.38688964E+04</totfact>
</mgrwt>
</event>
<event>
12    1  0.1074575E-001  0.1973212E+03  0.7546771E-02  0.1152279E+00
         21   -1    0    0  501  502  0.00000000000E+00  0.00000000000E+00  0.58957327238E+02  0.58957327238E+02  0.00000000000E+00 0. -1.
         21   -1    0    0  502  503 -0.00000000000E+00 -0.00000000000E+00 -0.72595086839E+03  0.72595086839E+03  0.00000000000E+00 0. -1.
         -6    2    1    2    0  503  0.94517601958E+02 -0.86558593278E+01 -0.45592452402E+03  0.49679255443E+03  0.17299470962E+03 0.  0.
        -24    2    3    3    0    0  0.79143557880E+02 -0.54827710613E+02 -0.41322082809E+03  0.43187802040E+03  0.80606396360E+02 0.  0.
          6    2    1    2  501    0 -0.94517601958E+02  0.86558593278E+01 -0.21106901713E+03  0.28811564120E+03  0.17161582598E+03 0.  0.
         24    2    5    5    0    0 -0.10645789359E+03  0.57719422536E+02 -0.14838616881E+03  0.20748665588E+03  0.79796255733E+02 0.  0.
          5    1    5    5  501    0  0.11940291632E+02 -0.49063563208E+02 -0.62682848326E+02  0.80628985317E+02  0.47000000000E+01 0. -1.
        -11    1    6    6    0    0  0.32234303971E+01 -0.10582709977E+02 -0.31006857669E+02  0.32921261769E+02  0.00000000000E+00 0.  1.
         12    1    6    6    0    0 -0.10968132399E+03  0.68302132512E+02 -0.11737931114E+03  0.17456539411E+03  0.00000000000E+00 0. -1.
         -5    1    3    3    0  503  0.15374044079E+02  0.46171851285E+02 -0.42703695931E+02  0.64914534032E+02  0.47000000000E+01 0.  1.
         13    1    4    4    0    0  0.67268770010E+02 -0.42231104559E+02 -0.16570117225E+03  0.18375372675E+03  0.00000000000E+00 0. -1.
        -14    1    4    4    0    0  0.11874787870E+02 -0.12596606054E+02 -0.24751965584E+03  0.24812429365E+03  0.00000000000E+00 0.  1.
<mgrwt>
<rscale>  2 0.19701860E+03</rscale>
<asrwt>0</asrwt>
<pdfrwt beam="1">  1       21 0.90703578E-02 0.19732124E+03</pdfrwt>
<pdfrwt beam="2">  1       21 0.11168475E+00 0.19732124E+03</pdfrwt>
<totfact> 0.60514140E+04</totfact>
</mgrwt>
</event>
<event>
12    1  0.1074575E-001  0.2304966E+03  0.7546771E-02  0.1126411E+00
         21   -1    0    0  503  502  0.00000000000E+00  0.00000000000E+00  0.11628214501E+03  0.11628214501E+03  0.00000000000E+00 0.  1.
         21   -1    0    0  501  503 -0.00000000000E+00 -0.00000000000E+00 -0.17192652515E+04  0.17192652515E+04  0.00000000000E+00 0. -1.
          6    2    1    2  501    0 -0.14047405660E+03  0.56623077253E+02 -0.15886537941E+04  0.16052880045E+04  0.17375144971E+03 0.  0.
         24    2    3    3    0    0 -0.28713158505E+02 -0.86105016268E+01 -0.88509606363E+03  0.88991293621E+03  0.87472315469E+02 0.  0.
         -6    2    1    2    0  502  0.14047405660E+03 -0.56623077253E+02 -0.14329312371E+02  0.23025939204E+03  0.17284364313E+03 0.  0.
        -24    2    5    5    0    0  0.20456614993E+02 -0.27689057837E+02 -0.52674965787E+02  0.10090003634E+03  0.78873368711E+02 0.  0.
          5    1    3    3  501    0 -0.11176089810E+03  0.65233578879E+02 -0.70355773050E+03  0.71537506827E+03  0.47000000000E+01 0. -1.
        -13    1    4    4    0    0 -0.30322511625E+02 -0.69712522779E+01 -0.98148877002E+02  0.10296239666E+03  0.00000000000E+00 0.  1.
         14    1    4    4    0    0  0.16093531196E+01 -0.16392493489E+01 -0.78694718663E+03  0.78695053955E+03  0.00000000000E+00 0. -1.
         -5    1    5    5    0  502  0.12001744161E+03 -0.28934019416E+02  0.38345653416E+02  0.12935935570E+03  0.47000000000E+01 0.  1.
         13    1    6    6    0    0  0.27354025078E+02 -0.26314748419E+01 -0.66145647652E+02  0.71626908708E+02  0.00000000000E+00 0. -1.
        -14    1    6    6    0    0 -0.68974100846E+01 -0.25057582995E+02  0.13470681865E+02  0.29273127631E+02  0.00000000000E+00 0.  1.
<mgrwt>
<rscale>  2 0.23032556E+03</rscale>
<asrwt>0</asrwt>
<pdfrwt beam="1">  1       21 0.17889561E-01 0.23049664E+03</pdfrwt>
<pdfrwt beam="2">  1       21 0.26450235E+00 0.23049664E+03</pdfrwt>
<totfact> 0.14884128E+03</totfact>
</mgrwt>
</event>
<event>
12    1  0.1074575E-001  0.1906196E+03  0.7546771E-02  0.1158203E+00
         21   -1    0    0  503  502  0.00000000000E+00  0.00000000000E+00  0.28452081247E+03  0.28452081247E+03  0.00000000000E+00 0. -1.
         21   -1    0    0  501  503 -0.00000000000E+00 -0.00000000000E+00 -0.14705891548E+03  0.14705891548E+03  0.00000000000E+00 0. -1.
          6    2    1    2  501    0 -0.60129743515E+02  0.48529482437E+02  0.14898927968E+03  0.24193725797E+03  0.17425594570E+03 0.  0.
         24    2    3    3    0    0  0.14655979419E+02  0.71731895544E+02  0.11020842565E+03  0.15443125264E+03  0.79642024945E+02 0.  0.
         -6    2    1    2    0  502  0.60129743515E+02 -0.48529482437E+02 -0.11527382687E+02  0.18964246998E+03  0.17280245701E+03 0.  0.
        -24    2    5    5    0    0  0.70657694151E+02 -0.39024845859E+02  0.52108625323E+02  0.12427575539E+03  0.78827065198E+02 0.  0.
          5    1    3    3  501    0 -0.74785722934E+02 -0.23202413107E+02  0.38780854033E+02  0.87506005327E+02  0.47000000000E+01 0. -1.
        -11    1    4    4    0    0  0.18182190087E+02  0.97249766600E+01  0.84895782564E+02  0.87363957698E+02  0.00000000000E+00 0.  1.
         12    1    4    4    0    0 -0.35262106685E+01  0.62006918884E+02  0.25312643085E+02  0.67067294944E+02  0.00000000000E+00 0. -1.
         -5    1    5    5    0  502 -0.10527950636E+02 -0.95046365778E+01 -0.63636008011E+02  0.65366714592E+02  0.47000000000E+01 0.  1.
         11    1    6    6    0    0 -0.11726824476E+02 -0.15419536571E+02  0.30100228559E+02  0.35795310861E+02  0.00000000000E+00 0. -1.
        -12    1    6    6    0    0  0.82384518626E+02 -0.23605309288E+02  0.22008396764E+02  0.88480444529E+02  0.00000000000E+00 0.  1.
<mgrwt>
<rscale>  2 0.19028678E+03</rscale>
<asrwt>0</asrwt>
<pdfrwt beam="1">  1       21 0.43772433E-01 0.19061960E+03</pdfrwt>
<pdfrwt beam="2">  1       21 0.22624449E-01 0.19061960E+03</pdfrwt>
<totfact> 0.91900225E+04</totfact>
</mgrwt>
</event>
<event>
12    1  0.1074575E-001  0.2007048E+03  0.7546771E-02  0.1149917E+00
         21   -1    0    0  501  502  0.00000000000E+00  0.00000000000E+00  0.10370458324E+03  0.10370458324E+03  0.00000000000E+00 0. -1.
         21   -1    0    0  502  503 -0.00000000000E+00 -0.00000000000E+00 -0.52309101361E+03  0.52309101361E+03  0.00000000000E+00 0. -1.
         -6    2    1    2    0  503 -0.81986016075E+02 -0.53774079302E+02 -0.37418039046E+03  0.42460966342E+03  0.17512579258E+03 0.  0.
        -24    2    3    3    0    0 -0.11277609855E+03 -0.66348546165E+02 -0.22992625014E+03  0.27649655328E+03  0.80397049019E+02 0.  0.
          6    2    1    2  501    0  0.81986016075E+02  0.53774079302E+02 -0.45206039918E+02  0.20218593344E+03  0.17094504146E+03 0.  0.
         24    2    5    5    0    0  0.12255493717E+03  0.48003534405E+02 -0.24403608883E+02  0.15599104537E+03  0.80085068324E+02 0.  0.
          5    1    5    5  501    0 -0.40568921092E+02  0.57705448963E+01 -0.20802431035E+02  0.46194888072E+02  0.47000000000E+01 0. -1.
        -13    1    6    6    0    0  0.68687116443E+02  0.34793949700E+02 -0.53111468985E+02  0.93538051288E+02  0.00000000000E+00 0.  1.
         14    1    6    6    0    0  0.53867820724E+02  0.13209584706E+02  0.28707860102E+02  0.62452994078E+02  0.00000000000E+00 0. -1.
         -5    1    3    3    0  503  0.30790082473E+02  0.12574466864E+02 -0.14425414032E+03  0.14811311014E+03  0.47000000000E+01 0.  1.
         13    1    4    4    0    0 -0.70068564897E+02 -0.61411999743E+02 -0.20869278246E+03  0.22854696443E+03  0.00000000000E+00 0. -1.
        -14    1    4    4    0    0 -0.42707533651E+02 -0.49365464219E+01 -0.21233467676E+02  0.47949588847E+02  0.00000000000E+00 0.  1.
<mgrwt>
<rscale>  2 0.19978918E+03</rscale>
<asrwt>0</asrwt>
<pdfrwt beam="1">  1       21 0.15954552E-01 0.20070476E+03</pdfrwt>
<pdfrwt beam="2">  1       21 0.80475539E-01 0.20070476E+03</pdfrwt>
<totfact> 0.47370821E+04</totfact>
</mgrwt>
</event>
<event>
12    1  0.1074575E-001  0.2039403E+03  0.7546771E-02  0.1146582E+00
         21   -1    0    0  501  502  0.00000000000E+00  0.00000000000E+00  0.82843098813E+02  0.82843098813E+02  0.00000000000E+00 0. -1.
         21   -1    0    0  502  503 -0.00000000000E+00 -0.00000000000E+00 -0.82754653460E+03  0.82754653460E+03  0.00000000000E+00 0.  1.
         -6    2    1    2    0  503  0.53417873476E+02  0.94297162316E+02 -0.65814815426E+03  0.68884172724E+03  0.17204216984E+03 0.  0.
        -24    2    3    3    0    0  0.74738560050E+02  0.13541325917E+02 -0.47087457913E+03  0.48373307620E+03  0.80657298952E+02 0.  0.
          6    2    1    2  501    0 -0.53417873476E+02 -0.94297162316E+02 -0.86555281524E+02  0.22154790617E+03  0.17276062613E+03 0.  0.
         24    2    5    5    0    0  0.23885583023E+02 -0.45682789116E+01 -0.33840148630E+02  0.91824846774E+02  0.81824547522E+02 0.  0.
          5    1    5    5  501    0 -0.77303456498E+02 -0.89728883404E+02 -0.52715132895E+02  0.12972305940E+03  0.47000000000E+01 0. -1.
        -11    1    6    6    0    0 -0.21581889385E+02 -0.39397985857E+01 -0.40311718502E+02  0.45894821177E+02  0.00000000000E+00 0.  1.
         12    1    6    6    0    0  0.45467472408E+02 -0.62848032589E+00  0.64715698726E+01  0.45930025596E+02  0.00000000000E+00 0. -1.
         -5    1    3    3    0  503 -0.21320686575E+02  0.80755836399E+02 -0.18727357514E+03  0.20510865104E+03  0.47000000000E+01 0.  1.
         13    1    4    4    0    0 -0.12372985586E+02 -0.11174287605E+02 -0.12888831907E+03  0.12996212629E+03  0.00000000000E+00 0. -1.
        -14    1    4    4    0    0  0.87111545636E+02  0.24715613521E+02 -0.34198626005E+03  0.35377094991E+03  0.00000000000E+00 0.  1.
<mgrwt>
<rscale>  2 0.20378810E+03</rscale>
<asrwt>0</asrwt>
<pdfrwt beam="1">  1       21 0.12745092E-01 0.20394033E+03</pdfrwt>
<pdfrwt beam="2">  1       21 0.12731485E+00 0.20394033E+03</pdfrwt>
<totfact> 0.23828370E+04</totfact>
</mgrwt>
</event>
<event>
12    1  0.1074575E-001  0.1942981E+03  0.7546771E-02  0.1157342E+00
         21   -1    0    0  501  502  0.00000000000E+00  0.00000000000E+00  0.37201688942E+03  0.37201688942E+03  0.00000000000E+00 0.  1.
         21   -1    0    0  502  503 -0.00000000000E+00 -0.00000000000E+00 -0.11329400267E+03  0.11329400267E+03  0.00000000000E+00 0.  1.
         -6    2    1    2    0  503  0.50666317701E+02 -0.30822316583E+02  0.36271768752E+02  0.19765469210E+03  0.18502606614E+03 0.  0.
        -24    2    3    3    0    0 -0.34674327498E+02 -0.57626226442E+02  0.20149910176E+02  0.10664106878E+03  0.80269593923E+02 0.  0.
          6    2    1    2  501    0 -0.50666317701E+02  0.30822316583E+02  0.22245111800E+03  0.28765619999E+03  0.17246593444E+03 0.  0.
         24    2    5    5    0    0 -0.78212947634E+02  0.55415329741E+02  0.21644747897E+03  0.24994987693E+03  0.80232822928E+02 0.  0.
          5    1    5    5  501    0  0.27546629934E+02 -0.24593013158E+02  0.60036390297E+01  0.37706323057E+02  0.47000000000E+01 0. -1.
        -13    1    6    6    0    0 -0.49263050421E+02 -0.99523621461E+01  0.11822812608E+03  0.12846706755E+03  0.00000000000E+00 0.  1.
         14    1    6    6    0    0 -0.28949897213E+02  0.65367691887E+02  0.98219352894E+02  0.12148280938E+03  0.00000000000E+00 0. -1.
         -5    1    3    3    0  503  0.85340645198E+02  0.26803909860E+02  0.16121858577E+02  0.91013623324E+02  0.47000000000E+01 0.  1.
         13    1    4    4    0    0 -0.37078943858E+01  0.19947235196E+02 -0.15329414170E+01  0.20346758517E+02  0.00000000000E+00 0. -1.
        -14    1    4    4    0    0 -0.30966433112E+02 -0.77573461639E+02  0.21682851593E+02  0.86294310261E+02  0.00000000000E+00 0.  1.
<mgrwt>
<rscale>  2 0.19124682E+03</rscale>
<asrwt>0</asrwt>
<pdfrwt beam="1">  1       21 0.57233367E-01 0.19429806E+03</pdfrwt>
<pdfrwt beam="2">  1       21 0.17429847E-01 0.19429806E+03</pdfrwt>
<totfact> 0.85352089E+04</totfact>
</mgrwt>
</event>
<event>
12    1  0.1074575E-001  0.2428334E+03  0.7546771E-02  0.1118016E+00
         21   -1    0    0  501  502  0.00000000000E+00  0.00000000000E+00  0.76675938367E+02  0.76675938367E+02  0.00000000000E+00 0.  1.
         21   -1    0    0  502  503 -0.00000000000E+00 -0.00000000000E+00 -0.17534133815E+04  0.17534133815E+04  0.00000000000E+00 0. -1.
         -6    2    1    2    0  503 -0.61313600887E+02  0.15780251768E+03 -0.15241811581E+04  0.15433115851E+04  0.17326700099E+03 0.  0.
        -24    2    3    3    0    0 -0.86442724086E+02  0.17355521512E+03 -0.12509197762E+04  0.12684052498E+04  0.80360650036E+02 0.  0.
          6    2    1    2  501    0  0.61313600887E+02 -0.15780251768E+03 -0.15255628502E+03  0.28677773480E+03  0.17408922091E+03 0.  0.
         24    2    5    5    0    0  0.37413469178E+02 -0.75808187249E+02 -0.16298138205E+03  0.20060895178E+03  0.80835460718E+02 0.  0.
          5    1    5    5  501    0  0.23900131710E+02 -0.81994330430E+02  0.10425097028E+02  0.86168783016E+02  0.47000000000E+01 0. -1.
        -11    1    6    6    0    0  0.25444887259E+02 -0.70999284273E+02 -0.58803823921E+02  0.95635926108E+02  0.00000000000E+00 0.  1.
         12    1    6    6    0    0  0.11968581918E+02 -0.48089029763E+01 -0.10417755813E+03  0.10497302567E+03  0.00000000000E+00 0. -1.
         -5    1    3    3    0  503  0.25129123199E+02 -0.15752697442E+02 -0.27326138192E+03  0.27490633525E+03  0.47000000000E+01 0.  1.
         13    1    4    4    0    0 -0.24717154471E+02  0.11748801518E+03 -0.88485165853E+03  0.89295958981E+03  0.00000000000E+00 0. -1.
        -14    1    4    4    0    0 -0.61725569615E+02  0.56067199940E+02 -0.36606811764E+03  0.37544565999E+03  0.00000000000E+00 0.  1.
<mgrwt>
<rscale>  2 0.24268605E+03</rscale>
<asrwt>0</asrwt>
<pdfrwt beam="1">  1       21 0.11796298E-01 0.24283338E+03</pdfrwt>
<pdfrwt beam="2">  1       21 0.26975592E+00 0.24283338E+03</pdfrwt>
<totfact> 0.29297512E+03</totfact>
</mgrwt>
</event>
<event>
12    1  0.1074575E-001  0.2016637E+03  0.7546771E-02  0.1148471E+00
         21   -1    0    0  503  502  0.00000000000E+00  0.00000000000E+00  0.11855676330E+03  0.11855676330E+03  0.00000000000E+00 0. -1.
         21   -1    0    0  501  503 -0.00000000000E+00 -0.00000000000E+00 -0.34536272889E+03  0.34536272889E+03  0.00000000000E+00 0. -1.
          6    2    1    2  501    0 -0.29918341455E+02 -0.96627303863E+02 -0.13651087288E+03  0.24352306757E+03  0.17446009004E+03 0.  0.
         24    2    3    3    0    0 -0.23671692434E+02 -0.13120530874E+03 -0.78722286531E+02  0.17572727303E+03  0.83112538312E+02 0.  0.
         -6    2    1    2    0  502  0.29918341455E+02  0.96627303863E+02 -0.90295092709E+02  0.22039642463E+03  0.17375107831E+03 0.  0.
        -24    2    5    5    0    0  0.24845694034E+01  0.10386411882E+03 -0.12094582855E+03  0.17836618614E+03  0.79954203459E+02 0.  0.
          5    1    3    3  501    0 -0.62466490214E+01  0.34578004880E+02 -0.57788586345E+02  0.67795794539E+02  0.47000000000E+01 0. -1.
        -11    1    4    4    0    0  0.12417515755E+02 -0.41281071073E+02 -0.64810592482E+02  0.77837872687E+02  0.00000000000E+00 0.  1.
         12    1    4    4    0    0 -0.36089208189E+02 -0.89924237669E+02 -0.13911694049E+02  0.97889400343E+02  0.00000000000E+00 0. -1.
         -5    1    5    5    0  502  0.27433772052E+02 -0.72368149534E+01  0.30650735842E+02  0.42030238487E+02  0.47000000000E+01 0.  1.
         11    1    6    6    0    0 -0.38138291647E+02  0.45626264126E+02 -0.63839124807E+02  0.87245166766E+02  0.00000000000E+00 0. -1.
        -12    1    6    6    0    0  0.40622861051E+02  0.58237854690E+02 -0.57106703744E+02  0.91121019372E+02  0.00000000000E+00 0.  1.
<mgrwt>
<rscale>  2 0.20151031E+03</rscale>
<asrwt>0</asrwt>
<pdfrwt beam="1">  1       21 0.18239502E-01 0.20166374E+03</pdfrwt>
<pdfrwt beam="2">  1       21 0.53132727E-01 0.20166374E+03</pdfrwt>
<totfact> 0.91573465E+04</totfact>
</mgrwt>
</event>
<event>
12    1  0.1074575E-001  0.2448266E+03  0.7546771E-02  0.1116751E+00
         21   -1    0    0  503  502  0.00000000000E+00  0.00000000000E+00  0.21815793353E+03  0.21815793353E+03  0.00000000000E+00 0.  1.
         21   -1    0    0  501  503 -0.00000000000E+00 -0.00000000000E+00 -0.58436756343E+03  0.58436756343E+03  0.00000000000E+00 0. -1.
          6    2    1    2  501    0 -0.11526084500E+03  0.12854701966E+03  0.10954299739E+03  0.26747353175E+03  0.17243266295E+03 0.  0.
         24    2    3    3    0    0 -0.96646679454E+02  0.99870701669E+02  0.69968122494E+01  0.15927635775E+03  0.77493645259E+02 0.  0.
         -6    2    1    2    0  502  0.11526084500E+03 -0.12854701966E+03 -0.47575262730E+03  0.53505196521E+03  0.17358180907E+03 0.  0.
        -24    2    5    5    0    0  0.11440625444E+03 -0.10485703085E+03 -0.23293632205E+03  0.29103599444E+03  0.79742284626E+02 0.  0.
          5    1    3    3  501    0 -0.18614165545E+02  0.28676317993E+02  0.10254618515E+03  0.10819717399E+03  0.47000000000E+01 0. -1.
        -13    1    4    4    0    0 -0.23141259826E+01  0.11168346280E+02  0.26010588785E+02  0.28401370859E+02  0.00000000000E+00 0.  1.
         14    1    4    4    0    0 -0.94332553471E+02  0.88702355389E+02 -0.19013776536E+02  0.13087498689E+03  0.00000000000E+00 0. -1.
         -5    1    5    5    0  502  0.85459055812E+00 -0.23689988811E+02 -0.24281630525E+03  0.24401597076E+03  0.47000000000E+01 0.  1.
         13    1    6    6    0    0  0.33576390733E+01 -0.50407406676E+02 -0.75188736299E+02  0.90584360980E+02  0.00000000000E+00 0. -1.
        -14    1    6    6    0    0  0.11104861537E+03 -0.54449624176E+02 -0.15774758575E+03  0.20045163346E+03  0.00000000000E+00 0.  1.
<mgrwt>
<rscale>  2 0.24462295E+03</rscale>
<asrwt>0</asrwt>
<pdfrwt beam="1">  1       21 0.33562759E-01 0.24482656E+03</pdfrwt>
<pdfrwt beam="2">  1       21 0.89902702E-01 0.24482656E+03</pdfrwt>
<totfact> 0.87030645E+03</totfact>
</mgrwt>
</event>
<event>
12    1  0.1074575E-001  0.2558467E+03  0.7546771E-02  0.1109715E+00
         21   -1    0    0  501  502  0.00000000000E+00  0.00000000000E+00  0.33415983355E+02  0.33415983355E+02  0.00000000000E+00 0.  1.
         21   -1    0    0  502  503 -0.00000000000E+00 -0.00000000000E+00 -0.19597718682E+04  0.19597718682E+04  0.00000000000E+00 0.  1.
         -6    2    1    2    0  503  0.18378188557E+03 -0.38174602221E+02 -0.10054914026E+04  0.10375309558E+04  0.17385178088E+03 0.  0.
        -24    2    3    3    0    0  0.77703114377E+02  0.23170128154E+02 -0.68419095846E+03  0.69362406857E+03  0.80140202409E+02 0.  0.
          6    2    1    2  501    0 -0.18378188557E+03  0.38174602221E+02 -0.92086448228E+03  0.95565689584E+03  0.17336558518E+03 0.  0.
         24    2    5    5    0    0 -0.17662587445E+03  0.39083959085E+02 -0.92514964474E+03  0.94603982547E+03  0.79782396810E+02 0.  0.
          5    1    5    5  501    0 -0.71560111242E+01 -0.90935686335E+00  0.42851624603E+01  0.96170703660E+01  0.47000000000E+01 0. -1.
        -13    1    6    6    0    0 -0.14958820800E+02 -0.81593779216E+01 -0.23570511011E+03  0.23632020798E+03  0.00000000000E+00 0.  1.
         14    1    6    6    0    0 -0.16166705365E+03  0.47243337006E+02 -0.68944453463E+03  0.70971961749E+03  0.00000000000E+00 0. -1.
         -5    1    3    3    0  503  0.10607877119E+03 -0.61344730375E+02 -0.32130044414E+03  0.34390688718E+03  0.47000000000E+01 0.  1.
         11    1    4    4    0    0 -0.12634718184E+00 -0.21639397474E+02 -0.20068919127E+03  0.20185249807E+03  0.00000000000E+00 0. -1.
        -12    1    4    4    0    0  0.77829461559E+02  0.44809525627E+02 -0.48350176719E+03  0.49177157050E+03  0.00000000000E+00 0.  1.
<mgrwt>
<rscale>  2 0.25576411E+03</rscale>
<asrwt>0</asrwt>
<pdfrwt beam="1">  1       21 0.51409196E-02 0.25584668E+03</pdfrwt>
<pdfrwt beam="2">  1       21 0.30150342E+00 0.25584668E+03</pdfrwt>
<totfact> 0.80789060E+03</totfact>
</mgrwt>
</event>
<event>
12    1  0.1074575E-001  0.2524146E+03  0.7546771E-02  0.1111824E+00
         21   -1    0    0  503  502  0.00000000000E+00  0.00000000000E+00  0.52331785317E+02  0.52331785317E+02  0.00000000000E+00 0. -1.
         21   -1    0    0  501  503 -0.00000000000E+00 -0.00000000000E+00 -0.12763665490E+04  0.12763665490E+04  0.00000000000E+00 0.  1.
          6    2    1    2  501    0  0.17236361577E+03 -0.63860900470E+02 -0.75632270085E+03  0.79733126844E+03  0.17299044243E+03 0.  0.
         24    2    3    3    0    0  0.10234288557E+03 -0.44587795313E+02 -0.67167214085E+03  0.68569721204E+03  0.81086768949E+02 0.  0.
         -6    2    1    2    0  502 -0.17236361577E+03  0.63860900470E+02 -0.46771206287E+03  0.53136706591E+03  0.17265269858E+03 0.  0.
        -24    2    5    5    0    0 -0.14790703453E+03  0.30927094245E+01 -0.23341165891E+03  0.28803670055E+03  0.81228582617E+02 0.  0.
          5    1    3    3  501    0  0.70020730198E+02 -0.19273105157E+02 -0.84650560001E+02  0.11163405640E+03  0.47000000000E+01 0. -1.
        -11    1    4    4    0    0  0.55368478750E+02  0.19318590902E+02 -0.29129938290E+03  0.29714341129E+03  0.00000000000E+00 0.  1.
         12    1    4    4    0    0  0.46974406825E+02 -0.63906386215E+02 -0.38037275795E+03  0.38855380076E+03  0.00000000000E+00 0. -1.
         -5    1    5    5    0  502 -0.24456581245E+02  0.60768191046E+02 -0.23430040396E+03  0.24333036536E+03  0.47000000000E+01 0.  1.
         11    1    6    6    0    0 -0.14495354830E+03  0.22996110866E+02 -0.18911541292E+03  0.23938461038E+03  0.00000000000E+00 0. -1.
        -12    1    6    6    0    0 -0.29534862297E+01 -0.19903401442E+02 -0.44296245986E+02  0.48652090174E+02  0.00000000000E+00 0.  1.
<mgrwt>
<rscale>  2 0.25235673E+03</rscale>
<asrwt>0</asrwt>
<pdfrwt beam="1">  1       21 0.80510445E-02 0.25241459E+03</pdfrwt>
<pdfrwt beam="2">  1       21 0.19636407E+00 0.25241459E+03</pdfrwt>
<totfact> 0.16132496E+04</totfact>
</mgrwt>
</event>
<event>
12    1  0.1074575E-001  0.2480585E+03  0.7546771E-02  0.1114635E+00
         21   -1    0    0  501  502  0.00000000000E+00  0.00000000000E+00  0.72697722557E+03  0.72697722557E+03  0.00000000000E+00 0. -1.
         21   -1    0    0  502  503 -0.00000000000E+00 -0.00000000000E+00 -0.89882103095E+02  0.89882103095E+02  0.00000000000E+00 0. -1.
         -6    2    1    2    0  503  0.13416288952E+03 -0.11256065714E+03  0.21764553976E+03  0.32954938584E+03  0.17482458142E+03 0.  0.
        -24    2    3    3    0    0  0.11834505505E+03 -0.68926650900E+02  0.23183133825E+03  0.28079020961E+03  0.79630001632E+02 0.  0.
          6    2    1    2  501    0 -0.13416288952E+03  0.11256065714E+03  0.41944958271E+03  0.48730994282E+03  0.17567995183E+03 0.  0.
         24    2    5    5    0    0 -0.38417231447E+02  0.91819940408E+02  0.13234912646E+03  0.18391882504E+03  0.80019108971E+02 0.  0.
          5    1    5    5  501    0 -0.95745658074E+02  0.20740716735E+02  0.28710045624E+03  0.30339111778E+03  0.47000000000E+01 0. -1.
        -13    1    6    6    0    0  0.41427519275E+01  0.69471583272E+02  0.11168650197E+03  0.13159535705E+03  0.00000000000E+00 0.  1.
         14    1    6    6    0    0 -0.42559983374E+02  0.22348357136E+02  0.20662624497E+02  0.52323467991E+02  0.00000000000E+00 0. -1.
         -5    1    3    3    0  503  0.15817834474E+02 -0.43634006243E+02 -0.14185798486E+02  0.48759176233E+02  0.47000000000E+01 0.  1.
         11    1    4    4    0    0  0.10456060368E+03 -0.80050670885E+02  0.16211860027E+03  0.20886232380E+03  0.00000000000E+00 0. -1.
        -12    1    4    4    0    0  0.13784451370E+02  0.11124019986E+02  0.69712737978E+02  0.71927885807E+02  0.00000000000E+00 0.  1.
<mgrwt>
<rscale>  2 0.24790712E+03</rscale>
<asrwt>0</asrwt>
<pdfrwt beam="1">  1       21 0.11184265E+00 0.24805852E+03</pdfrwt>
<pdfrwt beam="2">  1       21 0.13828016E-01 0.24805852E+03</pdfrwt>
<totfact> 0.27683101E+04</totfact>
</mgrwt>
</event>
<event>
12    1  0.1074575E-001  0.2026451E+03  0.7546771E-02  0.1147863E+00
         21   -1    0    0  503  502  0.00000000000E+00  0.00000000000E+00  0.12328247300E+04  0.12328247300E+04  0.00000000000E+00 0.  1.
         21   -1    0    0  501  503 -0.00000000000E+00 -0.00000000000E+00 -0.55966834007E+02  0.55966834007E+02  0.00000000000E+00 0.  1.
          6    2    1    2  501    0  0.75650233562E+02  0.73975406600E+02  0.17464613182E+03  0.26629782056E+03  0.17093255763E+03 0.  0.
         24    2    3    3    0    0  0.37257880676E+02  0.11350412742E+03  0.10848207004E+03  0.18006403599E+03  0.79895938097E+02 0.  0.
         -6    2    1    2    0  502 -0.75650233562E+02 -0.73975406600E+02  0.10022117642E+04  0.10224937435E+04  0.17282857553E+03 0.  0.
        -24    2    5    5    0    0 -0.49902884718E+02  0.31946061103E+02  0.48330724868E+03  0.49224260531E+03  0.72152873368E+02 0.  0.
          5    1    3    3  501    0  0.38392352885E+02 -0.39528720820E+02  0.66164061783E+02  0.86233784571E+02  0.47000000000E+01 0. -1.
        -11    1    4    4    0    0  0.44672862163E+01  0.73513614344E+02  0.10496971833E+03  0.12822967639E+03  0.00000000000E+00 0.  1.
         12    1    4    4    0    0  0.32790594460E+02  0.39990513076E+02  0.35123517075E+01  0.51834359605E+02  0.00000000000E+00 0. -1.
         -5    1    5    5    0  502 -0.25747348843E+02 -0.10592146770E+03  0.51890451552E+03  0.53025113816E+03  0.47000000000E+01 0.  1.
         13    1    6    6    0    0 -0.33006114014E+01  0.38077283909E+02  0.12083515107E+03  0.12673558032E+03  0.00000000000E+00 0. -1.
        -14    1    6    6    0    0 -0.46602273317E+02 -0.61312228059E+01  0.36247209761E+03  0.36550702499E+03  0.00000000000E+00 0.  1.
<mgrwt>
<rscale>  2 0.20224023E+03</rscale>
<asrwt>0</asrwt>
<pdfrwt beam="1">  1       21 0.18966532E+00 0.20264510E+03</pdfrwt>
<pdfrwt beam="2">  1       21 0.86102831E-02 0.20264510E+03</pdfrwt>
<totfact> 0.16422267E+04</totfact>
</mgrwt>
</event>
<event>
12    1  0.1074575E-001  0.1987878E+03  0.7546771E-02  0.1150885E+00
         21   -1    0    0  501  502  0.00000000000E+00  0.00000000000E+00  0.19745792669E+02  0.19745792669E+02  0.00000000000E+00 0.  1.
         21   -1    0    0  502  503 -0.00000000000E+00 -0.00000000000E+00 -0.34397140745E+04  0.34397140745E+04  0.00000000000E+00 0. -1.
         -6    2    1    2    0  503  0.66578247417E+02 -0.72502981837E+02 -0.28321314618E+04  0.28390993672E+04  0.17270568866E+03 0.  0.
        -24    2    3    3    0    0  0.33107592858E+02 -0.38978920819E+02 -0.26185353277E+04  0.26202625653E+04  0.80207105854E+02 0.  0.
          6    2    1    2  501    0 -0.66578247417E+02  0.72502981837E+02 -0.58783682011E+03  0.62036049998E+03  0.17206300432E+03 0.  0.
         24    2    5    5    0    0 -0.72542223733E+02  0.21125720185E+02 -0.18541922794E+03  0.21460540080E+03  0.77243237135E+02 0.  0.
          5    1    5    5  501    0  0.59639763154E+01  0.51377261652E+02 -0.40241759217E+03  0.40575509918E+03  0.47000000000E+01 0. -1.
        -11    1    6    6    0    0 -0.78586737116E+02  0.27726367289E+02 -0.18770127795E+03  0.20536892764E+03  0.00000000000E+00 0.  1.
         12    1    6    6    0    0  0.60445133836E+01 -0.66006471036E+01  0.22820500084E+01  0.92364731619E+01  0.00000000000E+00 0. -1.
         -5    1    3    3    0  503  0.33470654559E+02 -0.33524061018E+02 -0.21359613407E+03  0.21883680192E+03  0.47000000000E+01 0.  1.
         13    1    4    4    0    0  0.29713707070E+02 -0.59923622636E+02 -0.23247637556E+04  0.23257257500E+04  0.00000000000E+00 0. -1.
        -14    1    4    4    0    0  0.33938857877E+01  0.20944701817E+02 -0.29377157213E+03  0.29453681534E+03  0.00000000000E+00 0.  1.
<mgrwt>
<rscale>  2 0.19864815E+03</rscale>
<asrwt>0</asrwt>
<pdfrwt beam="1">  1       21 0.30378134E-02 0.19878783E+03</pdfrwt>
<pdfrwt beam="2">  1       21 0.52918694E+00 0.19878783E+03</pdfrwt>
<totfact> 0.71764931E+02</totfact>
</mgrwt>
</event>
<event>
12    1  0.1074575E-001  0.1809986E+03  0.7546771E-02  0.1168905E+00
         21   -1    0    0  501  502  0.00000000000E+00  0.00000000000E+00  0.23237951504E+03  0.23237951504E+03  0.00000000000E+00 0.  1.
         21   -1    0    0  502  503 -0.00000000000E+00 -0.00000000000E+00 -0.13515589842E+03  0.13515589842E+03  0.00000000000E+00 0. -1.
         -6    2    1    2    0  503 -0.15510193134E+02 -0.48581527423E+02  0.62291098328E+02  0.19141754222E+03  0.17366566627E+03 0.  0.
        -24    2    3    3    0    0 -0.23065606461E+02 -0.62934182838E+02 -0.30261178194E+02  0.97337273949E+02  0.63765762155E+02 0.  0.
          6    2    1    2  501    0  0.15510193134E+02  0.48581527423E+02  0.34932518289E+02  0.17611787124E+03  0.16491359203E+03 0.  0.
         24    2    5    5    0    0 -0.14171049776E+01  0.41020634432E+02  0.86325086926E+02  0.12128187362E+03  0.74649659071E+02 0.  0.
          5    1    5    5  501    0  0.16927298112E+02  0.75608929917E+01 -0.51392568637E+02  0.54835997623E+02  0.47000000000E+01 0. -1.
        -11    1    6    6    0    0  0.23218979612E+02  0.39724619250E+02  0.84904435350E+02  0.96570852387E+02  0.00000000000E+00 0.  1.
         12    1    6    6    0    0 -0.24636084589E+02  0.12960151816E+01  0.14206515759E+01  0.24711021228E+02  0.00000000000E+00 0. -1.
         -5    1    3    3    0  503  0.75554133273E+01  0.14352655415E+02  0.92552276522E+02  0.94080268268E+02  0.47000000000E+01 0.  1.
         11    1    4    4    0    0 -0.33844664787E+02 -0.98017399887E+01  0.27322528340E-01  0.35235439374E+02  0.00000000000E+00 0. -1.
        -12    1    4    4    0    0  0.10779058326E+02 -0.53132442849E+02 -0.30288500722E+02  0.62101834574E+02  0.00000000000E+00 0.  1.
<mgrwt>
<rscale>  2 0.17886625E+03</rscale>
<asrwt>0</asrwt>
<pdfrwt beam="1">  1       21 0.35750695E-01 0.18099860E+03</pdfrwt>
<pdfrwt beam="2">  1       21 0.20793215E-01 0.18099860E+03</pdfrwt>
<totfact> 0.16250920E+05</totfact>
</mgrwt>
</event>
<event>
12    1  0.1074575E-001  0.2074023E+03  0.7546771E-02  0.1144717E+00
         21   -1    0    0  503  502  0.00000000000E+00  0.00000000000E+00  0.15356829712E+03  0.15356829712E+03  0.00000000000E+00 0. -1.
         21   -1    0    0  501  503 -0.00000000000E+00 -0.00000000000E+00 -0.29608326276E+03  0.29608326276E+03  0.00000000000E+00 0. -1.
          6    2    1    2  501    0  0.10524787101E+03  0.65458014507E+02 -0.93669734113E+01  0.20761371182E+03  0.16629445910E+03 0.  0.
         24    2    3    3    0    0  0.12607973777E+03  0.60007059104E+02  0.27931612273E+02  0.16428988371E+03  0.81939267196E+02 0.  0.
         -6    2    1    2    0  502 -0.10524787101E+03 -0.65458014507E+02 -0.13314799223E+03  0.24203784806E+03  0.15966235011E+03 0.  0.
        -24    2    5    5    0    0 -0.51064235340E+02 -0.96402685039E+02 -0.66153619371E+02  0.15036574214E+03  0.79577140185E+02 0.  0.
          5    1    3    3  501    0 -0.20831866758E+02  0.54509554031E+01 -0.37298585684E+02  0.43323828102E+02  0.47000000000E+01 0. -1.
        -11    1    4    4    0    0 -0.11173807913E+02  0.36482408223E-01  0.66483110172E+01  0.13002128811E+02  0.00000000000E+00 0.  1.
         12    1    4    4    0    0  0.13725354568E+03  0.59970576696E+02  0.21283301256E+02  0.15128775490E+03  0.00000000000E+00 0. -1.
         -5    1    5    5    0  502 -0.54183635671E+02  0.30944670532E+02 -0.66994372861E+02  0.91672105920E+02  0.47000000000E+01 0.  1.
         11    1    6    6    0    0 -0.34488341483E+02  0.38025821672E+00 -0.54328280300E+01  0.34915697258E+02  0.00000000000E+00 0. -1.
        -12    1    6    6    0    0 -0.16575893857E+02 -0.96782943256E+02 -0.60720791341E+02  0.11545004488E+03  0.00000000000E+00 0.  1.
<mgrwt>
<rscale>  2 0.20606983E+03</rscale>
<asrwt>0</asrwt>
<pdfrwt beam="1">  1       21 0.23625892E-01 0.20740230E+03</pdfrwt>
<pdfrwt beam="2">  1       21 0.45551271E-01 0.20740230E+03</pdfrwt>
<totfact> 0.77458548E+04</totfact>
</mgrwt>
</event>
<event>
12    1  0.1074575E-001  0.2928623E+03  0.7546771E-02  0.1089014E+00
         21   -1    0    0  503  502  0.00000000000E+00  0.00000000000E+00  0.13444243986E+04  0.13444243986E+04  0.00000000000E+00 0. -1.
         21   -1    0    0  501  503 -0.00000000000E+00 -0.00000000000E+00 -0.17640242626E+03  0.17640242626E+03  0.00000000000E+00 0.  1.
          6    2    1    2  501    0 -0.26505885717E+02 -0.23340299038E+03 -0.24630941215E+02  0.29274323129E+03  0.17295201157E+03 0.  0.
         24    2    3    3    0    0 -0.26123918389E+02 -0.23782292901E+03 -0.57356282746E+02  0.25938577733E+03  0.82152502301E+02 0.  0.
         -6    2    1    2    0  502  0.26505885717E+02  0.23340299038E+03  0.11926529136E+04  0.12280835936E+04  0.17489660575E+03 0.  0.
        -24    2    5    5    0    0  0.71585186880E+02  0.13192677218E+03  0.87293729044E+03  0.88960207870E+03  0.82723836815E+02 0.  0.
          5    1    3    3  501    0 -0.38196732745E+00  0.44199386298E+01  0.32725341530E+02  0.33357453962E+02  0.47000000000E+01 0. -1.
        -11    1    4    4    0    0  0.24056015276E+02 -0.13583894959E+03 -0.44744400920E+02  0.14502749226E+03  0.00000000000E+00 0.  1.
         12    1    4    4    0    0 -0.50179933665E+02 -0.10198397943E+03 -0.12611881825E+02  0.11435828507E+03  0.00000000000E+00 0. -1.
         -5    1    5    5    0  502 -0.45079301163E+02  0.10147621820E+03  0.31971562315E+03  0.33848151491E+03  0.47000000000E+01 0.  1.
         11    1    6    6    0    0 -0.11804911706E+02  0.56749489420E+02  0.34776304531E+03  0.35256062766E+03  0.00000000000E+00 0. -1.
        -12    1    6    6    0    0  0.83390098585E+02  0.75177282761E+02  0.52517424513E+03  0.53704145104E+03  0.00000000000E+00 0.  1.
<mgrwt>
<rscale>  2 0.29257261E+03</rscale>
<asrwt>0</asrwt>
<pdfrwt beam="1">  1       21 0.20683452E+00 0.29286232E+03</pdfrwt>
<pdfrwt beam="2">  1       21 0.27138836E-01 0.29286232E+03</pdfrwt>
<totfact> 0.14381550E+03</totfact>
</mgrwt>
</event>
<event>
12    1  0.1074575E-001  0.2055210E+03  0.7546771E-02  0.1145232E+00
         21   -1    0    0  501  502  0.00000000000E+00  0.00000000000E+00  0.16276307916E+03  0.16276307916E+03  0.00000000000E+00 0.  1.
         21   -1    0    0  502  503 -0.00000000000E+00 -0.00000000000E+00 -0.21734819867E+04  0.21734819867E+04  0.00000000000E+00 0.  1.
         -6    2    1    2    0  503  0.23039303350E+02  0.10748950193E+03 -0.21015534257E+04  0.21115457499E+04  0.17324505846E+03 0.  0.
        -24    2    3    3    0    0  0.38730969564E+02  0.34658221111E+02 -0.17158608873E+04  0.17186953356E+04  0.83867703224E+02 0.  0.
          6    2    1    2  501    0 -0.23039303350E+02 -0.10748950193E+03  0.90834518195E+02  0.22469931594E+03  0.17364927401E+03 0.  0.
         24    2    5    5    0    0 -0.31074180071E+02 -0.10301768785E+03  0.12801756302E+03  0.18610883541E+03  0.81668558814E+02 0.  0.
          5    1    5    5  501    0  0.80348767203E+01 -0.44718140765E+01 -0.37183044824E+02  0.38590480529E+02  0.47000000000E+01 0. -1.
        -13    1    6    6    0    0 -0.28025926338E+02 -0.91954380641E+02  0.52123853141E+02  0.10935244274E+03  0.00000000000E+00 0.  1.
         14    1    6    6    0    0 -0.30482537327E+01 -0.11063307213E+02  0.75893709878E+02  0.76756392674E+02  0.00000000000E+00 0. -1.
         -5    1    3    3    0  503 -0.15691666214E+02  0.72831280819E+02 -0.38569253837E+03  0.39285041429E+03  0.47000000000E+01 0.  1.
         13    1    4    4    0    0 -0.87795269663E+01 -0.22556020135E+02 -0.45431620376E+03  0.45496051162E+03  0.00000000000E+00 0. -1.
        -14    1    4    4    0    0  0.47510496530E+02  0.57214241246E+02 -0.12615446836E+04  0.12637348240E+04  0.00000000000E+00 0.  1.
<mgrwt>
<rscale>  2 0.20543557E+03</rscale>
<asrwt>0</asrwt>
<pdfrwt beam="1">  1       21 0.25040473E-01 0.20552098E+03</pdfrwt>
<pdfrwt beam="2">  1       21 0.33438185E+00 0.20552098E+03</pdfrwt>
<totfact> 0.31974871E+02</totfact>
</mgrwt>
</event>
<event>
12    1  0.1074575E-001  0.2226956E+03  0.7546771E-02  0.1132209E+00
         21   -1    0    0  501  502  0.00000000000E+00  0.00000000000E+00  0.39094221340E+03  0.39094221340E+03  0.00000000000E+00 0. -1.
         21   -1    0    0  502  503 -0.00000000000E+00 -0.00000000000E+00 -0.27999820341E+03  0.27999820341E+03  0.00000000000E+00 0.  1.
         -6    2    1    2    0  503  0.21349406369E+02  0.13737425181E+03 -0.19332657854E+03  0.29490422793E+03  0.17397084660E+03 0.  0.
        -24    2    3    3    0    0  0.62074536586E+02  0.67201532199E+02 -0.55385689906E+02  0.13480261780E+03  0.82066296956E+02 0.  0.
          6    2    1    2  501    0 -0.21349406369E+02 -0.13737425181E+03  0.30427058853E+03  0.37603618889E+03  0.17174149789E+03 0.  0.
         24    2    5    5    0    0  0.43094387813E+02 -0.11177520490E+03  0.24300180060E+03  0.28338486302E+03  0.83104048046E+02 0.  0.
          5    1    5    5  501    0 -0.64443794182E+02 -0.25599046908E+02  0.61268787929E+02  0.92651325869E+02  0.47000000000E+01 0. -1.
        -11    1    6    6    0    0 -0.13443130942E+02 -0.23553180495E+02  0.11856647633E+02  0.29598144774E+02  0.00000000000E+00 0.  1.
         12    1    6    6    0    0  0.56537518755E+02 -0.88222024406E+02  0.23114515297E+03  0.25378671825E+03  0.00000000000E+00 0. -1.
         -5    1    3    3    0  503 -0.40725130217E+02  0.70172719610E+02 -0.13794088864E+03  0.16010161013E+03  0.47000000000E+01 0.  1.
         13    1    4    4    0    0  0.28100417733E+02  0.63702615726E+02  0.12654863847E+00  0.69625230640E+02  0.00000000000E+00 0. -1.
        -14    1    4    4    0    0  0.33974118853E+02  0.34989164733E+01 -0.55512238544E+02  0.65177387156E+02  0.00000000000E+00 0.  1.
<mgrwt>
<rscale>  2 0.22226004E+03</rscale>
<asrwt>0</asrwt>
<pdfrwt beam="1">  1       21 0.60144956E-01 0.22269562E+03</pdfrwt>
<pdfrwt beam="2">  1       21 0.43076646E-01 0.22269562E+03</pdfrwt>
<totfact> 0.13107535E+04</totfact>
</mgrwt>
</event>
<event>
12    1  0.1074575E-001  0.2127768E+03  0.7546771E-02  0.1139556E+00
         21   -1    0    0  501  502  0.00000000000E+00  0.00000000000E+00  0.41853762476E+03  0.41853762476E+03  0.00000000000E+00 0. -1.
         21   -1    0    0  502  503 -0.00000000000E+00 -0.00000000000E+00 -0.12094600063E+03  0.12094600063E+03  0.00000000000E+00 0. -1.
         -6    2    1    2    0  503 -0.11130637660E+03 -0.51360669114E+02  0.23769607614E+03  0.31843735496E+03  0.17284645387E+03 0.  0.
        -24    2    3    3    0    0 -0.27447569892E+02  0.92019297002E+01  0.18106887715E+03  0.20041677411E+03  0.80888197346E+02 0.  0.
          6    2    1    2  501    0  0.11130637660E+03  0.51360669114E+02  0.59895547985E+02  0.22104627044E+03  0.17391650067E+03 0.  0.
         24    2    5    5    0    0  0.33608887641E+02  0.14249470952E+02  0.93097193595E+02  0.12864183283E+03  0.80926070875E+02 0.  0.
          5    1    5    5  501    0  0.77697488958E+02  0.37111198162E+02 -0.33201645610E+02  0.92404437613E+02  0.47000000000E+01 0. -1.
        -11    1    6    6    0    0 -0.15183208280E+02 -0.21698820436E+02  0.17466295813E+02  0.31724440285E+02  0.00000000000E+00 0.  1.
         12    1    6    6    0    0  0.48792095922E+02  0.35948291387E+02  0.75630897782E+02  0.96917392544E+02  0.00000000000E+00 0. -1.
         -5    1    3    3    0  503 -0.83858806707E+02 -0.60562598814E+02  0.56627198996E+02  0.11802058085E+03  0.47000000000E+01 0.  1.
         13    1    4    4    0    0 -0.47165852480E+02 -0.18240365378E+02  0.89308790212E+02  0.10263229793E+03  0.00000000000E+00 0. -1.
        -14    1    4    4    0    0  0.19718282587E+02  0.27442295078E+02  0.91760086935E+02  0.97784476180E+02  0.00000000000E+00 0.  1.
<mgrwt>
<rscale>  2 0.21255806E+03</rscale>
<asrwt>0</asrwt>
<pdfrwt beam="1">  1       21 0.64390403E-01 0.21277682E+03</pdfrwt>
<pdfrwt beam="2">  1       21 0.18607077E-01 0.21277682E+03</pdfrwt>
<totfact> 0.58186766E+04</totfact>
</mgrwt>
</event>
<event>
12    1  0.1074575E-001  0.2805749E+03  0.7546771E-02  0.1096555E+00
         21   -1    0    0  501  502  0.00000000000E+00  0.00000000000E+00  0.93948780207E+02  0.93948780207E+02  0.00000000000E+00 0.  1.
         21   -1    0    0  502  503 -0.00000000000E+00 -0.00000000000E+00 -0.84960068123E+03  0.84960068123E+03  0.00000000000E+00 0. -1.
         -6    2    1    2    0  503 -0.20636022204E+03  0.55136293789E+02 -0.27391584956E+03  0.38606233020E+03  0.16849236786E+03 0.  0.
        -24    2    3    3    0    0 -0.80761797612E+02  0.85688647418E+02 -0.13199324267E+03  0.19404012608E+03  0.79776827257E+02 0.  0.
          6    2    1    2  501    0  0.20636022204E+03 -0.55136293789E+02 -0.48173605146E+03  0.55748713123E+03  0.18192780457E+03 0.  0.
         24    2    5    5    0    0  0.77648115574E+02  0.12097649622E+02 -0.10305884164E+03  0.15189407318E+03  0.79215539189E+02 0.  0.
          5    1    5    5  501    0  0.12871210647E+03 -0.67233943411E+02 -0.37867720983E+03  0.40559305805E+03  0.47000000000E+01 0. -1.
        -13    1    6    6    0    0 -0.88272206011E+01  0.20305221909E+02 -0.91096790387E+01  0.23941765024E+02  0.00000000000E+00 0.  1.
         14    1    6    6    0    0  0.86475336175E+02 -0.82075722865E+01 -0.93949162598E+02  0.12795230815E+03  0.00000000000E+00 0. -1.
         -5    1    3    3    0  503 -0.12559842443E+03 -0.30552353629E+02 -0.14192260689E+03  0.19202220413E+03  0.47000000000E+01 0.  1.
         13    1    4    4    0    0 -0.16084527426E+01  0.25812630466E+02 -0.75571452012E+02  0.79874422508E+02  0.00000000000E+00 0. -1.
        -14    1    4    4    0    0 -0.79153344869E+02  0.59876016952E+02 -0.56421790657E+02  0.11416570357E+03  0.00000000000E+00 0.  1.
<mgrwt>
<rscale>  2 0.27842038E+03</rscale>
<asrwt>0</asrwt>
<pdfrwt beam="1">  1       21 0.14453658E-01 0.28057491E+03</pdfrwt>
<pdfrwt beam="2">  1       21 0.13070780E+00 0.28057491E+03</pdfrwt>
<totfact> 0.17018431E+04</totfact>
</mgrwt>
</event>
<event>
12    1  0.1074575E-001  0.2880396E+03  0.7546771E-02  0.1091556E+00
         21   -1    0    0  503  502  0.00000000000E+00  0.00000000000E+00  0.14985596207E+03  0.14985596207E+03  0.00000000000E+00 0. -1.
         21   -1    0    0  501  503 -0.00000000000E+00 -0.00000000000E+00 -0.63024683656E+03  0.63024683656E+03  0.00000000000E+00 0.  1.
          6    2    1    2  501    0  0.22510326933E+03  0.51429438440E+02 -0.10142240895E+03  0.30409446241E+03  0.16991311907E+03 0.  0.
         24    2    3    3    0    0  0.42415725518E+02 -0.12824273712E+02 -0.45597091534E+02  0.10249626239E+03  0.80391748831E+02 0.  0.
         -6    2    1    2    0  502 -0.22510326933E+03 -0.51429438440E+02 -0.37896846554E+03  0.47600833622E+03  0.17219282586E+03 0.  0.
        -24    2    5    5    0    0 -0.39241628529E+02 -0.52640149160E+02 -0.11380458357E+03  0.15215653425E+03  0.76741364067E+02 0.  0.
          5    1    3    3  501    0  0.18268754381E+03  0.64253712151E+02 -0.55825317415E+02  0.20159820002E+03  0.47000000000E+01 0. -1.
        -13    1    4    4    0    0  0.31882923423E+02  0.28526141565E+02 -0.41543691073E+02  0.59633378460E+02  0.00000000000E+00 0.  1.
         14    1    4    4    0    0  0.10532802095E+02 -0.41350415277E+02 -0.40534004615E+01  0.42862883930E+02  0.00000000000E+00 0. -1.
         -5    1    5    5    0  502 -0.18586164080E+03  0.12107107206E+01 -0.26516388197E+03  0.32385180197E+03  0.47000000000E+01 0.  1.
         11    1    6    6    0    0 -0.47344617107E+02 -0.49716901667E+02 -0.43386963570E+02  0.81213987023E+02  0.00000000000E+00 0. -1.
        -12    1    6    6    0    0  0.81029885779E+01 -0.29232474930E+01 -0.70417620005E+02  0.70942547226E+02  0.00000000000E+00 0.  1.
<mgrwt>
<rscale>  2 0.28769979E+03</rscale>
<asrwt>0</asrwt>
<pdfrwt beam="1">  1       21 0.23054763E-01 0.28803965E+03</pdfrwt>
<pdfrwt beam="2">  1       21 0.96961054E-01 0.28803965E+03</pdfrwt>
<totfact> 0.14804500E+04</totfact>
</mgrwt>
</event>
<event>
12    1  0.1074575E-001  0.1852162E+03  0.7546771E-02  0.1163013E+00
         21   -1    0    0  501  502  0.00000000000E+00  0.00000000000E+00  0.17065641408E+03  0.17065641408E+03  0.00000000000E+00 0. -1.
         21   -1    0    0  502  503 -0.00000000000E+00 -0.00000000000E+00 -0.44312632523E+03  0.44312632523E+03  0.00000000000E+00 0. -1.
         -6    2    1    2    0  503 -0.48048117568E+02 -0.44114713617E+02 -0.36331861659E+03  0.40748551244E+03  0.17259575930E+03 0.  0.
        -24    2    3    3    0    0 -0.10077022137E+02 -0.84991944961E+02 -0.30635540287E+03  0.32761280216E+03  0.78430467208E+02 0.  0.
          6    2    1    2  501    0  0.48048117568E+02  0.44114713617E+02  0.90848705442E+02  0.20629722687E+03  0.17335030711E+03 0.  0.
         24    2    5    5    0    0  0.41736427882E+02  0.46706198512E+02  0.12980004892E+03  0.16647448990E+03  0.83320493863E+02 0.  0.
          5    1    5    5  501    0  0.63116896853E+01 -0.25914848944E+01 -0.38951343477E+02  0.39822736964E+02  0.47000000000E+01 0. -1.
        -13    1    6    6    0    0  0.29861975907E+02  0.84341163438E+01  0.42219592869E+00  0.31033049689E+02  0.00000000000E+00 0.  1.
         14    1    6    6    0    0  0.11874451975E+02  0.38272082168E+02  0.12937785299E+03  0.13544144022E+03  0.00000000000E+00 0. -1.
         -5    1    3    3    0  503 -0.37971095430E+02  0.40877231344E+02 -0.56963213718E+02  0.79872710281E+02  0.47000000000E+01 0.  1.
         11    1    4    4    0    0 -0.27185058537E+02 -0.57895634281E+02 -0.99461700777E+02  0.11825211118E+03  0.00000000000E+00 0. -1.
        -12    1    4    4    0    0  0.17108036400E+02 -0.27096310680E+02 -0.20689370209E+03  0.20936069098E+03  0.00000000000E+00 0.  1.
<mgrwt>
<rscale>  2 0.18503949E+03</rscale>
<asrwt>0</asrwt>
<pdfrwt beam="1">  1       21 0.26254833E-01 0.18521625E+03</pdfrwt>
<pdfrwt beam="2">  1       21 0.68173280E-01 0.18521625E+03</pdfrwt>
<totfact> 0.27196747E+04</totfact>
</mgrwt>
</event>
<event>
12    1  0.1074575E-001  0.1770415E+03  0.7546771E-02  0.1170932E+00
         21   -1    0    0  501  502  0.00000000000E+00  0.00000000000E+00  0.19819477250E+02  0.19819477250E+02  0.00000000000E+00 0. -1.
         21   -1    0    0  502  503 -0.00000000000E+00 -0.00000000000E+00 -0.15788983993E+04  0.15788983993E+04  0.00000000000E+00 0. -1.
         -6    2    1    2    0  503 -0.77578447373E+01  0.34878238292E+02 -0.83044191996E+03  0.84910392786E+03  0.17339844932E+03 0.  0.
        -24    2    3    3    0    0  0.58083603316E+02 -0.58290665935E+01 -0.42082169445E+03  0.43220705801E+03  0.79399996710E+02 0.  0.
          6    2    1    2  501    0  0.77578447373E+01 -0.34878238292E+02 -0.72863700205E+03  0.74961394865E+03  0.17243119087E+03 0.  0.
         24    2    5    5    0    0  0.44381910574E+02 -0.55596151916E+02 -0.29724063078E+03  0.31614483407E+03  0.80838588745E+02 0.  0.
          5    1    5    5  501    0 -0.36624065837E+02  0.20717913624E+02 -0.43139637127E+03  0.43346911458E+03  0.47000000000E+01 0. -1.
        -13    1    6    6    0    0  0.27254430031E+02 -0.24503900790E+02 -0.26702570317E+03  0.26952916589E+03  0.00000000000E+00 0.  1.
         14    1    6    6    0    0  0.17127480543E+02 -0.31092251126E+02 -0.30214927606E+02  0.46615668182E+02  0.00000000000E+00 0. -1.
         -5    1    3    3    0  503 -0.65841448054E+02  0.40707304886E+02 -0.40962022550E+03  0.41689686986E+03  0.47000000000E+01 0.  1.
         13    1    4    4    0    0  0.12591553939E+02 -0.38746212033E+02 -0.21703245181E+03  0.22082323545E+03  0.00000000000E+00 0. -1.
        -14    1    4    4    0    0  0.45492049377E+02  0.32917145440E+02 -0.20378924264E+03  0.21138382256E+03  0.00000000000E+00 0.  1.
<mgrwt>
<rscale>  2 0.17680423E+03</rscale>
<asrwt>0</asrwt>
<pdfrwt beam="1">  1       21 0.30491506E-02 0.17704151E+03</pdfrwt>
<pdfrwt beam="2">  1       21 0.24290742E+00 0.17704151E+03</pdfrwt>
<totfact> 0.45653705E+04</totfact>
</mgrwt>
</event>
<event>
12    1  0.1074575E-001  0.2376403E+03  0.7546771E-02  0.1121552E+00
         21   -1    0    0  503  502  0.00000000000E+00  0.00000000000E+00  0.19980369331E+03  0.19980369331E+03  0.00000000000E+00 0.  1.
         21   -1    0    0  501  503 -0.00000000000E+00 -0.00000000000E+00 -0.51283178101E+03  0.51283178101E+03  0.00000000000E+00 0.  1.
          6    2    1    2  501    0  0.10826143332E+03 -0.11922025834E+03 -0.39606922654E+03  0.46189148192E+03  0.17475382946E+03 0.  0.
         24    2    3    3    0    0  0.78569054911E+02 -0.15449480219E+03 -0.33381556647E+03  0.38428002032E+03  0.78718240004E+02 0.  0.
         -6    2    1    2    0  502 -0.10826143332E+03  0.11922025834E+03  0.83041138840E+02  0.25074399239E+03  0.17332833305E+03 0.  0.
        -24    2    5    5    0    0 -0.12014796574E+03  0.34534525331E+02  0.67601227392E+02  0.16371845652E+03  0.81275088114E+02 0.  0.
          5    1    3    3  501    0  0.29692378410E+02  0.35274543843E+02 -0.62253660076E+02  0.77611461601E+02  0.47000000000E+01 0. -1.
        -13    1    4    4    0    0  0.84027385454E+02 -0.11127554390E+03 -0.29343827251E+03  0.32488285266E+03  0.00000000000E+00 0.  1.
         14    1    4    4    0    0 -0.54583305438E+01 -0.43219258285E+02 -0.40377293954E+02  0.59397167660E+02  0.00000000000E+00 0. -1.
         -5    1    5    5    0  502  0.11886532422E+02  0.84685733012E+02  0.15439911447E+02  0.87025535874E+02  0.47000000000E+01 0.  1.
         13    1    6    6    0    0 -0.70675524298E+02 -0.97728766732E+01  0.66141659132E+02  0.97289557127E+02  0.00000000000E+00 0. -1.
        -14    1    6    6    0    0 -0.49472441444E+02  0.44307402004E+02  0.14595682603E+01  0.66428899391E+02  0.00000000000E+00 0.  1.
<mgrwt>
<rscale>  2 0.23737829E+03</rscale>
<asrwt>0</asrwt>
<pdfrwt beam="1">  1       21 0.30739029E-01 0.23764029E+03</pdfrwt>
<pdfrwt beam="2">  1       21 0.78897198E-01 0.23764029E+03</pdfrwt>
<totfact> 0.14032337E+04</totfact>
</mgrwt>
</event>
<event>
12    1  0.1074575E-001  0.2390652E+03  0.7546771E-02  0.1120523E+00
         21   -1    0    0  501  502  0.00000000000E+00  0.00000000000E+00  0.36364196868E+03  0.36364196868E+03  0.00000000000E+00 0.  1.
         21   -1    0    0  502  503 -0.00000000000E+00 -0.00000000000E+00 -0.16898999686E+03  0.16898999686E+03  0.00000000000E+00 0.  1.
         -6    2    1    2    0  503 -0.12951657658E+03  0.10039577759E+03  0.16888166655E+03  0.29218183863E+03  0.17319166770E+03 0.  0.
        -24    2    3    3    0    0 -0.64766472216E+02 -0.35506200425E+01  0.34014983702E+02  0.10994972911E+03  0.82003786433E+02 0.  0.
          6    2    1    2  501    0  0.12951657658E+03 -0.10039577759E+03  0.25770305273E+02  0.24045012692E+03  0.17406406617E+03 0.  0.
         24    2    5    5    0    0  0.65743349490E+02 -0.40479591021E+02  0.80310534066E+02  0.13723336247E+03  0.80140056155E+02 0.  0.
          5    1    5    5  501    0  0.63773227090E+02 -0.59916186572E+02 -0.54540228793E+02  0.10321676445E+03  0.47000000000E+01 0. -1.
        -13    1    6    6    0    0  0.48716258479E+02 -0.56439777379E+02  0.27448661851E+02  0.79449048756E+02  0.00000000000E+00 0.  1.
         14    1    6    6    0    0  0.17027091011E+02  0.15960186359E+02  0.52861872215E+02  0.57784313711E+02  0.00000000000E+00 0. -1.
         -5    1    3    3    0  503 -0.64750104363E+02  0.10394639764E+03  0.13486668285E+03  0.18223210952E+03  0.47000000000E+01 0.  1.
         13    1    4    4    0    0  0.66767533114E+01  0.26156025266E+02  0.59411484256E+01  0.27640802035E+02  0.00000000000E+00 0. -1.
        -14    1    4    4    0    0 -0.71443225528E+02 -0.29706645309E+02  0.28073835277E+02  0.82308927076E+02  0.00000000000E+00 0.  1.
<mgrwt>
<rscale>  2 0.23890640E+03</rscale>
<asrwt>0</asrwt>
<pdfrwt beam="1">  1       21 0.55944918E-01 0.23906517E+03</pdfrwt>
<pdfrwt beam="2">  1       21 0.25998461E-01 0.23906517E+03</pdfrwt>
<totfact> 0.41354317E+04</totfact>
</mgrwt>
</event>
<event>
12    1  0.1074575E-001  0.1785247E+03  0.7546771E-02  0.1170838E+00
         21   -1    0    0  503  502  0.00000000000E+00  0.00000000000E+00  0.17064528179E+03  0.17064528179E+03  0.00000000000E+00 0. -1.
         21   -1    0    0  501  503 -0.00000000000E+00 -0.00000000000E+00 -0.26355815929E+03  0.26355815929E+03  0.00000000000E+00 0. -1.
          6    2    1    2  501    0  0.14125615302E+01 -0.17590164992E+02 -0.16917856900E+03  0.24595216132E+03  0.17765041011E+03 0.  0.
         24    2    3    3    0    0 -0.41173244501E+02 -0.44339356469E+02 -0.16715136585E+03  0.19540248602E+03  0.81125445098E+02 0.  0.
         -6    2    1    2    0  502 -0.14125615302E+01  0.17590164992E+02  0.76265691513E+02  0.18825127976E+03  0.17120361969E+03 0.  0.
        -24    2    5    5    0    0  0.23220467045E+02  0.52019796061E+02 -0.27127300118E+01  0.98519085656E+02  0.80333069544E+02 0.  0.
          5    1    3    3  501    0  0.42585806031E+02  0.26749191478E+02 -0.20272031507E+01  0.50549675297E+02  0.47000000000E+01 0. -1.
        -11    1    4    4    0    0  0.26657869572E+01  0.32527636602E+00  0.85108969010E+01  0.89245498976E+01  0.00000000000E+00 0.  1.
         12    1    4    4    0    0 -0.43839031458E+02 -0.44664632835E+02 -0.17566226275E+03  0.18647793612E+03  0.00000000000E+00 0. -1.
         -5    1    5    5    0  502 -0.24633028575E+02 -0.34429631070E+02  0.78978421524E+02  0.89732194105E+02  0.47000000000E+01 0.  1.
         13    1    6    6    0    0 -0.28458599227E+02  0.25297332606E+02  0.91084156570E+01  0.39151119304E+02  0.00000000000E+00 0. -1.
        -14    1    6    6    0    0  0.51679066272E+02  0.26722463455E+02 -0.11821145669E+02  0.59367966352E+02  0.00000000000E+00 0.  1.
<mgrwt>
<rscale>  2 0.17689915E+03</rscale>
<asrwt>0</asrwt>
<pdfrwt beam="1">  1       21 0.26253120E-01 0.17852473E+03</pdfrwt>
<pdfrwt beam="2">  1       21 0.40547409E-01 0.17852473E+03</pdfrwt>
<totfact> 0.81294529E+04</totfact>
</mgrwt>
</event>
<event>
12    1  0.1074575E-001  0.2352255E+03  0.7546771E-02  0.1123174E+00
         21   -1    0    0  503  502  0.00000000000E+00  0.00000000000E+00  0.41027160619E+03  0.41027160619E+03  0.00000000000E+00 0.  1.
         21   -1    0    0  501  503 -0.00000000000E+00 -0.00000000000E+00 -0.15717620275E+03  0.15717620275E+03  0.00000000000E+00 0. -1.
          6    2    1    2  501    0  0.14444837452E+03 -0.66649693690E+02  0.18595352442E+02  0.23595932911E+03  0.17327291564E+03 0.  0.
         24    2    3    3    0    0  0.55628114318E+02  0.18134634158E+02  0.45488076180E+02  0.11017089777E+03  0.81517541558E+02 0.  0.
         -6    2    1    2    0  502 -0.14444837452E+03  0.66649693690E+02  0.23450005100E+03  0.33148847983E+03  0.17200820843E+03 0.  0.
        -24    2    5    5    0    0 -0.14260956417E+03  0.26459330102E+01  0.13167680246E+03  0.21026730574E+03  0.80802665829E+02 0.  0.
          5    1    3    3  501    0  0.88820260198E+02 -0.84784327848E+02 -0.26892723738E+02  0.12578843135E+03  0.47000000000E+01 0. -1.
        -13    1    4    4    0    0  0.36122913747E+02 -0.30001974924E+02  0.30938425633E+02  0.56233171505E+02  0.00000000000E+00 0.  1.
         14    1    4    4    0    0  0.19505200571E+02  0.48136609082E+02  0.14549650547E+02  0.53937726262E+02  0.00000000000E+00 0. -1.
         -5    1    5    5    0  502 -0.18388103452E+01  0.64003760680E+02  0.10282324854E+03  0.12122117408E+03  0.47000000000E+01 0.  1.
         11    1    6    6    0    0  0.91294384451E+01 -0.62347544635E+01  0.15083831812E+02  0.18701358017E+02  0.00000000000E+00 0. -1.
        -12    1    6    6    0    0 -0.15173900262E+03  0.88806874736E+01  0.11659297065E+03  0.19156594773E+03  0.00000000000E+00 0.  1.
<mgrwt>
<rscale>  2 0.23499260E+03</rscale>
<asrwt>0</asrwt>
<pdfrwt beam="1">  1       21 0.63118708E-01 0.23522546E+03</pdfrwt>
<pdfrwt beam="2">  1       21 0.24180954E-01 0.23522546E+03</pdfrwt>
<totfact> 0.36706397E+04</totfact>
</mgrwt>
</event>
<event>
12    1  0.1074575E-001  0.1968242E+03  0.7546771E-02  0.1153055E+00
         21   -1    0    0  501  502  0.00000000000E+00  0.00000000000E+00  0.43746113608E+03  0.43746113608E+03  0.00000000000E+00 0. -1.
         21   -1    0    0  502  503 -0.00000000000E+00 -0.00000000000E+00 -0.90142962783E+02  0.90142962783E+02  0.00000000000E+00 0. -1.
         -6    2    1    2    0  503  0.40132580080E+02  0.73506921801E+02  0.21930560535E+03  0.29281277568E+03  0.17501566080E+03 0.  0.
        -24    2    3    3    0    0  0.79591596843E+02  0.66680034113E+02  0.95950525289E+02  0.16303532703E+03  0.81197077045E+02 0.  0.
          6    2    1    2  501    0 -0.40132580080E+02 -0.73506921801E+02  0.12801256795E+03  0.23479132319E+03  0.17811753523E+03 0.  0.
         24    2    5    5    0    0  0.16546682744E+02 -0.10410422191E+03  0.91250260528E+02  0.16047920537E+03  0.79470016866E+02 0.  0.
          5    1    5    5  501    0 -0.56679262824E+02  0.30597300104E+02  0.36762307420E+02  0.74312117819E+02  0.47000000000E+01 0. -1.
        -13    1    6    6    0    0  0.12852117285E+02  0.10705673906E+02  0.16064228231E+02  0.23191545898E+02  0.00000000000E+00 0.  1.
         14    1    6    6    0    0  0.36945654595E+01 -0.11480989581E+03  0.75186032296E+02  0.13728765947E+03  0.00000000000E+00 0. -1.
         -5    1    3    3    0  503 -0.39459016764E+02  0.68268876879E+01  0.12335508006E+03  0.12977744864E+03  0.47000000000E+01 0.  1.
         11    1    4    4    0    0  0.99225014815E+01  0.37047097657E+02 -0.29696692123E+01  0.38467680145E+02  0.00000000000E+00 0. -1.
        -12    1    4    4    0    0  0.69669095362E+02  0.29632936455E+02  0.98920194502E+02  0.12456764689E+03  0.00000000000E+00 0.  1.
<mgrwt>
<rscale>  2 0.19611974E+03</rscale>
<asrwt>0</asrwt>
<pdfrwt beam="1">  1       21 0.67301712E-01 0.19682415E+03</pdfrwt>
<pdfrwt beam="2">  1       21 0.13868148E-01 0.19682415E+03</pdfrwt>
<totfact> 0.91213386E+04</totfact>
</mgrwt>
</event>
<event>
12    1  0.1074575E-001  0.2035733E+03  0.7546771E-02  0.1147488E+00
         21   -1    0    0  501  502  0.00000000000E+00  0.00000000000E+00  0.31340392140E+03  0.31340392140E+03  0.00000000000E+00 0. -1.
         21   -1    0    0  502  503 -0.00000000000E+00 -0.00000000000E+00 -0.23952926966E+03  0.23952926966E+03  0.00000000000E+00 0. -1.
         -6    2    1    2    0  503 -0.77742098938E+01 -0.99776101144E+02 -0.15021417196E+03  0.25018266753E+03  0.17323787396E+03 0.  0.
        -24    2    3    3    0    0  0.43943121740E+02 -0.39609389861E+02 -0.13638599979E+03  0.16951034338E+03  0.81441475063E+02 0.  0.
          6    2    1    2  501    0  0.77742098938E+01  0.99776101144E+02  0.22408882370E+03  0.30275052353E+03  0.17727484280E+03 0.  0.
         24    2    5    5    0    0  0.58072265995E+02  0.23725722561E+02  0.72293681199E+02  0.12561382542E+03  0.81345920649E+02 0.  0.
          5    1    5    5  501    0 -0.50298056101E+02  0.76050378583E+02  0.15179514251E+03  0.17713669811E+03  0.47000000000E+01 0. -1.
        -11    1    6    6    0    0  0.35894697088E+02  0.51886871624E+02  0.61672439281E+02  0.88227923543E+02  0.00000000000E+00 0.  1.
         12    1    6    6    0    0  0.22177568907E+02 -0.28161149063E+02  0.10621241918E+02  0.37385901875E+02  0.00000000000E+00 0. -1.
         -5    1    3    3    0  503 -0.51717331634E+02 -0.60166711283E+02 -0.13828172173E+02  0.80672324149E+02  0.47000000000E+01 0.  1.
         13    1    4    4    0    0  0.19616559368E+02  0.12498960236E+02 -0.20107900364E+01  0.23346877414E+02  0.00000000000E+00 0. -1.
        -14    1    4    4    0    0  0.24326562372E+02 -0.52108350097E+02 -0.13437520975E+03  0.14616346596E+03  0.00000000000E+00 0.  1.
<mgrwt>
<rscale>  2 0.20269116E+03</rscale>
<asrwt>0</asrwt>
<pdfrwt beam="1">  1       21 0.48215988E-01 0.20357328E+03</pdfrwt>
<pdfrwt beam="2">  1       21 0.36850657E-01 0.20357328E+03</pdfrwt>
<totfact> 0.29009393E+04</totfact>
</mgrwt>
</event>
<event>
12    1  0.1074575E-001  0.3561394E+03  0.7546771E-02  0.1060219E+00
         21   -1    0    0  501  502  0.00000000000E+00  0.00000000000E+00  0.13634849886E+04  0.13634849886E+04  0.00000000000E+00 0. -1.
         21   -1    0    0  502  503 -0.00000000000E+00 -0.00000000000E+00 -0.13978802899E+03  0.13978802899E+03  0.00000000000E+00 0.  1.
         -6    2    1    2    0  503  0.13538017142E+03  0.28055618709E+03  0.10472048470E+04  0.11058000963E+04  0.17063497973E+03 0.  0.
        -24    2    3    3    0    0  0.14461001206E+03  0.15041307529E+03  0.61403037138E+03  0.65337923482E+03  0.79592579496E+02 0.  0.
          6    2    1    2  501    0 -0.13538017142E+03 -0.28055618709E+03  0.17649211255E+03  0.39747292130E+03  0.17261428806E+03 0.  0.
         24    2    5    5    0    0 -0.25096909887E+02 -0.12715762758E+03  0.13371475682E+03  0.20370628847E+03  0.82569356496E+02 0.  0.
          5    1    5    5  501    0 -0.11028326153E+03 -0.15339855951E+03  0.42777355725E+02  0.19376663283E+03  0.47000000000E+01 0. -1.
        -13    1    6    6    0    0 -0.16189653063E+02 -0.80046065708E+02  0.25841742485E+02  0.85657884380E+02  0.00000000000E+00 0.  1.
         14    1    6    6    0    0 -0.89072568236E+01 -0.47111561873E+02  0.10787301434E+03  0.11804840409E+03  0.00000000000E+00 0. -1.
         -5    1    3    3    0  503 -0.92298406375E+01  0.13014311180E+03  0.43317447566E+03  0.45242086144E+03  0.47000000000E+01 0.  1.
         13    1    4    4    0    0  0.77950409797E+02  0.12980508308E+03  0.46011553107E+03  0.48438819961E+03  0.00000000000E+00 0. -1.
        -14    1    4    4    0    0  0.66659602262E+02  0.20607992210E+02  0.15391484031E+03  0.16899103522E+03  0.00000000000E+00 0.  1.
<mgrwt>
<rscale>  2 0.35590036E+03</rscale>
<asrwt>0</asrwt>
<pdfrwt beam="1">  1       21 0.20976691E+00 0.35613938E+03</pdfrwt>
<pdfrwt beam="2">  1       21 0.21505852E-01 0.35613938E+03</pdfrwt>
<totfact> 0.20706360E+03</totfact>
</mgrwt>
</event>
<event>
12    1  0.1074575E-001  0.1806337E+03  0.7546771E-02  0.1167238E+00
         21   -1    0    0  503  502  0.00000000000E+00  0.00000000000E+00  0.12361091143E+03  0.12361091143E+03  0.00000000000E+00 0.  1.
         21   -1    0    0  501  503 -0.00000000000E+00 -0.00000000000E+00 -0.26380803581E+03  0.26380803581E+03  0.00000000000E+00 0.  1.
          6    2    1    2  501    0  0.51445534629E+02 -0.15122943413E+02 -0.65751741023E+02  0.19204584227E+03  0.17228745641E+03 0.  0.
         24    2    3    3    0    0  0.26434884142E+02 -0.31347748226E+02 -0.10560549413E+03  0.14205395727E+03  0.85704853821E+02 0.  0.
         -6    2    1    2    0  502 -0.51445534629E+02  0.15122943413E+02 -0.74445383359E+02  0.19537310497E+03  0.17249112613E+03 0.  0.
        -24    2    5    5    0    0  0.12986625248E+02  0.58222003403E+02 -0.34420716569E+02  0.10800551287E+03  0.83198262994E+02 0.  0.
          5    1    3    3  501    0  0.25010650487E+02  0.16224804813E+02  0.39853753107E+02  0.49991884999E+02  0.47000000000E+01 0. -1.
        -13    1    4    4    0    0  0.42518768176E+01 -0.47529299225E+02 -0.19279863001E+02  0.51466745172E+02  0.00000000000E+00 0.  1.
         14    1    4    4    0    0  0.22183007324E+02  0.16181550999E+02 -0.86325631129E+02  0.90587212102E+02  0.00000000000E+00 0. -1.
         -5    1    5    5    0  502 -0.64432159878E+02 -0.43099059990E+02 -0.40024666789E+02  0.87367592104E+02  0.47000000000E+01 0.  1.
         11    1    6    6    0    0 -0.29407359696E+01 -0.21064815067E+02 -0.42465412878E+01  0.21688879058E+02  0.00000000000E+00 0. -1.
        -12    1    6    6    0    0  0.15927361218E+02  0.79286818470E+02 -0.30174175281E+02  0.86316633811E+02  0.00000000000E+00 0.  1.
<mgrwt>
<rscale>  2 0.18058506E+03</rscale>
<asrwt>0</asrwt>
<pdfrwt beam="1">  1       21 0.19017063E-01 0.18063370E+03</pdfrwt>
<pdfrwt beam="2">  1       21 0.40585851E-01 0.18063370E+03</pdfrwt>
<totfact> 0.14888278E+05</totfact>
</mgrwt>
</event>
<event>
11    1  0.1074575E-001  0.3557056E+03  0.7546771E-02  0.1060342E+00
         21   -1    0    0  501  502  0.00000000000E+00  0.00000000000E+00  0.21895163060E+03  0.21895163060E+03  0.00000000000E+00 0.  1.
         21   -1    0    0  502  503 -0.00000000000E+00 -0.00000000000E+00 -0.57722830847E+03  0.57722830847E+03  0.00000000000E+00 0.  1.
         -6    2    1    2    0  503 -0.14948878904E+03  0.27189084898E+03 -0.18400929856E+03  0.40048207250E+03  0.17393946254E+03 0.  0.
          6    2    1    2  501    0  0.14948878904E+03 -0.27189084898E+03 -0.17426737931E+03  0.39569786657E+03  0.17302066440E+03 0.  0.
         24    2    4    4    0    0  0.94973669982E+02 -0.27153562004E+03 -0.15785082566E+03  0.33856978567E+03  0.83432761376E+02 0.  0.
          5    1    4    4  501    0  0.54515119058E+02 -0.35522894335E+00 -0.16416553650E+02  0.57128080899E+02  0.47000000000E+01 0. -1.
        -11    1    5    5    0    0  0.61642446477E+02 -0.81612724711E+02 -0.27801405506E+02  0.10598748129E+03  0.00000000000E+00 0.  1.
         12    1    5    5    0    0  0.33331223504E+02 -0.18992289533E+03 -0.13004942015E+03  0.23258230438E+03  0.00000000000E+00 0. -1.
         -5    1    3    3    0  503 -0.27602062556E+02  0.11339200562E+03 -0.27006952690E+02  0.11987946567E+03  0.47000000000E+01 0.  1.
         13    1    3    3    0    0 -0.47314415100E+02  0.44005255452E+02  0.93941327285E+01  0.65294456988E+02  0.00000000000E+00 0. -1.
        -14    1    3    3    0    0 -0.74572311384E+02  0.11449358790E+03 -0.16639647860E+03  0.21530814984E+03  0.00000000000E+00 0.  1.
<mgrwt>
<rscale>  2 0.35559344E+03</rscale>
<asrwt>0</asrwt>
<pdfrwt beam="1">  1       21 0.33684866E-01 0.35570559E+03</pdfrwt>
<pdfrwt beam="2">  1       21 0.88804355E-01 0.35570559E+03</pdfrwt>
<totfact> 0.84353652E+03</totfact>
</mgrwt>
</event>
<event>
12    1  0.1074575E-001  0.2257422E+03  0.7546771E-02  0.1129772E+00
         21   -1    0    0  501  502  0.00000000000E+00  0.00000000000E+00  0.17821833557E+04  0.17821833557E+04  0.00000000000E+00 0.  1.
         21   -1    0    0  502  503 -0.00000000000E+00 -0.00000000000E+00 -0.30248596403E+02  0.30248596403E+02  0.00000000000E+00 0.  1.
         -6    2    1    2    0  503 -0.72376273206E+02 -0.12647507780E+03  0.66062140903E+03  0.69812620383E+03  0.17241020905E+03 0.  0.
        -24    2    3    3    0    0 -0.74891110005E+02 -0.14503738880E+02  0.29446295593E+03  0.31519277892E+03  0.82577349595E+02 0.  0.
          6    2    1    2  501    0  0.72376273206E+02  0.12647507780E+03  0.10913133503E+04  0.11143057483E+04  0.17169217201E+03 0.  0.
         24    2    5    5    0    0  0.10157128399E+03  0.49562278472E+02  0.61510783638E+03  0.63102352347E+03  0.84023161177E+02 0.  0.
          5    1    5    5  501    0 -0.29195010783E+02  0.76912799323E+02  0.47620551389E+03  0.48328222481E+03  0.47000000000E+01 0. -1.
        -11    1    6    6    0    0  0.10945430470E+03  0.21336047713E+02  0.48997340037E+03  0.50250313911E+03  0.00000000000E+00 0.  1.
         12    1    6    6    0    0 -0.78830207150E+01  0.28226230759E+02  0.12513443601E+03  0.12852038435E+03  0.00000000000E+00 0. -1.
         -5    1    3    3    0  503  0.25148367994E+01 -0.11197133892E+03  0.36615845310E+03  0.38293342492E+03  0.47000000000E+01 0.  1.
         11    1    4    4    0    0 -0.78026008617E+01 -0.19266889389E+02  0.10337742455E+02  0.23215566459E+02  0.00000000000E+00 0. -1.
        -12    1    4    4    0    0 -0.67088509143E+02  0.47631505093E+01  0.28412521347E+03  0.29197721246E+03  0.00000000000E+00 0.  1.
<mgrwt>
<rscale>  2 0.22560512E+03</rscale>
<asrwt>0</asrwt>
<pdfrwt beam="1">  1       21 0.27418197E+00 0.22574222E+03</pdfrwt>
<pdfrwt beam="2">  1       21 0.46536316E-02 0.22574222E+03</pdfrwt>
<totfact> 0.14166766E+04</totfact>
</mgrwt>
</event>
<event>
12    1  0.1074575E-001  0.1793540E+03  0.7546771E-02  0.1169826E+00
         21   -1    0    0  503  502  0.00000000000E+00  0.00000000000E+00  0.38503857248E+03  0.38503857248E+03  0.00000000000E+00 0. -1.
         21   -1    0    0  501  503 -0.00000000000E+00 -0.00000000000E+00 -0.91146486110E+02  0.91146486110E+02  0.00000000000E+00 0. -1.
          6    2    1    2  501    0  0.11504217666E+02  0.20251717173E+02  0.69347769527E+02  0.19229400393E+03  0.17783529384E+03 0.  0.
         24    2    3    3    0    0  0.37181911947E+02  0.16410608999E+02 -0.26312936153E+02  0.93061152981E+02  0.79474555182E+02 0.  0.
         -6    2    1    2    0  502 -0.11504217666E+02 -0.20251717173E+02  0.22454431684E+03  0.28389105466E+03  0.17213803072E+03 0.  0.
        -24    2    5    5    0    0 -0.17523059987E+02 -0.14786122340E+01  0.30717054331E+02  0.89007105544E+02  0.81666905691E+02 0.  0.
          5    1    3    3  501    0 -0.25677694281E+02  0.38411081740E+01  0.95660705679E+02  0.99232850945E+02  0.47000000000E+01 0. -1.
        -13    1    4    4    0    0  0.55153340013E+02 -0.11223302251E+02 -0.15734289119E+02  0.58441605745E+02  0.00000000000E+00 0.  1.
         14    1    4    4    0    0 -0.17971428066E+02  0.27633911250E+02 -0.10578647033E+02  0.34619547235E+02  0.00000000000E+00 0. -1.
         -5    1    5    5    0  502  0.60188423208E+01 -0.18773104939E+02  0.19382726251E+03  0.19488394912E+03  0.47000000000E+01 0.  1.
         11    1    6    6    0    0 -0.25731122192E+02  0.35677253671E+02  0.80588729746E+01  0.44720269592E+02  0.00000000000E+00 0. -1.
        -12    1    6    6    0    0  0.82080622051E+01 -0.37155865905E+02  0.22658181356E+02  0.44286835952E+02  0.00000000000E+00 0.  1.
<mgrwt>
<rscale>  2 0.17792519E+03</rscale>
<asrwt>0</asrwt>
<pdfrwt beam="1">  1       21 0.59236703E-01 0.17935404E+03</pdfrwt>
<pdfrwt beam="2">  1       21 0.14022537E-01 0.17935404E+03</pdfrwt>
<totfact> 0.11864644E+05</totfact>
</mgrwt>
</event>
<event>
12    1  0.1074575E-001  0.2113639E+03  0.7546771E-02  0.1140507E+00
         21   -1    0    0  501  502  0.00000000000E+00  0.00000000000E+00  0.73614161144E+02  0.73614161144E+02  0.00000000000E+00 0.  1.
         21   -1    0    0  502  503 -0.00000000000E+00 -0.00000000000E+00 -0.60990325606E+03  0.60990325606E+03  0.00000000000E+00 0.  1.
         -6    2    1    2    0  503  0.11449837327E+03 -0.37646116614E+02 -0.24309311568E+03  0.32207779569E+03  0.17353021641E+03 0.  0.
        -24    2    3    3    0    0  0.26430652580E+02  0.15952902565E+02 -0.20008931171E+02  0.76278239823E+02  0.66820191917E+02 0.  0.
          6    2    1    2  501    0 -0.11449837327E+03  0.37646116614E+02 -0.29319597923E+03  0.36143962151E+03  0.17363067178E+03 0.  0.
         24    2    5    5    0    0 -0.20068008759E+02  0.55150971964E+02 -0.80111542292E+02  0.12766498437E+03  0.80225521767E+02 0.  0.
          5    1    5    5  501    0 -0.94430364514E+02 -0.17504855350E+02 -0.21308443694E+03  0.23377463714E+03  0.47000000000E+01 0. -1.
        -11    1    6    6    0    0 -0.60827104008E+00  0.46838022886E+02 -0.92111899196E+02  0.10333814569E+03  0.00000000000E+00 0.  1.
         12    1    6    6    0    0 -0.19459737719E+02  0.83129490781E+01  0.12000356904E+02  0.24326838683E+02  0.00000000000E+00 0. -1.
         -5    1    3    3    0  503  0.88067720693E+02 -0.53599019179E+02 -0.22308418451E+03  0.24579955586E+03  0.47000000000E+01 0.  1.
         11    1    4    4    0    0 -0.22006442864E+02  0.10561344787E+02 -0.26948186191E+01  0.24557841490E+02  0.00000000000E+00 0. -1.
        -12    1    4    4    0    0  0.48437095444E+02  0.53915577776E+01 -0.17314112552E+02  0.51720398333E+02  0.00000000000E+00 0.  1.
<mgrwt>
<rscale>  2 0.21134331E+03</rscale>
<asrwt>0</asrwt>
<pdfrwt beam="1">  1       21 0.11325256E-01 0.21136395E+03</pdfrwt>
<pdfrwt beam="2">  1       21 0.93831268E-01 0.21136395E+03</pdfrwt>
<totfact> 0.61493577E+04</totfact>
</mgrwt>
</event>
<event>
12    1  0.1074575E-001  0.1901365E+03  0.7546771E-02  0.1159070E+00
         21   -1    0    0  501  502  0.00000000000E+00  0.00000000000E+00  0.69284399728E+02  0.69284399728E+02  0.00000000000E+00 0. -1.
         21   -1    0    0  502  503 -0.00000000000E+00 -0.00000000000E+00 -0.56074367111E+03  0.56074367111E+03  0.00000000000E+00 0. -1.
         -6    2    1    2    0  503  0.57514197676E+02 -0.48513592147E+02 -0.33573305182E+03  0.38425878008E+03  0.17110428525E+03 0.  0.
        -24    2    3    3    0    0  0.89000738653E+01 -0.83135714427E+02 -0.24451569142E+03  0.27515002139E+03  0.94492606026E+02 0.  0.
          6    2    1    2  501    0 -0.57514197676E+02  0.48513592147E+02 -0.15572621957E+03  0.24576929076E+03  0.17461511178E+03 0.  0.
         24    2    5    5    0    0  0.77041288731E+01  0.58236126201E+02 -0.31004165698E+02  0.10461108693E+03  0.80817208697E+02 0.  0.
          5    1    5    5  501    0 -0.65218326550E+02 -0.97225340548E+01 -0.12472205387E+03  0.14115820383E+03  0.47000000000E+01 0. -1.
        -11    1    6    6    0    0  0.38789382274E+02  0.22187262017E+02  0.49470318725E+01  0.44959580707E+02  0.00000000000E+00 0.  1.
         12    1    6    6    0    0 -0.31085253401E+02  0.36048864185E+02 -0.35951197571E+02  0.59651506224E+02  0.00000000000E+00 0. -1.
         -5    1    3    3    0  503  0.48614123811E+02  0.34622122281E+02 -0.91217360399E+02  0.10910875869E+03  0.47000000000E+01 0.  1.
         11    1    4    4    0    0  0.25351224433E+02 -0.70213286577E+00 -0.12295918145E+02  0.28184520110E+02  0.00000000000E+00 0. -1.
        -12    1    4    4    0    0 -0.16451150567E+02 -0.82433581561E+02 -0.23221977327E+03  0.24696550128E+03  0.00000000000E+00 0.  1.
<mgrwt>
<rscale>  2 0.18932657E+03</rscale>
<asrwt>0</asrwt>
<pdfrwt beam="1">  1       21 0.10659138E-01 0.19013650E+03</pdfrwt>
<pdfrwt beam="2">  1       21 0.86268257E-01 0.19013650E+03</pdfrwt>
<totfact> 0.84035744E+04</totfact>
</mgrwt>
</event>
<event>
12    1  0.1074575E-001  0.1872772E+03  0.7546771E-02  0.1161075E+00
         21   -1    0    0  501  502  0.00000000000E+00  0.00000000000E+00  0.10907026084E+04  0.10907026084E+04  0.00000000000E+00 0. -1.
         21   -1    0    0  502  503 -0.00000000000E+00 -0.00000000000E+00 -0.60647940928E+02  0.60647940928E+02  0.00000000000E+00 0. -1.
         -6    2    1    2    0  503  0.69613078733E+02 -0.17874340198E+02  0.12018469704E+03  0.22252444716E+03  0.17293725861E+03 0.  0.
        -24    2    3    3    0    0  0.14954088110E+02 -0.21433596872E+02  0.14081771566E+03  0.16380405019E+03  0.79492854944E+02 0.  0.
          6    2    1    2  501    0 -0.69613078733E+02  0.17874340198E+02  0.90986997044E+03  0.92882610217E+03  0.17230522975E+03 0.  0.
         24    2    5    5    0    0 -0.38913507382E+02 -0.50559527174E+02  0.63186134344E+03  0.64083904592E+03  0.85763620438E+02 0.  0.
          5    1    5    5  501    0 -0.30699571351E+02  0.68433867372E+02  0.27800862700E+03  0.28798705625E+03  0.47000000000E+01 0. -1.
        -13    1    6    6    0    0 -0.11513490794E+02 -0.50823655890E+02  0.16191002716E+03  0.17008956865E+03  0.00000000000E+00 0.  1.
         14    1    6    6    0    0 -0.27400016587E+02  0.26412871558E+00  0.46995131628E+03  0.47074947727E+03  0.00000000000E+00 0. -1.
         -5    1    3    3    0  503  0.54658990622E+02  0.35592566741E+01 -0.20633018622E+02  0.58720396979E+02  0.47000000000E+01 0.  1.
         11    1    4    4    0    0  0.15239008826E+02 -0.45124765896E+02  0.12862074087E+03  0.13715599465E+03  0.00000000000E+00 0. -1.
        -12    1    4    4    0    0 -0.28492071535E+00  0.23691169025E+02  0.12196974789E+02  0.26648055531E+02  0.00000000000E+00 0.  1.
<mgrwt>
<rscale>  2 0.18713121E+03</rscale>
<asrwt>0</asrwt>
<pdfrwt beam="1">  1       21 0.16780039E+00 0.18727725E+03</pdfrwt>
<pdfrwt beam="2">  1       21 0.93304533E-02 0.18727725E+03</pdfrwt>
<totfact> 0.20352712E+04</totfact>
</mgrwt>
</event>
<event>
12    1  0.1074575E-001  0.2560812E+03  0.7546771E-02  0.1110250E+00
         21   -1    0    0  503  502  0.00000000000E+00  0.00000000000E+00  0.39105090958E+03  0.39105090958E+03  0.00000000000E+00 0.  1.
         21   -1    0    0  501  503 -0.00000000000E+00 -0.00000000000E+00 -0.29871276923E+03  0.29871276923E+03  0.00000000000E+00 0.  1.
          6    2    1    2  501    0  0.14847073303E+03 -0.10788229444E+03 -0.18512874304E+03  0.31218527957E+03  0.17176975653E+03 0.  0.
         24    2    3    3    0    0  0.14871628121E+03 -0.13973686611E+03 -0.16012606498E+03  0.27141767060E+03  0.79901634416E+02 0.  0.
         -6    2    1    2    0  502 -0.14847073303E+03  0.10788229444E+03  0.27746688338E+03  0.37757839924E+03  0.17859291189E+03 0.  0.
        -24    2    5    5    0    0 -0.13706446251E+03  0.10138809793E+03  0.12977595370E+03  0.22923090749E+03  0.81478816307E+02 0.  0.
          5    1    3    3  501    0 -0.24554818193E+00  0.31854571671E+02 -0.25002678063E+02  0.40767608963E+02  0.47000000000E+01 0. -1.
        -13    1    4    4    0    0  0.62559598899E+02 -0.64065438452E+02 -0.22589062164E+02  0.92349063601E+02  0.00000000000E+00 0.  1.
         14    1    4    4    0    0  0.86156682314E+02 -0.75671427660E+02 -0.13753700281E+03  0.17906860700E+03  0.00000000000E+00 0. -1.
         -5    1    5    5    0  502 -0.11406270517E+02  0.64941965158E+01  0.14769092969E+03  0.14834749175E+03  0.47000000000E+01 0.  1.
         13    1    6    6    0    0 -0.77543534356E+02  0.11643931973E+02  0.74601215550E+02  0.10823087468E+03  0.00000000000E+00 0. -1.
        -14    1    6    6    0    0 -0.59520928158E+02  0.89744165953E+02  0.55174738146E+02  0.12100003281E+03  0.00000000000E+00 0.  1.
<mgrwt>
<rscale>  2 0.25489524E+03</rscale>
<asrwt>0</asrwt>
<pdfrwt beam="1">  1       21 0.60161679E-01 0.25608119E+03</pdfrwt>
<pdfrwt beam="2">  1       21 0.45955810E-01 0.25608119E+03</pdfrwt>
<totfact> 0.11253848E+04</totfact>
</mgrwt>
</event>
<event>
12    1  0.1074575E-001  0.2135987E+03  0.7546771E-02  0.1138753E+00
         21   -1    0    0  503  502  0.00000000000E+00  0.00000000000E+00  0.32673108818E+02  0.32673108818E+02  0.00000000000E+00 0. -1.
         21   -1    0    0  501  503 -0.00000000000E+00 -0.00000000000E+00 -0.17752257623E+04  0.17752257623E+04  0.00000000000E+00 0.  1.
          6    2    1    2  501    0 -0.11806660047E+03  0.41099155175E+02 -0.12890164269E+04  0.13065939484E+04  0.17319218920E+03 0.  0.
         24    2    3    3    0    0 -0.14959526437E+03  0.51985948382E+02 -0.11301658377E+04  0.11442111334E+04  0.82843316604E+02 0.  0.
         -6    2    1    2    0  502  0.11806660047E+03 -0.41099155175E+02 -0.45353622656E+03  0.50130492272E+03  0.17315500006E+03 0.  0.
        -24    2    5    5    0    0  0.67906099396E+02 -0.72004830633E+01 -0.11052957554E+03  0.15296478940E+03  0.80736326622E+02 0.  0.
          5    1    3    3  501    0  0.31528663903E+02 -0.10886793207E+02 -0.15885058919E+03  0.16238281498E+03  0.47000000000E+01 0. -1.
        -11    1    4    4    0    0 -0.14671999788E+03  0.33634597507E+02 -0.10847399410E+04  0.10951341396E+04  0.00000000000E+00 0.  1.
         12    1    4    4    0    0 -0.28752664942E+01  0.18351350874E+02 -0.45425896677E+02  0.49076993849E+02  0.00000000000E+00 0. -1.
         -5    1    5    5    0  502  0.50160501072E+02 -0.33898672112E+02 -0.34300665102E+03  0.34834013332E+03  0.47000000000E+01 0.  1.
         13    1    6    6    0    0  0.78082600462E+02  0.24801992012E+00 -0.11549339174E+03  0.13941189886E+03  0.00000000000E+00 0. -1.
        -14    1    6    6    0    0 -0.10176501067E+02 -0.74485029835E+01  0.49638162027E+01  0.13552890538E+02  0.00000000000E+00 0.  1.
<mgrwt>
<rscale>  2 0.21359114E+03</rscale>
<asrwt>0</asrwt>
<pdfrwt beam="1">  1       21 0.50266323E-02 0.21359868E+03</pdfrwt>
<pdfrwt beam="2">  1       21 0.27311165E+00 0.21359868E+03</pdfrwt>
<totfact> 0.12745440E+04</totfact>
</mgrwt>
</event>
<event>
12    1  0.1074575E-001  0.1789266E+03  0.7546771E-02  0.1169504E+00
         21   -1    0    0  503  502  0.00000000000E+00  0.00000000000E+00  0.42548334657E+03  0.42548334657E+03  0.00000000000E+00 0. -1.
         21   -1    0    0  501  503 -0.00000000000E+00 -0.00000000000E+00 -0.86270354074E+02  0.86270354074E+02  0.00000000000E+00 0. -1.
          6    2    1    2  501    0 -0.37769120299E+02 -0.80103493262E+01  0.74687787163E+02  0.19388916712E+03  0.17471139468E+03 0.  0.
         24    2    3    3    0    0 -0.31122587197E+02 -0.15580978789E+02  0.11911269062E+03  0.14809448533E+03  0.80825498356E+02 0.  0.
         -6    2    1    2    0  502  0.37769120299E+02  0.80103493262E+01  0.26452520533E+03  0.31786453352E+03  0.17196978012E+03 0.  0.
        -24    2    5    5    0    0  0.13501132204E+02  0.20562043531E+02  0.41461506281E+02  0.93084676537E+02  0.79628024576E+02 0.  0.
          5    1    3    3  501    0 -0.66465331018E+01  0.75706294625E+01 -0.44424903457E+02  0.45794681786E+02  0.47000000000E+01 0. -1.
        -13    1    4    4    0    0  0.18073258433E+02 -0.30861808688E+02  0.58297466770E+02  0.68393629364E+02  0.00000000000E+00 0.  1.
         14    1    4    4    0    0 -0.49195845630E+02  0.15280829899E+02  0.60815223851E+02  0.79700855966E+02  0.00000000000E+00 0. -1.
         -5    1    5    5    0  502  0.24267988095E+02 -0.12551694205E+02  0.22306369905E+03  0.22477985699E+03  0.47000000000E+01 0.  1.
         11    1    6    6    0    0  0.40104461773E+02  0.20779672042E+02  0.47769778228E+02  0.65742789234E+02  0.00000000000E+00 0. -1.
        -12    1    6    6    0    0 -0.26603329569E+02 -0.21762851109E+00 -0.63082719469E+01  0.27341887303E+02  0.00000000000E+00 0.  1.
<mgrwt>
<rscale>  2 0.17825385E+03</rscale>
<asrwt>0</asrwt>
<pdfrwt beam="1">  1       21 0.65458975E-01 0.17892664E+03</pdfrwt>
<pdfrwt beam="2">  1       21 0.13272362E-01 0.17892664E+03</pdfrwt>
<totfact> 0.10564790E+05</totfact>
</mgrwt>
</event>
<event>
12    1  0.1074575E-001  0.3287117E+03  0.7546771E-02  0.1071711E+00
         21   -1    0    0  503  502  0.00000000000E+00  0.00000000000E+00  0.59617222637E+02  0.59617222637E+02  0.00000000000E+00 0. -1.
         21   -1    0    0  501  503 -0.00000000000E+00 -0.00000000000E+00 -0.20049791562E+04  0.20049791562E+04  0.00000000000E+00 0.  1.
          6    2    1    2  501    0 -0.25590499490E+03  0.11136487216E+03 -0.12927136040E+04  0.13338515072E+04  0.17367175982E+03 0.  0.
         24    2    3    3    0    0 -0.46530464176E+02  0.33281389744E+02 -0.52164906509E+03  0.53104559199E+03  0.81356860002E+02 0.  0.
         -6    2    1    2    0  502  0.25590499490E+03 -0.11136487216E+03 -0.65264832957E+03  0.73074487163E+03  0.17363387964E+03 0.  0.
        -24    2    5    5    0    0  0.23709999504E+03 -0.58451341476E+02 -0.42951281038E+03  0.50060356792E+03  0.80558742347E+02 0.  0.
          5    1    3    3  501    0 -0.20937453073E+03  0.78083482412E+02 -0.77106453890E+03  0.80280591521E+03  0.47000000000E+01 0. -1.
        -11    1    4    4    0    0 -0.33492386311E+02  0.57959374659E+02 -0.43190087971E+03  0.43705766089E+03  0.00000000000E+00 0.  1.
         12    1    4    4    0    0 -0.13038077865E+02 -0.24677984915E+02 -0.89748185379E+02  0.93987931101E+02  0.00000000000E+00 0. -1.
         -5    1    5    5    0  502  0.18804999862E+02 -0.52913530680E+02 -0.22313551919E+03  0.23014130371E+03  0.47000000000E+01 0.  1.
         13    1    6    6    0    0  0.14195786655E+03 -0.27759242928E+02 -0.17425341926E+03  0.22646603623E+03  0.00000000000E+00 0. -1.
        -14    1    6    6    0    0  0.95142128493E+02 -0.30692098548E+02 -0.25525939112E+03  0.27413753169E+03  0.00000000000E+00 0.  1.
<mgrwt>
<rscale>  2 0.32870670E+03</rscale>
<asrwt>0</asrwt>
<pdfrwt beam="1">  1       21 0.91718815E-02 0.32871170E+03</pdfrwt>
<pdfrwt beam="2">  1       21 0.30845830E+00 0.32871170E+03</pdfrwt>
<totfact> 0.25359233E+03</totfact>
</mgrwt>
</event>
<event>
12    1  0.1074575E-001  0.2382106E+03  0.7546771E-02  0.1121030E+00
         21   -1    0    0  501  502  0.00000000000E+00  0.00000000000E+00  0.12911058557E+03  0.12911058557E+03  0.00000000000E+00 0.  1.
         21   -1    0    0  502  503 -0.00000000000E+00 -0.00000000000E+00 -0.46318474907E+03  0.46318474907E+03  0.00000000000E+00 0. -1.
         -6    2    1    2    0  503  0.16263748819E+03  0.20523267858E+02 -0.99540540277E+02  0.25817165804E+03  0.17283555412E+03 0.  0.
        -24    2    3    3    0    0  0.65849043822E+02 -0.33194981009E+02 -0.98098280102E+02  0.14736631819E+03  0.81581590086E+02 0.  0.
          6    2    1    2  501    0 -0.16263748819E+03 -0.20523267858E+02 -0.23453362323E+03  0.33412367661E+03  0.17251218437E+03 0.  0.
         24    2    5    5    0    0 -0.41522145568E+02 -0.59092668788E+02 -0.13200898990E+03  0.17075319168E+03  0.80710885115E+02 0.  0.
          5    1    5    5  501    0 -0.12111534262E+03  0.38569400930E+02 -0.10252463333E+03  0.16337048493E+03  0.47000000000E+01 0. -1.
        -11    1    6    6    0    0 -0.39971542484E+02 -0.49616115980E+02 -0.33892176832E+02  0.72167602315E+02  0.00000000000E+00 0.  1.
         12    1    6    6    0    0 -0.15506030837E+01 -0.94765528074E+01 -0.98116813067E+02  0.98585589360E+02  0.00000000000E+00 0. -1.
         -5    1    3    3    0  503  0.96788444369E+02  0.53718248867E+02 -0.14422601746E+01  0.11080533985E+03  0.47000000000E+01 0.  1.
         11    1    4    4    0    0  0.15087487174E+02  0.24934451967E+02 -0.45281657873E+02  0.53849676915E+02  0.00000000000E+00 0. -1.
        -12    1    4    4    0    0  0.50761556648E+02 -0.58129432976E+02 -0.52816622230E+02  0.93516641274E+02  0.00000000000E+00 0.  1.
<mgrwt>
<rscale>  2 0.23815194E+03</rscale>
<asrwt>0</asrwt>
<pdfrwt beam="1">  1       21 0.19863167E-01 0.23821059E+03</pdfrwt>
<pdfrwt beam="2">  1       21 0.71259192E-01 0.23821059E+03</pdfrwt>
<totfact> 0.40739218E+04</totfact>
</mgrwt>
</event>
<event>
12    1  0.1074575E-001  0.2726390E+03  0.7546771E-02  0.1099832E+00
         21   -1    0    0  501  502  0.00000000000E+00  0.00000000000E+00  0.20517600043E+03  0.20517600043E+03  0.00000000000E+00 0. -1.
         21   -1    0    0  502  503 -0.00000000000E+00 -0.00000000000E+00 -0.39790580526E+03  0.39790580526E+03  0.00000000000E+00 0. -1.
         -6    2    1    2    0  503 -0.18624691757E+03  0.98890851991E+02 -0.18728357910E+03  0.33076757092E+03  0.17281415469E+03 0.  0.
        -24    2    3    3    0    0 -0.50640724418E+02  0.18361747168E+01 -0.26166177096E+02  0.98841812909E+02  0.80729057025E+02 0.  0.
          6    2    1    2  501    0  0.18624691757E+03 -0.98890851991E+02 -0.54462257346E+01  0.27231423477E+03  0.17221517405E+03 0.  0.
         24    2    5    5    0    0  0.25222133303E+02 -0.40979827089E+02  0.23804765583E+02  0.98646798431E+02  0.82758816688E+02 0.  0.
          5    1    5    5  501    0  0.16102478426E+03 -0.57911024902E+02 -0.29250991317E+02  0.17366743634E+03  0.47000000000E+01 0. -1.
        -13    1    6    6    0    0 -0.10683130567E+02 -0.36310108451E+02 -0.19190847973E+02  0.42436327602E+02  0.00000000000E+00 0.  1.
         14    1    6    6    0    0  0.35905263870E+02 -0.46697186376E+01  0.42995613556E+02  0.56210470829E+02  0.00000000000E+00 0. -1.
         -5    1    3    3    0  503 -0.13560619315E+03  0.97054677274E+02 -0.16111740200E+03  0.23192575801E+03  0.47000000000E+01 0.  1.
         13    1    4    4    0    0 -0.35635786211E+02 -0.17770916471E+02 -0.50408828993E+02  0.64239900152E+02  0.00000000000E+00 0. -1.
        -14    1    4    4    0    0 -0.15004938207E+02  0.19607091188E+02  0.24242651897E+02  0.34601912757E+02  0.00000000000E+00 0.  1.
<mgrwt>
<rscale>  2 0.27254417E+03</rscale>
<asrwt>0</asrwt>
<pdfrwt beam="1">  1       21 0.31565539E-01 0.27263904E+03</pdfrwt>
<pdfrwt beam="2">  1       21 0.61216278E-01 0.27263904E+03</pdfrwt>
<totfact> 0.22991108E+04</totfact>
</mgrwt>
</event>
<event>
12    1  0.1074575E-001  0.1872138E+03  0.7546771E-02  0.1161087E+00
         21   -1    0    0  503  502  0.00000000000E+00  0.00000000000E+00  0.27123472976E+03  0.27123472976E+03  0.00000000000E+00 0.  1.
         21   -1    0    0  501  503 -0.00000000000E+00 -0.00000000000E+00 -0.19499906819E+03  0.19499906819E+03  0.00000000000E+00 0. -1.
          6    2    1    2  501    0  0.14007794530E+02  0.67688608673E+02 -0.97576227779E+02  0.21077425450E+03  0.17357044703E+03 0.  0.
         24    2    3    3    0    0  0.74817767168E+02  0.36160638706E+02 -0.75834419813E+02  0.13875577162E+03  0.81222009672E+02 0.  0.
         -6    2    1    2    0  502 -0.14007794530E+02 -0.67688608673E+02  0.17381188935E+03  0.25545954344E+03  0.17398574483E+03 0.  0.
        -24    2    5    5    0    0 -0.44675244032E+02  0.19443746784E+02  0.93647555895E+02  0.13306285156E+03  0.81005685112E+02 0.  0.
          5    1    3    3  501    0 -0.60809972638E+02  0.31527969967E+02 -0.21741807967E+02  0.72018482879E+02  0.47000000000E+01 0. -1.
        -13    1    4    4    0    0 -0.96241914328E+01 -0.77941263701E+01 -0.31291812097E+02  0.33653394642E+02  0.00000000000E+00 0.  1.
         14    1    4    4    0    0  0.84441958601E+02  0.43954765076E+02 -0.44542607715E+02  0.10510237698E+03  0.00000000000E+00 0. -1.
         -5    1    5    5    0  502  0.30667449502E+02 -0.87132355457E+02  0.80164333455E+02  0.12239669189E+03  0.47000000000E+01 0.  1.
         13    1    6    6    0    0  0.17846346082E+02  0.18899490648E+02  0.51413827226E+02  0.57611322197E+02  0.00000000000E+00 0. -1.
        -14    1    6    6    0    0 -0.62521590115E+02  0.54425613614E+00  0.42233728669E+02  0.75451529358E+02  0.00000000000E+00 0.  1.
<mgrwt>
<rscale>  2 0.18711725E+03</rscale>
<asrwt>0</asrwt>
<pdfrwt beam="1">  1       21 0.41728420E-01 0.18721380E+03</pdfrwt>
<pdfrwt beam="2">  1       21 0.29999857E-01 0.18721380E+03</pdfrwt>
<totfact> 0.59058140E+04</totfact>
</mgrwt>
</event>
<event>
12    1  0.1074575E-001  0.2367926E+03  0.7546771E-02  0.1122152E+00
         21   -1    0    0  503  502  0.00000000000E+00  0.00000000000E+00  0.26619174146E+03  0.26619174146E+03  0.00000000000E+00 0.  1.
         21   -1    0    0  501  503 -0.00000000000E+00 -0.00000000000E+00 -0.34843631266E+03  0.34843631266E+03  0.00000000000E+00 0.  1.
          6    2    1    2  501    0  0.15865324792E+03  0.20309266533E+02 -0.23518839240E+03  0.33374291446E+03  0.17460651090E+03 0.  0.
         24    2    3    3    0    0  0.17283015260E+03  0.36114253392E+02 -0.24292113306E+03  0.31066332361E+03  0.79539441814E+02 0.  0.
         -6    2    1    2    0  502 -0.15865324792E+03 -0.20309266533E+02  0.15294382120E+03  0.28088513967E+03  0.17297783054E+03 0.  0.
        -24    2    5    5    0    0 -0.75409839064E+02 -0.31549279484E+02  0.12665681890E+02  0.11731298623E+03  0.83186034752E+02 0.  0.
          5    1    3    3  501    0 -0.14176904677E+02 -0.15804986859E+02  0.77327406560E+01  0.23079590852E+02  0.47000000000E+01 0. -1.
        -13    1    4    4    0    0  0.26699106049E+02 -0.23152495932E+02 -0.54592913212E+02  0.65032810986E+02  0.00000000000E+00 0.  1.
         14    1    4    4    0    0  0.14613104655E+03  0.59266749325E+02 -0.18832821984E+03  0.24563051262E+03  0.00000000000E+00 0. -1.
         -5    1    5    5    0  502 -0.83243408856E+02  0.11240012951E+02  0.14027813931E+03  0.16357215343E+03  0.47000000000E+01 0.  1.
         13    1    6    6    0    0 -0.58705437594E+01  0.20809659089E+02 -0.14607174178E+02  0.26093576468E+02  0.00000000000E+00 0. -1.
        -14    1    6    6    0    0 -0.69539295305E+02 -0.52358938573E+02  0.27272856069E+02  0.91219409766E+02  0.00000000000E+00 0.  1.
<mgrwt>
<rscale>  2 0.23649247E+03</rscale>
<asrwt>0</asrwt>
<pdfrwt beam="1">  1       21 0.40952576E-01 0.23679264E+03</pdfrwt>
<pdfrwt beam="2">  1       21 0.53605586E-01 0.23679264E+03</pdfrwt>
<totfact> 0.18441938E+04</totfact>
</mgrwt>
</event>
<event>
12    1  0.1074575E-001  0.2031053E+03  0.7546771E-02  0.1147285E+00
         21   -1    0    0  501  502  0.00000000000E+00  0.00000000000E+00  0.25947539881E+03  0.25947539881E+03  0.00000000000E+00 0. -1.
         21   -1    0    0  502  503 -0.00000000000E+00 -0.00000000000E+00 -0.15845596742E+03  0.15845596742E+03  0.00000000000E+00 0. -1.
         -6    2    1    2    0  503 -0.10373619817E+03  0.18918613961E+02  0.51424856648E+02  0.20885865650E+03  0.17279557214E+03 0.  0.
        -24    2    3    3    0    0 -0.12803027121E+03 -0.22906145312E+02  0.47265077142E+02  0.16008462408E+03  0.80477683305E+02 0.  0.
          6    2    1    2  501    0  0.10373619817E+03 -0.18918613961E+02  0.49594574736E+02  0.20907270972E+03  0.17358762440E+03 0.  0.
         24    2    5    5    0    0  0.33026990229E+02 -0.73603460666E+02  0.30022408069E+02  0.11744638024E+03  0.79900286235E+02 0.  0.
          5    1    5    5  501    0  0.70709207937E+02  0.54684846705E+02  0.19572166667E+02  0.91626329481E+02  0.47000000000E+01 0. -1.
        -11    1    6    6    0    0  0.43581854612E+02 -0.13910452485E+02 -0.72006097745E+01  0.46311202974E+02  0.00000000000E+00 0.  1.
         12    1    6    6    0    0 -0.10554864383E+02 -0.59693008181E+02  0.37223017843E+02  0.71135177270E+02  0.00000000000E+00 0. -1.
         -5    1    3    3    0  503  0.24294073044E+02  0.41824759273E+02  0.41597795059E+01  0.48774032424E+02  0.47000000000E+01 0.  1.
         13    1    4    4    0    0 -0.38258752760E+02 -0.77011085620E+01 -0.22798639917E+02  0.45197535529E+02  0.00000000000E+00 0. -1.
        -14    1    4    4    0    0 -0.89771518450E+02 -0.15205036750E+02  0.70063717059E+02  0.11488708855E+03  0.00000000000E+00 0.  1.
<mgrwt>
<rscale>  2 0.20293599E+03</rscale>
<asrwt>0</asrwt>
<pdfrwt beam="1">  1       21 0.39919292E-01 0.20310533E+03</pdfrwt>
<pdfrwt beam="2">  1       21 0.24377841E-01 0.20310533E+03</pdfrwt>
<totfact> 0.95709731E+04</totfact>
</mgrwt>
</event>
<event>
12    1  0.1074575E-001  0.2288082E+03  0.7546771E-02  0.1127729E+00
         21   -1    0    0  501  502  0.00000000000E+00  0.00000000000E+00  0.35085514678E+02  0.35085514678E+02  0.00000000000E+00 0. -1.
         21   -1    0    0  502  503 -0.00000000000E+00 -0.00000000000E+00 -0.15085535699E+04  0.15085535699E+04  0.00000000000E+00 0.  1.
         -6    2    1    2    0  503  0.28843052340E+02  0.14600429502E+03 -0.83919091714E+03  0.86982445138E+03  0.17379299458E+03 0.  0.
        -24    2    3    3    0    0  0.80881099187E+02  0.13027715352E+03 -0.67520437577E+03  0.69699801517E+03  0.79946201672E+02 0.  0.
          6    2    1    2  501    0 -0.28843052340E+02 -0.14600429502E+03 -0.63427713805E+03  0.67381463317E+03  0.17195783259E+03 0.  0.
         24    2    5    5    0    0  0.26551492498E+02 -0.12511463098E+03 -0.54863179389E+03  0.56959300088E+03  0.84146828479E+02 0.  0.
          5    1    5    5  501    0 -0.55394544838E+02 -0.20889664038E+02 -0.85645344159E+02  0.10422163229E+03  0.47000000000E+01 0. -1.
        -11    1    6    6    0    0 -0.12887672938E+02 -0.79574205067E+02 -0.19728302042E+03  0.21311672006E+03  0.00000000000E+00 0.  1.
         12    1    6    6    0    0  0.39439165435E+02 -0.45540425918E+02 -0.35134877347E+03  0.35647628082E+03  0.00000000000E+00 0. -1.
         -5    1    3    3    0  503 -0.52038046847E+02  0.15727141503E+02 -0.16398654137E+03  0.17282643620E+03  0.47000000000E+01 0.  1.
         13    1    4    4    0    0  0.84329909712E+01 -0.95110176835E+01 -0.93598345226E+02  0.94457530262E+02  0.00000000000E+00 0. -1.
        -14    1    4    4    0    0  0.72448108216E+02  0.13978817120E+03 -0.58160603054E+03  0.60254048491E+03  0.00000000000E+00 0.  1.
<mgrwt>
<rscale>  2 0.22845968E+03</rscale>
<asrwt>0</asrwt>
<pdfrwt beam="1">  1       21 0.53977724E-02 0.22880817E+03</pdfrwt>
<pdfrwt beam="2">  1       21 0.23208513E+00 0.22880817E+03</pdfrwt>
<totfact> 0.19503489E+04</totfact>
</mgrwt>
</event>
<event>
12    1  0.1074575E-001  0.3486036E+03  0.7546771E-02  0.1063242E+00
         21   -1    0    0  503  502  0.00000000000E+00  0.00000000000E+00  0.76578694944E+03  0.76578694944E+03  0.00000000000E+00 0.  1.
         21   -1    0    0  501  503 -0.00000000000E+00 -0.00000000000E+00 -0.22752477599E+03  0.22752477599E+03  0.00000000000E+00 0. -1.
          6    2    1    2  501    0 -0.12082188885E+03 -0.27743733474E+03 -0.43644131199E+01  0.34863096161E+03  0.17307540483E+03 0.  0.
         24    2    3    3    0    0 -0.12678162010E+03 -0.13710330940E+03  0.38453011698E+02  0.20171404994E+03  0.65871292623E+02 0.  0.
         -6    2    1    2    0  502  0.12082188885E+03  0.27743733474E+03  0.54262658657E+03  0.64468076382E+03  0.17204729364E+03 0.  0.
        -24    2    5    5    0    0  0.13386204483E+03  0.18691277167E+03  0.46359142481E+03  0.52371221839E+03  0.80635273151E+02 0.  0.
          5    1    3    3  501    0  0.59597312502E+01 -0.14033402535E+03 -0.42817424818E+02  0.14691691167E+03  0.47000000000E+01 0. -1.
        -13    1    4    4    0    0 -0.75986136868E+02 -0.41470071834E+02 -0.69479387548E+00  0.86568716016E+02  0.00000000000E+00 0.  1.
         14    1    4    4    0    0 -0.50795483236E+02 -0.95633237564E+02  0.39147805574E+02  0.11514533393E+03  0.00000000000E+00 0. -1.
         -5    1    5    5    0  502 -0.13040155976E+02  0.90524563077E+02  0.79035161757E+02  0.12096854542E+03  0.47000000000E+01 0.  1.
         11    1    6    6    0    0  0.92893617009E+02  0.68143394357E+02  0.18250918059E+03  0.21582944024E+03  0.00000000000E+00 0. -1.
        -12    1    6    6    0    0  0.40968427822E+02  0.11876937731E+03  0.28108224423E+03  0.30788277816E+03  0.00000000000E+00 0.  1.
<mgrwt>
<rscale>  2 0.34847625E+03</rscale>
<asrwt>0</asrwt>
<pdfrwt beam="1">  1       21 0.11781338E+00 0.34860364E+03</pdfrwt>
<pdfrwt beam="2">  1       21 0.35003812E-01 0.34860364E+03</pdfrwt>
<totfact> 0.39472087E+03</totfact>
</mgrwt>
</event>
<event>
12    1  0.1074575E-001  0.1894269E+03  0.7546771E-02  0.1159520E+00
         21   -1    0    0  503  502  0.00000000000E+00  0.00000000000E+00  0.84440034687E+03  0.84440034687E+03  0.00000000000E+00 0.  1.
         21   -1    0    0  501  503 -0.00000000000E+00 -0.00000000000E+00 -0.53931056165E+02  0.53931056165E+02  0.00000000000E+00 0.  1.
          6    2    1    2  501    0 -0.46305422401E+01  0.70780585025E+02  0.18172056340E+03  0.26079114725E+03  0.17308473701E+03 0.  0.
         24    2    3    3    0    0 -0.21178158809E+01  0.11593228209E+03  0.14572531305E+03  0.20280203113E+03  0.80299550379E+02 0.  0.
         -6    2    1    2    0  502  0.46305422401E+01 -0.70780585025E+02  0.60874872730E+03  0.63754025578E+03  0.17564518669E+03 0.  0.
        -24    2    5    5    0    0  0.28291729364E+02  0.20843594061E+01  0.48170712455E+03  0.48911245942E+03  0.79902926160E+02 0.  0.
          5    1    3    3  501    0 -0.25127263592E+01 -0.45151697064E+02  0.35995250345E+02  0.57989116125E+02  0.47000000000E+01 0. -1.
        -13    1    4    4    0    0 -0.32067603429E+02  0.10146989603E+03  0.12232861780E+03  0.16213809460E+03  0.00000000000E+00 0.  1.
         14    1    4    4    0    0  0.29949787549E+02  0.14462386061E+02  0.23396695256E+02  0.40663936525E+02  0.00000000000E+00 0. -1.
         -5    1    5    5    0  502 -0.23661187123E+02 -0.72864944431E+02  0.12704160275E+03  0.14842779636E+03  0.47000000000E+01 0.  1.
         13    1    6    6    0    0  0.52026333524E+02  0.17074618988E+02  0.26526851123E+03  0.27086096995E+03  0.00000000000E+00 0. -1.
        -14    1    6    6    0    0 -0.23734604160E+02 -0.14990259582E+02  0.21643861332E+03  0.21825148946E+03  0.00000000000E+00 0.  1.
<mgrwt>
<rscale>  2 0.18883121E+03</rscale>
<asrwt>0</asrwt>
<pdfrwt beam="1">  1       21 0.12990774E+00 0.18942694E+03</pdfrwt>
<pdfrwt beam="2">  1       21 0.82970862E-02 0.18942694E+03</pdfrwt>
<totfact> 0.48849185E+04</totfact>
</mgrwt>
</event>
<event>
12    1  0.1074575E-001  0.2339304E+03  0.7546771E-02  0.1123912E+00
         21   -1    0    0  501  502  0.00000000000E+00  0.00000000000E+00  0.94242733855E+02  0.94242733855E+02  0.00000000000E+00 0. -1.
         21   -1    0    0  502  503 -0.00000000000E+00 -0.00000000000E+00 -0.16646616586E+04  0.16646616586E+04  0.00000000000E+00 0.  1.
         -6    2    1    2    0  503 -0.34705876170E+02  0.15306789789E+03 -0.14949629698E+04  0.15131548903E+04  0.17346227723E+03 0.  0.
        -24    2    3    3    0    0  0.27475771388E+02  0.60704916147E+02 -0.42729284127E+03  0.43968431728E+03  0.79392202401E+02 0.  0.
          6    2    1    2  501    0  0.34705876170E+02 -0.15306789789E+03 -0.75455954888E+02  0.24574950214E+03  0.17339243776E+03 0.  0.
         24    2    5    5    0    0  0.86607464462E+02 -0.12161404120E+03 -0.60929967278E+02  0.18316983864E+03  0.86878656518E+02 0.  0.
          5    1    5    5  501    0 -0.51901588293E+02 -0.31453856686E+02 -0.14525987610E+02  0.62579663500E+02  0.47000000000E+01 0. -1.
        -13    1    6    6    0    0  0.70274551589E+02 -0.32720679603E+02 -0.67944876515E+01  0.77815940123E+02  0.00000000000E+00 0.  1.
         14    1    6    6    0    0  0.16332912873E+02 -0.88893361598E+02 -0.54135479627E+02  0.10535389852E+03  0.00000000000E+00 0. -1.
         -5    1    3    3    0  503 -0.62181647557E+02  0.92362981741E+02 -0.10676701286E+04  0.10734705730E+04  0.47000000000E+01 0.  1.
         11    1    4    4    0    0 -0.20395948761E+01 -0.12646055640E+02 -0.17084298016E+03  0.17132252199E+03  0.00000000000E+00 0. -1.
        -12    1    4    4    0    0  0.29515366264E+02  0.73350971788E+02 -0.25644986111E+03  0.26836179529E+03  0.00000000000E+00 0.  1.
<mgrwt>
<rscale>  2 0.23391747E+03</rscale>
<asrwt>0</asrwt>
<pdfrwt beam="1">  1       21 0.14498882E-01 0.23393042E+03</pdfrwt>
<pdfrwt beam="2">  1       21 0.25610180E+00 0.23393042E+03</pdfrwt>
<totfact> 0.24467192E+03</totfact>
</mgrwt>
</event>
<event>
12    1  0.1074575E-001  0.2241672E+03  0.7546771E-02  0.1130963E+00
         21   -1    0    0  503  502  0.00000000000E+00  0.00000000000E+00  0.26230510647E+03  0.26230510647E+03  0.00000000000E+00 0.  1.
         21   -1    0    0  501  503 -0.00000000000E+00 -0.00000000000E+00 -0.40649639687E+03  0.40649639687E+03  0.00000000000E+00 0.  1.
          6    2    1    2  501    0 -0.94554889893E+02 -0.10634583815E+03 -0.31558181432E+03  0.38662131487E+03  0.17214556366E+03 0.  0.
         24    2    3    3    0    0 -0.40635983456E+02 -0.60374369314E+02 -0.29209382867E+03  0.31182559381E+03  0.81363681027E+02 0.  0.
         -6    2    1    2    0  502  0.94554889893E+02  0.10634583815E+03  0.17139052393E+03  0.28218018847E+03  0.17320762853E+03 0.  0.
        -24    2    5    5    0    0  0.10734233142E+03  0.94469780830E+02  0.19321983593E+03  0.25383996510E+03  0.81571485701E+02 0.  0.
          5    1    3    3  501    0 -0.53918906437E+02 -0.45971468832E+02 -0.23487985652E+02  0.74795721053E+02  0.47000000000E+01 0. -1.
        -13    1    4    4    0    0 -0.43594414403E+02 -0.69661595904E+02 -0.16473790447E+03  0.18409722454E+03  0.00000000000E+00 0.  1.
         14    1    4    4    0    0  0.29584309476E+01  0.92872265902E+01 -0.12735592419E+03  0.12772836928E+03  0.00000000000E+00 0. -1.
         -5    1    5    5    0  502 -0.12787441531E+02  0.11876057316E+02 -0.21829312004E+02  0.28340223373E+02  0.47000000000E+01 0.  1.
         11    1    6    6    0    0  0.54823254394E+02  0.78832377205E+01  0.10844637108E+03  0.12177171289E+03  0.00000000000E+00 0. -1.
        -12    1    6    6    0    0  0.52519077029E+02  0.86586543109E+02  0.84773464852E+02  0.13206825221E+03  0.00000000000E+00 0.  1.
<mgrwt>
<rscale>  2 0.22396205E+03</rscale>
<asrwt>0</asrwt>
<pdfrwt beam="1">  1       21 0.40354632E-01 0.22416723E+03</pdfrwt>
<pdfrwt beam="2">  1       21 0.62537907E-01 0.22416723E+03</pdfrwt>
<totfact> 0.13750112E+04</totfact>
</mgrwt>
</event>
<event>
12    1  0.1074575E-001  0.1968180E+03  0.7546771E-02  0.1154354E+00
         21   -1    0    0  503  502  0.00000000000E+00  0.00000000000E+00  0.56662661430E+02  0.56662661430E+02  0.00000000000E+00 0. -1.
         21   -1    0    0  501  503 -0.00000000000E+00 -0.00000000000E+00 -0.69097428435E+03  0.69097428435E+03  0.00000000000E+00 0.  1.
          6    2    1    2  501    0  0.17043660513E+02  0.70484418216E+02 -0.41030659242E+03  0.45507011789E+03  0.18297205480E+03 0.  0.
         24    2    3    3    0    0  0.81123032618E+02  0.41974519906E+02 -0.29576432331E+03  0.32067889182E+03  0.83759238149E+02 0.  0.
         -6    2    1    2    0  502 -0.17043660513E+02 -0.70484418216E+02 -0.22400503050E+03  0.29256682789E+03  0.17366218793E+03 0.  0.
        -24    2    5    5    0    0  0.52703940034E+02 -0.68966796230E+02 -0.12289730084E+03  0.16963638433E+03  0.78349422814E+02 0.  0.
          5    1    3    3  501    0 -0.64079372105E+02  0.28509898310E+02 -0.11454226911E+03  0.13439122607E+03  0.47000000000E+01 0. -1.
        -13    1    4    4    0    0  0.42181944780E+02  0.62250466329E+02 -0.22665630875E+03  0.23880435365E+03  0.00000000000E+00 0.  1.
         14    1    4    4    0    0  0.38941087838E+02 -0.20275946423E+02 -0.69108014553E+02  0.81874538171E+02  0.00000000000E+00 0. -1.
         -5    1    5    5    0  502 -0.69747600548E+02 -0.15176219856E+01 -0.10110772966E+03  0.12293044356E+03  0.47000000000E+01 0.  1.
         11    1    6    6    0    0 -0.15459702873E+02  0.40215917161E+01 -0.97287321731E+01  0.18703578335E+02  0.00000000000E+00 0. -1.
        -12    1    6    6    0    0  0.68163642907E+02 -0.72988387946E+02 -0.11316856867E+03  0.15093280599E+03  0.00000000000E+00 0.  1.
<mgrwt>
<rscale>  2 0.19462569E+03</rscale>
<asrwt>0</asrwt>
<pdfrwt beam="1">  1       21 0.87173322E-02 0.19681797E+03</pdfrwt>
<pdfrwt beam="2">  1       21 0.10630374E+00 0.19681797E+03</pdfrwt>
<totfact> 0.73122707E+04</totfact>
</mgrwt>
</event>
<event>
12    1  0.1074575E-001  0.2390483E+03  0.7546771E-02  0.1121008E+00
         21   -1    0    0  501  502  0.00000000000E+00  0.00000000000E+00  0.10824042094E+03  0.10824042094E+03  0.00000000000E+00 0. -1.
         21   -1    0    0  502  503 -0.00000000000E+00 -0.00000000000E+00 -0.11405176538E+04  0.11405176538E+04  0.00000000000E+00 0. -1.
         -6    2    1    2    0  503 -0.16068382201E+03  0.20294786273E+02 -0.97483622096E+03  0.10029054032E+04  0.17112107162E+03 0.  0.
        -24    2    3    3    0    0 -0.14181232908E+02 -0.19947984943E+02 -0.35414040954E+03  0.36386873014E+03  0.79912412290E+02 0.  0.
          6    2    1    2  501    0  0.16068382201E+03 -0.20294786273E+02 -0.57441011906E+02  0.24585267151E+03  0.17582063938E+03 0.  0.
         24    2    5    5    0    0  0.16140472646E+03 -0.47749489304E+02 -0.54313985458E+01  0.18684953342E+03  0.80942872430E+02 0.  0.
          5    1    5    5  501    0 -0.72090445252E+00  0.27454703031E+02 -0.52009613360E+02  0.59003138082E+02  0.47000000000E+01 0. -1.
        -11    1    6    6    0    0  0.49665110036E+02 -0.51512771974E+02  0.15217491818E+02  0.73155730388E+02  0.00000000000E+00 0.  1.
         12    1    6    6    0    0  0.11173961643E+03  0.37632826700E+01 -0.20648890363E+02  0.11369380304E+03  0.00000000000E+00 0. -1.
         -5    1    3    3    0  503 -0.14650258910E+03  0.40242771217E+02 -0.62069581143E+03  0.63903667310E+03  0.47000000000E+01 0.  1.
         13    1    4    4    0    0 -0.15075719345E+02 -0.10932292407E+02 -0.13243181383E+02  0.22851130917E+02  0.00000000000E+00 0. -1.
        -14    1    4    4    0    0  0.89448643695E+00 -0.90156925360E+01 -0.34089722815E+03  0.34101759922E+03  0.00000000000E+00 0.  1.
<mgrwt>
<rscale>  2 0.23818483E+03</rscale>
<asrwt>0</asrwt>
<pdfrwt beam="1">  1       21 0.16652372E-01 0.23904825E+03</pdfrwt>
<pdfrwt beam="2">  1       21 0.17546426E+00 0.23904825E+03</pdfrwt>
<totfact> 0.61063268E+03</totfact>
</mgrwt>
</event>
<event>
12    1  0.1074575E-001  0.2367076E+03  0.7546771E-02  0.1122086E+00
         21   -1    0    0  501  502  0.00000000000E+00  0.00000000000E+00  0.94720807006E+02  0.94720807006E+02  0.00000000000E+00 0. -1.
         21   -1    0    0  502  503 -0.00000000000E+00 -0.00000000000E+00 -0.64643808116E+03  0.64643808116E+03  0.00000000000E+00 0. -1.
         -6    2    1    2    0  503 -0.74515867337E+02 -0.14355730508E+03 -0.38527295751E+03  0.45217887341E+03  0.17282698703E+03 0.  0.
        -24    2    3    3    0    0 -0.24310705358E+02 -0.14648423635E+03 -0.22479779098E+03  0.28394244963E+03  0.89669537623E+02 0.  0.
          6    2    1    2  501    0  0.74515867337E+02  0.14355730508E+03 -0.16644431665E+03  0.28898001476E+03  0.17217556173E+03 0.  0.
         24    2    5    5    0    0  0.90742989695E+02  0.38839161823E+02 -0.58236701009E+02  0.13745382194E+03  0.75889848809E+02 0.  0.
          5    1    5    5  501    0 -0.16227122357E+02  0.10471814325E+03 -0.10820761564E+03  0.15152619282E+03  0.47000000000E+01 0. -1.
        -13    1    6    6    0    0  0.30121085845E+02 -0.72319781020E+01  0.12614251271E+02  0.33446982747E+02  0.00000000000E+00 0.  1.
         14    1    6    6    0    0  0.60621903850E+02  0.46071139925E+02 -0.70850952280E+02  0.10400683920E+03  0.00000000000E+00 0. -1.
         -5    1    3    3    0  503 -0.50205161979E+02  0.29269312694E+01 -0.16047516652E+03  0.16823642378E+03  0.47000000000E+01 0.  1.
         13    1    4    4    0    0 -0.31681815776E+02 -0.94277642675E+02 -0.20457876117E+03  0.22747413233E+03  0.00000000000E+00 0. -1.
        -14    1    4    4    0    0  0.73711104186E+01 -0.52206593671E+02 -0.20219029813E+02  0.56468317295E+02  0.00000000000E+00 0.  1.
<mgrwt>
<rscale>  2 0.23658870E+03</rscale>
<asrwt>0</asrwt>
<pdfrwt beam="1">  1       21 0.14572432E-01 0.23670759E+03</pdfrwt>
<pdfrwt beam="2">  1       21 0.99452012E-01 0.23670759E+03</pdfrwt>
<totfact> 0.33603928E+04</totfact>
</mgrwt>
</event>
<event>
12    1  0.1074575E-001  0.1765088E+03  0.7546771E-02  0.1171339E+00
         21   -1    0    0  503  502  0.00000000000E+00  0.00000000000E+00  0.13224103072E+03  0.13224103072E+03  0.00000000000E+00 0. -1.
         21   -1    0    0  501  503 -0.00000000000E+00 -0.00000000000E+00 -0.26630574984E+03  0.26630574984E+03  0.00000000000E+00 0. -1.
          6    2    1    2  501    0 -0.18235221934E+02 -0.31652632196E+02 -0.13529626390E+03  0.22203365102E+03  0.17221919380E+03 0.  0.
         24    2    3    3    0    0  0.16469585868E+02  0.43151382272E+02 -0.71854097438E+02  0.11788441794E+03  0.81243065077E+02 0.  0.
         -6    2    1    2    0  502  0.18235221934E+02  0.31652632196E+02  0.12315447882E+01  0.17651312955E+03  0.17268745107E+03 0.  0.
        -24    2    5    5    0    0  0.59865538967E+02  0.11996656547E+02  0.47026413900E+02  0.11140782476E+03  0.80451334910E+02 0.  0.
          5    1    3    3  501    0 -0.34704807802E+02 -0.74804014468E+02 -0.63442166466E+02  0.10414923308E+03  0.47000000000E+01 0. -1.
        -11    1    4    4    0    0  0.21671121360E+02 -0.13030531888E+02  0.15111916945E+01  0.25332113268E+02  0.00000000000E+00 0.  1.
         12    1    4    4    0    0 -0.52015354918E+01  0.56181914160E+02 -0.73365289133E+02  0.92552304670E+02  0.00000000000E+00 0. -1.
         -5    1    5    5    0  502 -0.41630317032E+02  0.19655975648E+02 -0.45794869111E+02  0.65105304790E+02  0.47000000000E+01 0.  1.
         13    1    6    6    0    0  0.27696878273E+02  0.42121777555E+02  0.44533869986E+02  0.67265346103E+02  0.00000000000E+00 0. -1.
        -14    1    6    6    0    0  0.32168660694E+02 -0.30125121008E+02  0.24925439138E+01  0.44142478654E+02  0.00000000000E+00 0.  1.
<mgrwt>
<rscale>  2 0.17639420E+03</rscale>
<asrwt>0</asrwt>
<pdfrwt beam="1">  1       21 0.20344774E-01 0.17650883E+03</pdfrwt>
<pdfrwt beam="2">  1       21 0.40970115E-01 0.17650883E+03</pdfrwt>
<totfact> 0.12900927E+05</totfact>
</mgrwt>
</event>
<event>
12    1  0.1074575E-001  0.3486140E+03  0.7546771E-02  0.1063221E+00
         21   -1    0    0  503  502  0.00000000000E+00  0.00000000000E+00  0.17516120529E+03  0.17516120529E+03  0.00000000000E+00 0.  1.
         21   -1    0    0  501  503 -0.00000000000E+00 -0.00000000000E+00 -0.10658593435E+04  0.10658593435E+04  0.00000000000E+00 0. -1.
          6    2    1    2  501    0  0.30195683020E+03 -0.29778861775E+02 -0.81242568787E+03  0.88406291669E+03  0.17165964711E+03 0.  0.
         24    2    3    3    0    0  0.17699144983E+03  0.49511876483E+02 -0.47583486898E+03  0.51634177666E+03  0.80078764748E+02 0.  0.
         -6    2    1    2    0  502 -0.30195683020E+03  0.29778861775E+02 -0.78272450357E+02  0.35695763212E+03  0.17096042446E+03 0.  0.
        -24    2    5    5    0    0 -0.20944260750E+03  0.31720931258E+02 -0.12146419724E+03  0.25473106985E+03  0.72539254320E+02 0.  0.
          5    1    3    3  501    0  0.12496538037E+03 -0.79290738258E+02 -0.33659081889E+03  0.36772114003E+03  0.47000000000E+01 0. -1.
        -13    1    4    4    0    0  0.99642692208E+01  0.25634137044E+02 -0.36353139362E+02  0.45584497195E+02  0.00000000000E+00 0.  1.
         14    1    4    4    0    0  0.16702718060E+03  0.23877739440E+02 -0.43948172962E+03  0.47075727946E+03  0.00000000000E+00 0. -1.
         -5    1    5    5    0  502 -0.92514222699E+02 -0.19420694832E+01  0.43191746886E+02  0.10222656228E+03  0.47000000000E+01 0.  1.
         11    1    6    6    0    0 -0.18139939900E+03  0.37815722954E+00 -0.92131782071E+02  0.20345552395E+03  0.00000000000E+00 0. -1.
        -12    1    6    6    0    0 -0.28043208504E+02  0.31342774029E+02 -0.29332415173E+02  0.51275545895E+02  0.00000000000E+00 0.  1.
<mgrwt>
<rscale>  2 0.34852806E+03</rscale>
<asrwt>0</asrwt>
<pdfrwt beam="1">  1       21 0.26947878E-01 0.34861403E+03</pdfrwt>
<pdfrwt beam="2">  1       21 0.16397836E+00 0.34861403E+03</pdfrwt>
<totfact> 0.27736443E+03</totfact>
</mgrwt>
</event>
<event>
12    1  0.1074575E-001  0.1893219E+03  0.7546771E-02  0.1159124E+00
         21   -1    0    0  503  502  0.00000000000E+00  0.00000000000E+00  0.15945563635E+03  0.15945563635E+03  0.00000000000E+00 0.  1.
         21   -1    0    0  501  503 -0.00000000000E+00 -0.00000000000E+00 -0.37406784060E+03  0.37406784060E+03  0.00000000000E+00 0.  1.
          6    2    1    2  501    0  0.19148490399E+02  0.73568330527E+02 -0.27601364791E+03  0.33470331208E+03  0.17338918462E+03 0.  0.
         24    2    3    3    0    0  0.26068159915E+02  0.74092884379E+02 -0.29384270726E+03  0.31500249127E+03  0.81937344484E+02 0.  0.
         -6    2    1    2    0  502 -0.19148490399E+02 -0.73568330527E+02  0.61401443659E+02  0.19882016487E+03  0.17314836625E+03 0.  0.
        -24    2    5    5    0    0  0.78159536736E+01 -0.31702727987E+02 -0.33833144126E+02  0.91249134245E+02  0.78202114839E+02 0.  0.
          5    1    3    3  501    0 -0.69196695158E+01 -0.52455385168E+00  0.17829059352E+02  0.19700820803E+02  0.47000000000E+01 0. -1.
        -13    1    4    4    0    0  0.35099595159E+02  0.29800977612E+01 -0.52374012189E+02  0.63118140940E+02  0.00000000000E+00 0.  1.
         14    1    4    4    0    0 -0.90314352437E+01  0.71112786618E+02 -0.24146869507E+03  0.25188435033E+03  0.00000000000E+00 0. -1.
         -5    1    5    5    0  502 -0.26964444073E+02 -0.41865602540E+02  0.95234587785E+02  0.10757103063E+03  0.47000000000E+01 0.  1.
         13    1    6    6    0    0  0.16371832002E+02 -0.56323003944E+02 -0.22371438645E+02  0.62775782937E+02  0.00000000000E+00 0. -1.
        -14    1    6    6    0    0 -0.85558783286E+01  0.24620275956E+02 -0.11461705481E+02  0.28473351307E+02  0.00000000000E+00 0.  1.
<mgrwt>
<rscale>  2 0.18926672E+03</rscale>
<asrwt>0</asrwt>
<pdfrwt beam="1">  1       21 0.24531636E-01 0.18932188E+03</pdfrwt>
<pdfrwt beam="2">  1       21 0.57548899E-01 0.18932188E+03</pdfrwt>
<totfact> 0.44561434E+04</totfact>
</mgrwt>
</event>
<event>
12    1  0.1074575E-001  0.1894436E+03  0.7546771E-02  0.1159074E+00
         21   -1    0    0  501  502  0.00000000000E+00  0.00000000000E+00  0.16977464818E+03  0.16977464818E+03  0.00000000000E+00 0.  1.
         21   -1    0    0  502  503 -0.00000000000E+00 -0.00000000000E+00 -0.21087597168E+03  0.21087597168E+03  0.00000000000E+00 0.  1.
         -6    2    1    2    0  503 -0.52613277417E+02  0.56561659745E+02 -0.18529241349E+02  0.18986703831E+03  0.17244935818E+03 0.  0.
        -24    2    3    3    0    0 -0.80364057406E+02  0.39067965211E+02  0.36191908332E+02  0.12589337685E+03  0.80960487134E+02 0.  0.
          6    2    1    2  501    0  0.52613277417E+02 -0.56561659745E+02 -0.22572082149E+02  0.19078358155E+03  0.17297831593E+03 0.  0.
         24    2    5    5    0    0 -0.10579995155E+02 -0.44295618597E+02  0.39987167930E+02  0.10089701284E+03  0.80667189594E+02 0.  0.
          5    1    5    5  501    0  0.63193272572E+02 -0.12266041148E+02 -0.62559250078E+02  0.89886568708E+02  0.47000000000E+01 0. -1.
        -11    1    6    6    0    0  0.30675687306E+02 -0.39679784158E+02  0.14599651554E+02  0.52236317711E+02  0.00000000000E+00 0.  1.
         12    1    6    6    0    0 -0.41255682461E+02 -0.46158344383E+01  0.25387516376E+02  0.48660695131E+02  0.00000000000E+00 0. -1.
         -5    1    3    3    0  503  0.27750779989E+02  0.17493694533E+02 -0.54721149681E+02  0.63973661462E+02  0.47000000000E+01 0.  1.
         11    1    4    4    0    0 -0.58104466931E+02  0.17350976290E+01  0.53601363414E+02  0.79071143921E+02  0.00000000000E+00 0. -1.
        -12    1    4    4    0    0 -0.22259590475E+02  0.37332867582E+02 -0.17409455082E+02  0.46822232927E+02  0.00000000000E+00 0.  1.
<mgrwt>
<rscale>  2 0.18932277E+03</rscale>
<asrwt>0</asrwt>
<pdfrwt beam="1">  1       21 0.26119177E-01 0.18944360E+03</pdfrwt>
<pdfrwt beam="2">  1       21 0.32442457E-01 0.18944360E+03</pdfrwt>
<totfact> 0.12748630E+05</totfact>
</mgrwt>
</event>
<event>
12    1  0.1074575E-001  0.1861403E+03  0.7546771E-02  0.1162717E+00
         21   -1    0    0  501  502  0.00000000000E+00  0.00000000000E+00  0.78167154294E+02  0.78167154294E+02  0.00000000000E+00 0.  1.
         21   -1    0    0  502  503 -0.00000000000E+00 -0.00000000000E+00 -0.44064955340E+03  0.44064955340E+03  0.00000000000E+00 0. -1.
         -6    2    1    2    0  503  0.58139942151E+02  0.65256588509E+01 -0.20672283335E+03  0.27610439805E+03  0.17342569503E+03 0.  0.
        -24    2    3    3    0    0 -0.21796420148E+02 -0.32494499238E+02 -0.11757891137E+03  0.15008406802E+03  0.84672608692E+02 0.  0.
          6    2    1    2  501    0 -0.58139942151E+02 -0.65256588509E+01 -0.15575956576E+03  0.24271230964E+03  0.17670706220E+03 0.  0.
         24    2    5    5    0    0 -0.13464197762E+02  0.46345550508E+02 -0.28904997903E+02  0.98125109997E+02  0.80398032532E+02 0.  0.
          5    1    5    5  501    0 -0.44675744389E+02 -0.52871209359E+02 -0.12685456785E+03  0.14458719964E+03  0.47000000000E+01 0. -1.
        -11    1    6    6    0    0 -0.28034825921E+02 -0.21195456731E+01 -0.37420889135E+02  0.46805628742E+02  0.00000000000E+00 0.  1.
         12    1    6    6    0    0  0.14570628159E+02  0.48465096181E+02  0.85158912325E+01  0.51319481255E+02  0.00000000000E+00 0. -1.
         -5    1    3    3    0  503  0.79936362299E+02  0.39020158089E+02 -0.89143921976E+02  0.12602033003E+03  0.47000000000E+01 0.  1.
         13    1    4    4    0    0 -0.43966378811E+02  0.30306588318E+01 -0.30912778671E+02  0.53831470757E+02  0.00000000000E+00 0. -1.
        -14    1    4    4    0    0  0.22169958663E+02 -0.35525158070E+02 -0.86666132701E+02  0.96252597265E+02  0.00000000000E+00 0.  1.
<mgrwt>
<rscale>  2 0.18535736E+03</rscale>
<asrwt>0</asrwt>
<pdfrwt beam="1">  1       21 0.12025716E-01 0.18614033E+03</pdfrwt>
<pdfrwt beam="2">  1       21 0.67792240E-01 0.18614033E+03</pdfrwt>
<totfact> 0.11650116E+05</totfact>
</mgrwt>
</event>
<event>
12    1  0.1074575E-001  0.3263545E+03  0.7546771E-02  0.1072821E+00
         21   -1    0    0  501  502  0.00000000000E+00  0.00000000000E+00  0.11999207887E+03  0.11999207887E+03  0.00000000000E+00 0.  1.
         21   -1    0    0  502  503 -0.00000000000E+00 -0.00000000000E+00 -0.88948578844E+03  0.88948578844E+03  0.00000000000E+00 0. -1.
         -6    2    1    2    0  503  0.27250303768E+03 -0.43619386283E+02 -0.41584416068E+03  0.52861484089E+03  0.17420312176E+03 0.  0.
        -24    2    3    3    0    0  0.17484256676E+03  0.37800675446E+02 -0.21726114762E+03  0.29276722672E+03  0.80693423281E+02 0.  0.
          6    2    1    2  501    0 -0.27250303768E+03  0.43619386283E+02 -0.35364954889E+03  0.48086302642E+03  0.17320707360E+03 0.  0.
         24    2    5    5    0    0 -0.24400887187E+03 -0.17805740947E+02 -0.28422712708E+03  0.38377272624E+03  0.81480498714E+02 0.  0.
          5    1    5    5  501    0 -0.28494165809E+02  0.61425127229E+02 -0.69422421808E+02  0.97090300185E+02  0.47000000000E+01 0. -1.
        -11    1    6    6    0    0 -0.10966302455E+03  0.21996917524E+02 -0.16746833191E+03  0.20138392569E+03  0.00000000000E+00 0.  1.
         12    1    6    6    0    0 -0.13434584733E+03 -0.39802658471E+02 -0.11675879517E+03  0.18238880055E+03  0.00000000000E+00 0. -1.
         -5    1    3    3    0  503  0.97660470919E+02 -0.81420061728E+02 -0.19858301307E+03  0.23584761417E+03  0.47000000000E+01 0.  1.
         11    1    4    4    0    0  0.14983817354E+03 -0.10633829884E+01 -0.17134331817E+03  0.22762060916E+03  0.00000000000E+00 0. -1.
        -12    1    4    4    0    0  0.25004393228E+02  0.38864058434E+02 -0.45917829447E+02  0.65146617562E+02  0.00000000000E+00 0.  1.
<mgrwt>
<rscale>  2 0.32622181E+03</rscale>
<asrwt>0</asrwt>
<pdfrwt beam="1">  1       21 0.18460320E-01 0.32635454E+03</pdfrwt>
<pdfrwt beam="2">  1       21 0.13684397E+00 0.32635454E+03</pdfrwt>
<totfact> 0.94082190E+03</totfact>
</mgrwt>
</event>
<event>
12    1  0.1074575E-001  0.1829050E+03  0.7546771E-02  0.1165127E+00
         21   -1    0    0  503  502  0.00000000000E+00  0.00000000000E+00  0.85910588093E+03  0.85910588093E+03  0.00000000000E+00 0.  1.
         21   -1    0    0  501  503 -0.00000000000E+00 -0.00000000000E+00 -0.39276620623E+02  0.39276620623E+02  0.00000000000E+00 0.  1.
          6    2    1    2  501    0  0.57650985147E+02  0.19338620830E+01  0.45747935733E+03  0.49268813244E+03  0.17357090065E+03 0.  0.
         24    2    3    3    0    0  0.53198835864E+02 -0.63146465710E+02  0.25558319770E+03  0.28046320466E+03  0.80741847587E+02 0.  0.
         -6    2    1    2    0  502 -0.57650985147E+02 -0.19338620830E+01  0.36234990298E+03  0.40569436911E+03  0.17309850673E+03 0.  0.
        -24    2    5    5    0    0 -0.36403644235E+02 -0.59056903669E+02  0.30063383067E+03  0.31882979085E+03  0.80366611257E+02 0.  0.
          5    1    3    3  501    0  0.44521492830E+01  0.65080327793E+02  0.20189615963E+03  0.21222492778E+03  0.47000000000E+01 0. -1.
        -13    1    4    4    0    0  0.54515847579E+02 -0.34932254006E+02  0.81428172473E+02  0.10403262603E+03  0.00000000000E+00 0.  1.
         14    1    4    4    0    0 -0.13170117149E+01 -0.28214211703E+02  0.17415502523E+03  0.17643057863E+03  0.00000000000E+00 0. -1.
         -5    1    5    5    0  502 -0.21247340912E+02  0.57123041586E+02  0.61716072308E+02  0.86864578264E+02  0.47000000000E+01 0.  1.
         11    1    6    6    0    0  0.44476570116E+01 -0.45007984353E+02  0.64498044619E+02  0.78774983771E+02  0.00000000000E+00 0. -1.
        -12    1    6    6    0    0 -0.40851301247E+02 -0.14048919316E+02  0.23613578605E+03  0.24005480708E+03  0.00000000000E+00 0.  1.
<mgrwt>
<rscale>  2 0.18279283E+03</rscale>
<asrwt>0</asrwt>
<pdfrwt beam="1">  1       21 0.13217012E+00 0.18290498E+03</pdfrwt>
<pdfrwt beam="2">  1       21 0.60425577E-02 0.18290498E+03</pdfrwt>
<totfact> 0.81128131E+04</totfact>
</mgrwt>
</event>
<event>
12    1  0.1074575E-001  0.1773795E+03  0.7546771E-02  0.1170502E+00
         21   -1    0    0  503  502  0.00000000000E+00  0.00000000000E+00  0.64720257051E+03  0.64720257051E+03  0.00000000000E+00 0. -1.
         21   -1    0    0  501  503 -0.00000000000E+00 -0.00000000000E+00 -0.12634484621E+03  0.12634484621E+03  0.00000000000E+00 0. -1.
          6    2    1    2  501    0 -0.26174901405E+01  0.32665769502E+02 -0.43082645369E+02  0.18253654293E+03  0.17432604917E+03 0.  0.
         24    2    3    3    0    0  0.62977342085E+02  0.12107600389E+02 -0.12189619816E+01  0.10191409991E+03  0.79197590168E+02 0.  0.
         -6    2    1    2    0  502  0.26174901405E+01 -0.32665769502E+02  0.56394036967E+03  0.59101087379E+03  0.17375617584E+03 0.  0.
        -24    2    5    5    0    0  0.64950342437E+02 -0.57814738959E+02  0.37535700540E+03  0.39075196533E+03  0.65062476743E+02 0.  0.
          5    1    3    3  501    0 -0.65594832226E+02  0.20558169113E+02 -0.41863683387E+02  0.80622443022E+02  0.47000000000E+01 0. -1.
        -13    1    4    4    0    0 -0.11971346887E+02  0.76205288343E+01  0.19414159459E+02  0.24047768993E+02  0.00000000000E+00 0.  1.
         14    1    4    4    0    0  0.74948688973E+02  0.44870715548E+01 -0.20633121441E+02  0.77866330916E+02  0.00000000000E+00 0. -1.
         -5    1    5    5    0  502 -0.62332852296E+02  0.25148969457E+02  0.18858336426E+03  0.20025890846E+03  0.47000000000E+01 0.  1.
         11    1    6    6    0    0  0.75967292734E+02 -0.39670135081E+02  0.26989895962E+03  0.28317873788E+03  0.00000000000E+00 0. -1.
        -12    1    6    6    0    0 -0.11016950298E+02 -0.18144603878E+02  0.10545804578E+03  0.10757322745E+03  0.00000000000E+00 0.  1.
<mgrwt>
<rscale>  2 0.17723929E+03</rscale>
<asrwt>0</asrwt>
<pdfrwt beam="1">  1       21 0.99569625E-01 0.17737947E+03</pdfrwt>
<pdfrwt beam="2">  1       21 0.19437669E-01 0.17737947E+03</pdfrwt>
<totfact> 0.20383147E+04</totfact>
</mgrwt>
</event>
<event>
12    1  0.1074575E-001  0.2321304E+03  0.7546771E-02  0.1125169E+00
         21   -1    0    0  503  502  0.00000000000E+00  0.00000000000E+00  0.28161928037E+03  0.28161928037E+03  0.00000000000E+00 0. -1.
         21   -1    0    0  501  503 -0.00000000000E+00 -0.00000000000E+00 -0.19928128289E+03  0.19928128289E+03  0.00000000000E+00 0. -1.
          6    2    1    2  501    0 -0.11493366210E+03  0.10283459547E+03 -0.71066149749E+01  0.23223914623E+03  0.17349298647E+03 0.  0.
         24    2    3    3    0    0 -0.69644360234E+02 -0.93633131722E+00  0.40830430240E+02  0.10919616019E+03  0.73521858908E+02 0.  0.
         -6    2    1    2    0  502  0.11493366210E+03 -0.10283459547E+03  0.89444612458E+02  0.24866141703E+03  0.17334203447E+03 0.  0.
        -24    2    5    5    0    0  0.57112319479E+02 -0.46696697879E+02 -0.22253320678E+02  0.11084527329E+03  0.79681024722E+02 0.  0.
          5    1    3    3  501    0 -0.45289301870E+02  0.10377092678E+03 -0.47937045215E+02  0.12304298604E+03  0.47000000000E+01 0. -1.
        -11    1    4    4    0    0 -0.10247270528E+02  0.35643536818E+01 -0.20815195486E+02  0.23473038439E+02  0.00000000000E+00 0.  1.
         12    1    4    4    0    0 -0.59397089706E+02 -0.45006849990E+01  0.61645625726E+02  0.85723121748E+02  0.00000000000E+00 0. -1.
         -5    1    5    5    0  502  0.57821342625E+02 -0.56137897587E+02  0.11169793314E+03  0.13781614374E+03  0.47000000000E+01 0.  1.
         11    1    6    6    0    0  0.21632477527E+02  0.19151222457E+02  0.82804446573E+01  0.30054935855E+02  0.00000000000E+00 0. -1.
        -12    1    6    6    0    0  0.35479841953E+02 -0.65847920336E+02 -0.30533765336E+02  0.80790337437E+02  0.00000000000E+00 0.  1.
<mgrwt>
<rscale>  2 0.23210218E+03</rscale>
<asrwt>0</asrwt>
<pdfrwt beam="1">  1       21 0.43326043E-01 0.23213039E+03</pdfrwt>
<pdfrwt beam="2">  1       21 0.30658659E-01 0.23213039E+03</pdfrwt>
<totfact> 0.51370362E+04</totfact>
</mgrwt>
</event>
<event>
12    1  0.1074575E-001  0.1975681E+03  0.7546771E-02  0.1151884E+00
         21   -1    0    0  503  502  0.00000000000E+00  0.00000000000E+00  0.45387195821E+02  0.45387195821E+02  0.00000000000E+00 0. -1.
         21   -1    0    0  501  503 -0.00000000000E+00 -0.00000000000E+00 -0.95698354240E+03  0.95698354240E+03  0.00000000000E+00 0. -1.
          6    2    1    2  501    0 -0.93553261692E+02 -0.13990069239E+02 -0.29459852297E+03  0.35451314469E+03  0.17304145519E+03 0.  0.
         24    2    3    3    0    0 -0.10618028944E+03 -0.40959185253E+02 -0.14158378221E+03  0.19855681768E+03  0.80168159129E+02 0.  0.
         -6    2    1    2    0  502  0.93553261692E+02  0.13990069239E+02 -0.61699782361E+03  0.64785759352E+03  0.17345089316E+03 0.  0.
        -24    2    5    5    0    0  0.89280016691E+02  0.53101100805E+02 -0.28981174924E+03  0.31828097015E+03  0.80754428214E+02 0.  0.
          5    1    3    3  501    0  0.12627027748E+02  0.26969116015E+02 -0.15301474076E+03  0.15595632702E+03  0.47000000000E+01 0. -1.
        -11    1    4    4    0    0  0.18384382918E+01 -0.28447021914E+02 -0.44132632691E+02  0.52538578011E+02  0.00000000000E+00 0.  1.
         12    1    4    4    0    0 -0.10801872773E+03 -0.12512163339E+02 -0.97451149520E+02  0.14601823966E+03  0.00000000000E+00 0. -1.
         -5    1    5    5    0  502  0.42732450003E+01 -0.39111031567E+02 -0.32718607437E+03  0.32957662337E+03  0.47000000000E+01 0.  1.
         11    1    6    6    0    0  0.96629784651E+02  0.21798832502E+02 -0.22855974012E+03  0.24910250738E+03  0.00000000000E+00 0. -1.
        -12    1    6    6    0    0 -0.73497679598E+01  0.31302268303E+02 -0.61252009116E+02  0.69178462767E+02  0.00000000000E+00 0.  1.
<mgrwt>
<rscale>  2 0.19747818E+03</rscale>
<asrwt>0</asrwt>
<pdfrwt beam="1">  1       21 0.69826451E-02 0.19756808E+03</pdfrwt>
<pdfrwt beam="2">  1       21 0.14722825E+00 0.19756808E+03</pdfrwt>
<totfact> 0.47553244E+04</totfact>
</mgrwt>
</event>
<event>
12    1  0.1074575E-001  0.1776710E+03  0.7546771E-02  0.1170243E+00
         21   -1    0    0  501  502  0.00000000000E+00  0.00000000000E+00  0.48199265293E+02  0.48199265293E+02  0.00000000000E+00 0. -1.
         21   -1    0    0  502  503 -0.00000000000E+00 -0.00000000000E+00 -0.81048685265E+03  0.81048685265E+03  0.00000000000E+00 0. -1.
         -6    2    1    2    0  503 -0.28906690830E+02  0.28272831600E+02 -0.57132389826E+03  0.59831260388E+03  0.17300874386E+03 0.  0.
        -24    2    3    3    0    0 -0.16122073043E+02  0.69725484721E+02 -0.22950770126E+03  0.25372274413E+03  0.81116468709E+02 0.  0.
          6    2    1    2  501    0  0.28906690830E+02 -0.28272831600E+02 -0.19096368909E+03  0.26037351406E+03  0.17231449879E+03 0.  0.
         24    2    5    5    0    0  0.37264745736E+02  0.12854433615E+02 -0.19841163698E+03  0.21749145541E+03  0.79884026892E+02 0.  0.
          5    1    5    5  501    0 -0.83580549054E+01 -0.41127265215E+02  0.74479478880E+01  0.42882058645E+02  0.47000000000E+01 0. -1.
        -11    1    6    6    0    0 -0.19213272833E+02  0.18510102304E+02 -0.31980977057E+02  0.41648008761E+02  0.00000000000E+00 0.  1.
         12    1    6    6    0    0  0.56478018569E+02 -0.56556686884E+01 -0.16643065992E+03  0.17584344665E+03  0.00000000000E+00 0. -1.
         -5    1    3    3    0  503 -0.12784617788E+02 -0.41452653121E+02 -0.34181619701E+03  0.34458985975E+03  0.47000000000E+01 0.  1.
         13    1    4    4    0    0 -0.32741490649E+02 -0.27707908448E+01 -0.86483968561E+02  0.92515724663E+02  0.00000000000E+00 0. -1.
        -14    1    4    4    0    0  0.16619417606E+02  0.72496275566E+02 -0.14302373269E+03  0.16120701947E+03  0.00000000000E+00 0.  1.
<mgrwt>
<rscale>  2 0.17750174E+03</rscale>
<asrwt>0</asrwt>
<pdfrwt beam="1">  1       21 0.74152722E-02 0.17767097E+03</pdfrwt>
<pdfrwt beam="2">  1       21 0.12469027E+00 0.17767097E+03</pdfrwt>
<totfact> 0.66203596E+04</totfact>
</mgrwt>
</event>
<event>
12    1  0.1074575E-001  0.2549788E+03  0.7546771E-02  0.1110281E+00
         21   -1    0    0  503  502  0.00000000000E+00  0.00000000000E+00  0.11029075627E+04  0.11029075627E+04  0.00000000000E+00 0.  1.
         21   -1    0    0  501  503 -0.00000000000E+00 -0.00000000000E+00 -0.61911798069E+02  0.61911798069E+02  0.00000000000E+00 0.  1.
          6    2    1    2  501    0  0.11599379944E+03 -0.14645841698E+03  0.65109813704E+03  0.69924456704E+03  0.17352103923E+03 0.  0.
         24    2    3    3    0    0  0.13146378101E+03 -0.90352656262E+02  0.58269100875E+03  0.60930680012E+03  0.79244159362E+02 0.  0.
         -6    2    1    2    0  502 -0.11599379944E+03  0.14645841698E+03  0.38989762754E+03  0.46557479369E+03  0.17272839702E+03 0.  0.
        -24    2    5    5    0    0 -0.74458495053E+02  0.77441621576E+02  0.35181683688E+03  0.37635183601E+03  0.79525753796E+02 0.  0.
          5    1    3    3  501    0 -0.15469981565E+02 -0.56105760721E+02  0.68407128300E+02  0.89937766917E+02  0.47000000000E+01 0. -1.
        -11    1    4    4    0    0  0.69496316620E+02 -0.97304372337E+01  0.16282939780E+03  0.17730716912E+03  0.00000000000E+00 0.  1.
         12    1    4    4    0    0  0.61967464390E+02 -0.80622219028E+02  0.41986161094E+03  0.43199963100E+03  0.00000000000E+00 0. -1.
         -5    1    5    5    0  502 -0.41535304392E+02  0.69016795408E+02  0.38080790662E+02  0.89222957678E+02  0.47000000000E+01 0.  1.
         13    1    6    6    0    0  0.15708199656E+01  0.49311387842E+02  0.95045237589E+02  0.10708724310E+03  0.00000000000E+00 0. -1.
        -14    1    6    6    0    0 -0.76029315018E+02  0.28130233734E+02  0.25677159929E+03  0.26926459291E+03  0.00000000000E+00 0.  1.
<mgrwt>
<rscale>  2 0.25484399E+03</rscale>
<asrwt>0</asrwt>
<pdfrwt beam="1">  1       21 0.16967807E+00 0.25497878E+03</pdfrwt>
<pdfrwt beam="2">  1       21 0.95248928E-02 0.25497878E+03</pdfrwt>
<totfact> 0.18223581E+04</totfact>
</mgrwt>
</event>
<event>
12    1  0.1074575E-001  0.2022734E+03  0.7546771E-02  0.1148765E+00
         21   -1    0    0  501  502  0.00000000000E+00  0.00000000000E+00  0.71603805329E+02  0.71603805329E+02  0.00000000000E+00 0. -1.
         21   -1    0    0  502  503 -0.00000000000E+00 -0.00000000000E+00 -0.91745959393E+03  0.91745959393E+03  0.00000000000E+00 0. -1.
         -6    2    1    2    0  503 -0.99816919996E+02  0.24237474945E+02 -0.73488480537E+03  0.76221400841E+03  0.17425167072E+03 0.  0.
        -24    2    3    3    0    0 -0.10286795497E+03  0.20619374429E+02 -0.74120956890E+03  0.75302205000E+03  0.81508330799E+02 0.  0.
          6    2    1    2  501    0  0.99816919996E+02 -0.24237474945E+02 -0.11097098324E+03  0.22684939085E+03  0.16910119544E+03 0.  0.
         24    2    5    5    0    0  0.97581406626E+02 -0.71916464016E+02 -0.96245487312E+02  0.17667754866E+03  0.85191863789E+02 0.  0.
          5    1    5    5  501    0  0.22355133695E+01  0.47678989071E+02 -0.14725495925E+02  0.50171842193E+02  0.47000000000E+01 0. -1.
        -13    1    6    6    0    0 -0.46755013516E+01 -0.40770729621E+02 -0.31157291633E+02  0.51525620118E+02  0.00000000000E+00 0.  1.
         14    1    6    6    0    0  0.10225690798E+03 -0.31145734395E+02 -0.65088195679E+02  0.12515192854E+03  0.00000000000E+00 0. -1.
         -5    1    3    3    0  503  0.30510349784E+01  0.36181005162E+01  0.63247635319E+01  0.91919584159E+01  0.47000000000E+01 0.  1.
         11    1    4    4    0    0 -0.33986524263E+02  0.35359634334E+02 -0.15446509037E+03  0.16206434436E+03  0.00000000000E+00 0. -1.
        -12    1    4    4    0    0 -0.68881430712E+02 -0.14740259905E+02 -0.58674447853E+03  0.59095770563E+03  0.00000000000E+00 0.  1.
<mgrwt>
<rscale>  2 0.20115928E+03</rscale>
<asrwt>0</asrwt>
<pdfrwt beam="1">  1       21 0.11015971E-01 0.20227337E+03</pdfrwt>
<pdfrwt beam="2">  1       21 0.14114762E+00 0.20227337E+03</pdfrwt>
<totfact> 0.23801277E+04</totfact>
</mgrwt>
</event>
<event>
12    1  0.1074575E-001  0.2186653E+03  0.7546771E-02  0.1135548E+00
         21   -1    0    0  503  502  0.00000000000E+00  0.00000000000E+00  0.42795555064E+02  0.42795555064E+02  0.00000000000E+00 0.  1.
         21   -1    0    0  501  503 -0.00000000000E+00 -0.00000000000E+00 -0.11282875728E+04  0.11282875728E+04  0.00000000000E+00 0.  1.
          6    2    1    2  501    0  0.11143372336E+02 -0.12592723827E+03 -0.63215720313E+03  0.66776716436E+03  0.17409311371E+03 0.  0.
         24    2    3    3    0    0  0.21088193377E+02 -0.16128927276E+03 -0.52848554174E+03  0.55767957957E+03  0.72461053229E+02 0.  0.
         -6    2    1    2    0  502 -0.11143372336E+02  0.12592723827E+03 -0.45333481457E+03  0.50331596347E+03  0.17841709811E+03 0.  0.
        -24    2    5    5    0    0  0.57932565436E+02  0.66385512432E+02 -0.32245526546E+03  0.34372821748E+03  0.80052925433E+02 0.  0.
          5    1    3    3  501    0 -0.99448210413E+01  0.35362034491E+02 -0.10367166140E+03  0.11008758479E+03  0.47000000000E+01 0. -1.
        -11    1    4    4    0    0 -0.18691257607E+02 -0.85380230152E+02 -0.33210590493E+03  0.34341444189E+03  0.00000000000E+00 0.  1.
         12    1    4    4    0    0  0.39779450984E+02 -0.75909042608E+02 -0.19637963681E+03  0.21426513767E+03  0.00000000000E+00 0. -1.
         -5    1    5    5    0  502 -0.69075937772E+02  0.59541725836E+02 -0.13087954911E+03  0.15958774599E+03  0.47000000000E+01 0.  1.
         11    1    6    6    0    0  0.63983766162E+02  0.80677791381E+02 -0.26787218507E+03  0.28698142080E+03  0.00000000000E+00 0. -1.
        -12    1    6    6    0    0 -0.60512007256E+01 -0.14292278949E+02 -0.54583080391E+02  0.56746796674E+02  0.00000000000E+00 0.  1.
<mgrwt>
<rscale>  2 0.21778154E+03</rscale>
<asrwt>0</asrwt>
<pdfrwt beam="1">  1       21 0.65839311E-02 0.21866528E+03</pdfrwt>
<pdfrwt beam="2">  1       21 0.17358272E+00 0.21866528E+03</pdfrwt>
<totfact> 0.33312550E+04</totfact>
</mgrwt>
</event>
<event>
12    1  0.1074575E-001  0.1778328E+03  0.7546771E-02  0.1171158E+00
         21   -1    0    0  501  502  0.00000000000E+00  0.00000000000E+00  0.64613019019E+02  0.64613019019E+02  0.00000000000E+00 0.  1.
         21   -1    0    0  502  503 -0.00000000000E+00 -0.00000000000E+00 -0.49122086946E+03  0.49122086946E+03  0.00000000000E+00 0.  1.
         -6    2    1    2    0  503 -0.21517713530E+02  0.26799578864E+02 -0.25952695813E+03  0.31182460406E+03  0.16940812340E+03 0.  0.
        -24    2    3    3    0    0 -0.74650828995E+02  0.26378820177E+01 -0.20328088026E+03  0.23062961142E+03  0.79291845063E+02 0.  0.
          6    2    1    2  501    0  0.21517713530E+02 -0.26799578864E+02 -0.16708089231E+03  0.24400928442E+03  0.17448001859E+03 0.  0.
         24    2    5    5    0    0  0.57263806067E+02  0.32360593077E+02 -0.12276158767E+03  0.16176574462E+03  0.82288500139E+02 0.  0.
          5    1    5    5  501    0 -0.35746092537E+02 -0.59160171941E+02 -0.44319304640E+02  0.82243539804E+02  0.47000000000E+01 0. -1.
        -11    1    6    6    0    0  0.36083961804E+02  0.11016299439E+02 -0.25098209864E+01  0.37811510869E+02  0.00000000000E+00 0.  1.
         12    1    6    6    0    0  0.21179844264E+02  0.21344293638E+02 -0.12025176669E+03  0.12395423375E+03  0.00000000000E+00 0. -1.
         -5    1    3    3    0  503  0.53133115465E+02  0.24161696847E+02 -0.56246077878E+02  0.81194992642E+02  0.47000000000E+01 0.  1.
         13    1    4    4    0    0  0.13312531104E+02  0.14070589655E+02 -0.48628460000E+02  0.52344360724E+02  0.00000000000E+00 0. -1.
        -14    1    4    4    0    0 -0.87963360098E+02 -0.11432707637E+02 -0.15465242025E+03  0.17828525069E+03  0.00000000000E+00 0.  1.
<mgrwt>
<rscale>  2 0.17657617E+03</rscale>
<asrwt>0</asrwt>
<pdfrwt beam="1">  1       21 0.99404643E-02 0.17783280E+03</pdfrwt>
<pdfrwt beam="2">  1       21 0.75572443E-01 0.17783280E+03</pdfrwt>
<totfact> 0.12887190E+05</totfact>
</mgrwt>
</event>
<event>
12    1  0.1074575E-001  0.2178926E+03  0.7546771E-02  0.1135473E+00
         21   -1    0    0  503  502  0.00000000000E+00  0.00000000000E+00  0.75684267250E+03  0.75684267250E+03  0.00000000000E+00 0. -1.
         21   -1    0    0  501  503 -0.00000000000E+00 -0.00000000000E+00 -0.10487841756E+03  0.10487841756E+03  0.00000000000E+00 0. -1.
          6    2    1    2  501    0 -0.56298269345E+02  0.11991839733E+03  0.52782121484E+02  0.22415039388E+03  0.17293793562E+03 0.  0.
         24    2    3    3    0    0 -0.10203047077E+03  0.63048661790E+02  0.41600657479E+02  0.15017258501E+03  0.80223686449E+02 0.  0.
         -6    2    1    2    0  502  0.56298269345E+02 -0.11991839733E+03  0.59918213346E+03  0.63757069619E+03  0.17299493181E+03 0.  0.
        -24    2    5    5    0    0 -0.24402561081E+02 -0.55896390920E+02  0.19177958563E+03  0.21732033353E+03  0.82029423970E+02 0.  0.
          5    1    3    3  501    0  0.45732201423E+02  0.56869735544E+02  0.11181464004E+02  0.73977808870E+02  0.47000000000E+01 0. -1.
        -11    1    4    4    0    0  0.35275246436E+01 -0.96829274420E+01 -0.76642614377E+01  0.12843029913E+02  0.00000000000E+00 0.  1.
         12    1    4    4    0    0 -0.10555799541E+03  0.72731589232E+02  0.49264918917E+02  0.13732955510E+03  0.00000000000E+00 0. -1.
         -5    1    5    5    0  502  0.80700830426E+02 -0.64022006414E+02  0.40740254783E+03  0.42025036266E+03  0.47000000000E+01 0.  1.
         13    1    6    6    0    0  0.27892572700E+02 -0.32298337077E+02  0.10443828220E+03  0.11282080030E+03  0.00000000000E+00 0. -1.
        -14    1    6    6    0    0 -0.52295133781E+02 -0.23598053843E+02  0.87341303424E+02  0.10449953323E+03  0.00000000000E+00 0.  1.
<mgrwt>
<rscale>  2 0.21788124E+03</rscale>
<asrwt>0</asrwt>
<pdfrwt beam="1">  1       21 0.11643733E+00 0.21789255E+03</pdfrwt>
<pdfrwt beam="2">  1       21 0.16135142E-01 0.21789255E+03</pdfrwt>
<totfact> 0.19223810E+04</totfact>
</mgrwt>
</event>
<event>
12    1  0.1074575E-001  0.1894507E+03  0.7546771E-02  0.1159090E+00
         21   -1    0    0  501  502  0.00000000000E+00  0.00000000000E+00  0.16855029699E+04  0.16855029699E+04  0.00000000000E+00 0.  1.
         21   -1    0    0  502  503 -0.00000000000E+00 -0.00000000000E+00 -0.39880357944E+02  0.39880357944E+02  0.00000000000E+00 0. -1.
         -6    2    1    2    0  503  0.72463117974E+02  0.23140927178E+02  0.23215735355E+03  0.29927827521E+03  0.17287001831E+03 0.  0.
        -24    2    3    3    0    0  0.50224023645E+02  0.78795775581E+02  0.11734581998E+03  0.16967959579E+03  0.79308870632E+02 0.  0.
          6    2    1    2  501    0 -0.72463117974E+02 -0.23140927178E+02  0.14134652585E+04  0.14261050527E+04  0.17350843909E+03 0.  0.
         24    2    5    5    0    0  0.69776142347E+01 -0.24638628168E+02  0.10790386007E+04  0.10823371768E+04  0.80459390174E+02 0.  0.
          5    1    5    5  501    0 -0.79440732209E+02  0.14977009898E+01  0.33442665777E+03  0.34376787586E+03  0.47000000000E+01 0. -1.
        -11    1    6    6    0    0 -0.15595999724E+02 -0.28328119573E+02  0.17219290263E+03  0.17520306299E+03  0.00000000000E+00 0.  1.
         12    1    6    6    0    0  0.22573613959E+02  0.36894914051E+01  0.90684569805E+03  0.90713411383E+03  0.00000000000E+00 0. -1.
         -5    1    3    3    0  503  0.22239094329E+02 -0.55654848403E+02  0.11481153357E+03  0.12959867942E+03  0.47000000000E+01 0.  1.
         13    1    4    4    0    0  0.70714166490E+02  0.48604581914E+02  0.77121538445E+02  0.11537170545E+03  0.00000000000E+00 0. -1.
        -14    1    4    4    0    0 -0.20490142845E+02  0.30191193667E+02  0.40224281536E+02  0.54307890347E+02  0.00000000000E+00 0.  1.
<mgrwt>
<rscale>  2 0.18930444E+03</rscale>
<asrwt>0</asrwt>
<pdfrwt beam="1">  1       21 0.25930809E+00 0.18945074E+03</pdfrwt>
<pdfrwt beam="2">  1       21 0.61354410E-02 0.18945074E+03</pdfrwt>
<totfact> 0.11165601E+04</totfact>
</mgrwt>
</event>
<event>
12    1  0.1074575E-001  0.2213186E+03  0.7546771E-02  0.1134047E+00
         21   -1    0    0  503  502  0.00000000000E+00  0.00000000000E+00  0.14280158874E+04  0.14280158874E+04  0.00000000000E+00 0.  1.
         21   -1    0    0  501  503 -0.00000000000E+00 -0.00000000000E+00 -0.37993206967E+02  0.37993206967E+02  0.00000000000E+00 0. -1.
          6    2    1    2  501    0  0.32928347512E+02  0.12337141907E+03  0.95938325232E+03  0.98458018978E+03  0.18076820007E+03 0.  0.
         24    2    3    3    0    0 -0.91399503110E+00 -0.14801830078E+01  0.25438958045E+03  0.26780170652E+03  0.83670000852E+02 0.  0.
         -6    2    1    2    0  502 -0.32928347512E+02 -0.12337141907E+03  0.43063942815E+03  0.48142890463E+03  0.17325902580E+03 0.  0.
        -24    2    5    5    0    0 -0.12542831322E+02 -0.14107909889E+03  0.25473714468E+03  0.30340409027E+03  0.84275704414E+02 0.  0.
          5    1    3    3  501    0  0.33842342543E+02  0.12485160207E+03  0.70499367187E+03  0.71677848327E+03  0.47000000000E+01 0. -1.
        -11    1    4    4    0    0  0.36277754218E+02 -0.42290822751E+01  0.18924968474E+03  0.19274180595E+03  0.00000000000E+00 0.  1.
         12    1    4    4    0    0 -0.37191749249E+02  0.27488992673E+01  0.65139895713E+02  0.75059900566E+02  0.00000000000E+00 0. -1.
         -5    1    5    5    0  502 -0.20385516190E+02  0.17707679823E+02  0.17590228348E+03  0.17802481436E+03  0.47000000000E+01 0.  1.
         13    1    6    6    0    0  0.29980788324E+02 -0.10168578793E+03  0.14974649445E+03  0.18347441166E+03  0.00000000000E+00 0. -1.
        -14    1    6    6    0    0 -0.42523619646E+02 -0.39393310965E+02  0.10499065023E+03  0.11992967861E+03  0.00000000000E+00 0.  1.
<mgrwt>
<rscale>  2 0.21978021E+03</rscale>
<asrwt>0</asrwt>
<pdfrwt beam="1">  1       21 0.21969471E+00 0.22131861E+03</pdfrwt>
<pdfrwt beam="2">  1       21 0.58451099E-02 0.22131861E+03</pdfrwt>
<totfact> 0.20379325E+04</totfact>
</mgrwt>
</event>
<event>
12    1  0.1074575E-001  0.1951980E+03  0.7546771E-02  0.1154549E+00
         21   -1    0    0  503  502  0.00000000000E+00  0.00000000000E+00  0.72310891552E+03  0.72310891552E+03  0.00000000000E+00 0. -1.
         21   -1    0    0  501  503 -0.00000000000E+00 -0.00000000000E+00 -0.28788551823E+03  0.28788551823E+03  0.00000000000E+00 0. -1.
          6    2    1    2  501    0  0.22297666855E+02  0.81603637909E+02 -0.23979042617E+03  0.30919526616E+03  0.17591453740E+03 0.  0.
         24    2    3    3    0    0  0.81864246983E+02  0.66097025945E+02 -0.17204779069E+03  0.21754491350E+03  0.81576806341E+02 0.  0.
         -6    2    1    2    0  502 -0.22297666855E+02 -0.81603637909E+02  0.67501382346E+03  0.70179916758E+03  0.17240089934E+03 0.  0.
        -24    2    5    5    0    0 -0.44228035377E+02 -0.22049760225E+02  0.57704771906E+03  0.58497856571E+03  0.82301526280E+02 0.  0.
          5    1    3    3  501    0 -0.59566580129E+02  0.15506611965E+02 -0.67742635475E+02  0.91650352666E+02  0.47000000000E+01 0. -1.
        -13    1    4    4    0    0  0.70576566067E+02  0.85102337835E+02 -0.13613408549E+03  0.17537374038E+03  0.00000000000E+00 0.  1.
         14    1    4    4    0    0  0.11287680916E+02 -0.19005311890E+02 -0.35913705207E+02  0.42171173119E+02  0.00000000000E+00 0. -1.
         -5    1    5    5    0  502  0.21930368523E+02 -0.59553877684E+02  0.97966104395E+02  0.11682060187E+03  0.47000000000E+01 0.  1.
         11    1    6    6    0    0 -0.33708364171E+02 -0.52790984887E+02  0.34093281941E+03  0.34663861477E+03  0.00000000000E+00 0. -1.
        -12    1    6    6    0    0 -0.10519671206E+02  0.30741224662E+02  0.23611489966E+03  0.23833995094E+03  0.00000000000E+00 0.  1.
<mgrwt>
<rscale>  2 0.19440305E+03</rscale>
<asrwt>0</asrwt>
<pdfrwt beam="1">  1       21 0.11124753E+00 0.19519801E+03</pdfrwt>
<pdfrwt beam="2">  1       21 0.44290080E-01 0.19519801E+03</pdfrwt>
<totfact> 0.31045578E+03</totfact>
</mgrwt>
</event>
<event>
12    1  0.1074575E-001  0.2471215E+03  0.7546771E-02  0.1115561E+00
         21   -1    0    0  501  502  0.00000000000E+00  0.00000000000E+00  0.17453559326E+04  0.17453559326E+04  0.00000000000E+00 0. -1.
         21   -1    0    0  502  503 -0.00000000000E+00 -0.00000000000E+00 -0.37983501901E+02  0.37983501901E+02  0.00000000000E+00 0.  1.
         -6    2    1    2    0  503 -0.98698173400E+02 -0.14319375208E+03  0.58416693181E+03  0.63327002889E+03  0.17185501216E+03 0.  0.
        -24    2    3    3    0    0 -0.37053768683E+02 -0.94442179846E+02  0.18867893503E+03  0.23002122973E+03  0.83771823993E+02 0.  0.
          6    2    1    2  501    0  0.98698173400E+02  0.14319375208E+03  0.11232054989E+04  0.11500694057E+04  0.17556555732E+03 0.  0.
         24    2    5    5    0    0  0.91987292901E+02  0.22842998164E+02  0.64524092027E+03  0.65711751313E+03  0.80524010404E+02 0.  0.
          5    1    5    5  501    0  0.67108804990E+01  0.12035075392E+03  0.47796457866E+03  0.49295189252E+03  0.47000000000E+01 0. -1.
        -11    1    6    6    0    0  0.23858506255E+02 -0.19701939074E+02  0.34275993235E+03  0.34415369524E+03  0.00000000000E+00 0.  1.
         12    1    6    6    0    0  0.68128786646E+02  0.42544937238E+02  0.30248098792E+03  0.31296381789E+03  0.00000000000E+00 0. -1.
         -5    1    3    3    0  503 -0.61644404717E+02 -0.48751572234E+02  0.39548799678E+03  0.40324879916E+03  0.47000000000E+01 0.  1.
         11    1    4    4    0    0 -0.10628646581E+02 -0.10075863538E+03  0.16669985402E+03  0.19507463203E+03  0.00000000000E+00 0. -1.
        -12    1    4    4    0    0 -0.26425122102E+02  0.63164555352E+01  0.21979081005E+02  0.34946597695E+02  0.00000000000E+00 0.  1.
<mgrwt>
<rscale>  2 0.24646335E+03</rscale>
<asrwt>0</asrwt>
<pdfrwt beam="1">  1       21 0.26851624E+00 0.24712152E+03</pdfrwt>
<pdfrwt beam="2">  1       21 0.58436170E-02 0.24712152E+03</pdfrwt>
<totfact> 0.10188492E+04</totfact>
</mgrwt>
</event>
<event>
12    1  0.1074575E-001  0.2494719E+03  0.7546771E-02  0.1113847E+00
         21   -1    0    0  501  502  0.00000000000E+00  0.00000000000E+00  0.40136477518E+02  0.40136477518E+02  0.00000000000E+00 0. -1.
         21   -1    0    0  502  503 -0.00000000000E+00 -0.00000000000E+00 -0.16368255625E+04  0.16368255625E+04  0.00000000000E+00 0.  1.
         -6    2    1    2    0  503  0.73371868910E+02  0.16301929334E+03 -0.59508447312E+03  0.64475662880E+03  0.17212454527E+03 0.  0.
        -24    2    3    3    0    0  0.83131141329E+02  0.18163191560E+03 -0.58104513441E+03  0.61904931200E+03  0.75549077072E+02 0.  0.
          6    2    1    2  501    0 -0.73371868910E+02 -0.16301929334E+03 -0.10016046119E+04  0.10322054113E+04  0.17400428529E+03 0.  0.
         24    2    5    5    0    0 -0.16849323068E+02 -0.16958988466E+03 -0.83179469035E+03  0.85305332414E+03  0.82297863136E+02 0.  0.
          5    1    5    5  501    0 -0.56522545843E+02  0.65705913247E+01 -0.16980992156E+03  0.17915208712E+03  0.47000000000E+01 0. -1.
        -11    1    6    6    0    0 -0.23641835936E+02 -0.34057528292E+02 -0.35212931214E+03  0.35456156603E+03  0.00000000000E+00 0.  1.
         12    1    6    6    0    0  0.67925128688E+01 -0.13553235637E+03 -0.47966537821E+03  0.49849175811E+03  0.00000000000E+00 0. -1.
         -5    1    3    3    0  503 -0.97592724181E+01 -0.18612622263E+02 -0.14039338718E+02  0.25707316804E+02  0.47000000000E+01 0.  1.
         13    1    4    4    0    0  0.22501353278E+02  0.12316129799E+03 -0.28571619219E+03  0.31194351845E+03  0.00000000000E+00 0. -1.
        -14    1    4    4    0    0  0.60629788051E+02  0.58470617612E+02 -0.29532894221E+03  0.30710579355E+03  0.00000000000E+00 0.  1.
<mgrwt>
<rscale>  2 0.24914436E+03</rscale>
<asrwt>0</asrwt>
<pdfrwt beam="1">  1       21 0.61748442E-02 0.24947187E+03</pdfrwt>
<pdfrwt beam="2">  1       21 0.25181926E+00 0.24947187E+03</pdfrwt>
<totfact> 0.11609977E+04</totfact>
</mgrwt>
</event>
<event>
12    1  0.1074575E-001  0.1985094E+03  0.7546771E-02  0.1151057E+00
         21   -1    0    0  503  502  0.00000000000E+00  0.00000000000E+00  0.15595836500E+04  0.15595836500E+04  0.00000000000E+00 0. -1.
         21   -1    0    0  501  503 -0.00000000000E+00 -0.00000000000E+00 -0.27367068261E+02  0.27367068261E+02  0.00000000000E+00 0. -1.
          6    2    1    2  501    0  0.24191736074E+02  0.93680943081E+02  0.98715705107E+03  0.10068680784E+04  0.17304024006E+03 0.  0.
         24    2    3    3    0    0  0.60885811673E+02  0.66913316179E+02  0.90348043534E+03  0.91154322828E+03  0.80309937393E+02 0.  0.
         -6    2    1    2    0  502 -0.24191736074E+02 -0.93680943081E+02  0.54505953069E+03  0.58008263986E+03  0.17333383362E+03 0.  0.
        -24    2    5    5    0    0 -0.44935795445E+02 -0.74753556709E+02  0.53771145506E+03  0.55067777343E+03  0.80654084167E+02 0.  0.
          5    1    3    3  501    0 -0.36694075599E+02  0.26767626902E+02  0.83676615729E+02  0.95324850138E+02  0.47000000000E+01 0. -1.
        -11    1    4    4    0    0 -0.17399151663E+02 -0.24092161179E+00  0.10563906633E+03  0.10706260252E+03  0.00000000000E+00 0.  1.
         12    1    4    4    0    0  0.78284963337E+02  0.67154237791E+02  0.79784136900E+03  0.80448062577E+03  0.00000000000E+00 0. -1.
         -5    1    5    5    0  502  0.20744059371E+02 -0.18927386372E+02  0.73480756256E+01  0.29404866425E+02  0.47000000000E+01 0.  1.
         13    1    6    6    0    0 -0.37596352224E+01 -0.77275698123E+02  0.33622655946E+03  0.34501299637E+03  0.00000000000E+00 0. -1.
        -14    1    6    6    0    0 -0.41176160223E+02  0.25221414139E+01  0.20148489561E+03  0.20566477707E+03  0.00000000000E+00 0.  1.
<mgrwt>
<rscale>  2 0.19844528E+03</rscale>
<asrwt>0</asrwt>
<pdfrwt beam="1">  1       21 0.23993588E+00 0.19850939E+03</pdfrwt>
<pdfrwt beam="2">  1       21 0.42103194E-02 0.19850939E+03</pdfrwt>
<totfact> 0.27287840E+04</totfact>
</mgrwt>
</event>
<event>
12    1  0.1074575E-001  0.2879939E+03  0.7546771E-02  0.1091679E+00
         21   -1    0    0  501  502  0.00000000000E+00  0.00000000000E+00  0.21342671340E+03  0.21342671340E+03  0.00000000000E+00 0.  1.
         21   -1    0    0  502  503 -0.00000000000E+00 -0.00000000000E+00 -0.52585122118E+03  0.52585122118E+03  0.00000000000E+00 0.  1.
         -6    2    1    2    0  503  0.20025323485E+03  0.11045143515E+03 -0.34656223335E+03  0.44926781008E+03  0.17156720547E+03 0.  0.
        -24    2    3    3    0    0  0.16656766015E+03  0.14670371509E+03 -0.23894533316E+03  0.33072485183E+03  0.54929863948E+02 0.  0.
          6    2    1    2  501    0 -0.20025323485E+03 -0.11045143515E+03  0.34137725572E+02  0.29001012450E+03  0.17504173905E+03 0.  0.
         24    2    5    5    0    0 -0.19743614377E+03 -0.59209755515E+02  0.63766883203E+02  0.23056584205E+03  0.81286936898E+02 0.  0.
          5    1    5    5  501    0 -0.28170910785E+01 -0.51241679639E+02 -0.29629157631E+02  0.59444282452E+02  0.47000000000E+01 0. -1.
        -13    1    6    6    0    0 -0.93816865653E+02  0.13373227807E+02  0.21430961424E+02  0.97158291516E+02  0.00000000000E+00 0.  1.
         14    1    6    6    0    0 -0.10361927812E+03 -0.72582983323E+02  0.42335921780E+02  0.13340755053E+03  0.00000000000E+00 0. -1.
         -5    1    3    3    0  503  0.33685574707E+02 -0.36252279935E+02 -0.10761690019E+03  0.11854295825E+03  0.47000000000E+01 0.  1.
         13    1    4    4    0    0  0.46313803878E+02  0.74883487668E+02 -0.10342116497E+03  0.13582504378E+03  0.00000000000E+00 0. -1.
        -14    1    4    4    0    0  0.12025385627E+03  0.71820227421E+02 -0.13552416819E+03  0.19489980805E+03  0.00000000000E+00 0.  1.
<mgrwt>
<rscale>  2 0.28746784E+03</rscale>
<asrwt>0</asrwt>
<pdfrwt beam="1">  1       21 0.32834879E-01 0.28799390E+03</pdfrwt>
<pdfrwt beam="2">  1       21 0.80900187E-01 0.28799390E+03</pdfrwt>
<totfact> 0.11341522E+04</totfact>
</mgrwt>
</event>
<event>
12    1  0.1074575E-001  0.1834729E+03  0.7546771E-02  0.1164509E+00
         21   -1    0    0  501  502  0.00000000000E+00  0.00000000000E+00  0.39701432997E+03  0.39701432997E+03  0.00000000000E+00 0. -1.
         21   -1    0    0  502  503 -0.00000000000E+00 -0.00000000000E+00 -0.11328164466E+03  0.11328164466E+03  0.00000000000E+00 0. -1.
         -6    2    1    2    0  503 -0.60461006632E+02  0.76097115514E+01  0.13823339126E+02  0.18399289583E+03  0.17305738927E+03 0.  0.
        -24    2    3    3    0    0 -0.23170371659E+02  0.40598484162E+02  0.63388214831E+02  0.11358254518E+03  0.81840245309E+02 0.  0.
          6    2    1    2  501    0  0.60461006632E+02 -0.76097115514E+01  0.26990934619E+03  0.32630307879E+03  0.17294277389E+03 0.  0.
         24    2    5    5    0    0 -0.31060080036E+02  0.10868872024E+02  0.15054787649E+03  0.17468903656E+03  0.82272324790E+02 0.  0.
          5    1    5    5  501    0  0.91521086668E+02 -0.18478583575E+02  0.11936146970E+03  0.15161404224E+03  0.47000000000E+01 0. -1.
        -13    1    6    6    0    0  0.20024542957E+02 -0.11619986648E+01  0.99406467017E+02  0.10140995142E+03  0.00000000000E+00 0.  1.
         14    1    6    6    0    0 -0.51084622994E+02  0.12030870689E+02  0.51141409472E+02  0.73279085139E+02  0.00000000000E+00 0. -1.
         -5    1    3    3    0  503 -0.37290634973E+02 -0.32988772611E+02 -0.49564875704E+02  0.70410350650E+02  0.47000000000E+01 0.  1.
         13    1    4    4    0    0 -0.41671034789E+02  0.33244848167E+02  0.69780416639E+01  0.53762330079E+02  0.00000000000E+00 0. -1.
        -14    1    4    4    0    0  0.18500663130E+02  0.73536359949E+01  0.56410173167E+02  0.59820215106E+02  0.00000000000E+00 0.  1.
<mgrwt>
<rscale>  2 0.18344586E+03</rscale>
<asrwt>0</asrwt>
<pdfrwt beam="1">  1       21 0.61079127E-01 0.18347289E+03</pdfrwt>
<pdfrwt beam="2">  1       21 0.17427945E-01 0.18347289E+03</pdfrwt>
<totfact> 0.74602586E+04</totfact>
</mgrwt>
</event>
<event>
12    1  0.1074575E-001  0.2547015E+03  0.7546771E-02  0.1110808E+00
         21   -1    0    0  503  502  0.00000000000E+00  0.00000000000E+00  0.28002603668E+03  0.28002603668E+03  0.00000000000E+00 0.  1.
         21   -1    0    0  501  503 -0.00000000000E+00 -0.00000000000E+00 -0.66728452572E+03  0.66728452572E+03  0.00000000000E+00 0.  1.
          6    2    1    2  501    0 -0.72932321274E+02 -0.16765587023E+03 -0.57782543570E+03  0.63147057735E+03  0.17732806209E+03 0.  0.
         24    2    3    3    0    0 -0.10484016889E+00 -0.14015387057E+03 -0.27343896956E+03  0.31725184341E+03  0.78973056444E+02 0.  0.
         -6    2    1    2    0  502  0.72932321274E+02  0.16765587023E+03  0.19056694666E+03  0.31583998505E+03  0.17323833493E+03 0.  0.
        -24    2    5    5    0    0  0.47062091245E+02  0.12306261232E+02  0.74006721479E+02  0.11985236832E+03  0.80754633743E+02 0.  0.
          5    1    3    3  501    0 -0.72827481105E+02 -0.27501999656E+02 -0.30438646614E+03  0.31421873394E+03  0.47000000000E+01 0. -1.
        -13    1    4    4    0    0 -0.10360191631E+02 -0.10537261609E+03 -0.12203041532E+03  0.16156157976E+03  0.00000000000E+00 0.  1.
         14    1    4    4    0    0  0.10255351462E+02 -0.34781254483E+02 -0.15140855424E+03  0.15569026365E+03  0.00000000000E+00 0. -1.
         -5    1    5    5    0  502  0.25870230029E+02  0.15534960899E+03  0.11656022518E+03  0.19598761673E+03  0.47000000000E+01 0.  1.
         11    1    6    6    0    0  0.17370798511E+02  0.10653478798E+02 -0.15456546578E+02  0.25576279705E+02  0.00000000000E+00 0. -1.
        -12    1    6    6    0    0  0.29691292733E+02  0.16527824339E+01  0.89463268056E+02  0.94276088619E+02  0.00000000000E+00 0.  1.
<mgrwt>
<rscale>  2 0.25399098E+03</rscale>
<asrwt>0</asrwt>
<pdfrwt beam="1">  1       21 0.43080929E-01 0.25470150E+03</pdfrwt>
<pdfrwt beam="2">  1       21 0.10265916E+00 0.25470150E+03</pdfrwt>
<totfact> 0.38167689E+03</totfact>
</mgrwt>
</event>
<event>
12    1  0.1074575E-001  0.2207519E+03  0.7546771E-02  0.1134486E+00
         21   -1    0    0  503  502  0.00000000000E+00  0.00000000000E+00  0.42612277743E+03  0.42612277743E+03  0.00000000000E+00 0.  1.
         21   -1    0    0  501  503 -0.00000000000E+00 -0.00000000000E+00 -0.15944463330E+03  0.15944463330E+03  0.00000000000E+00 0.  1.
          6    2    1    2  501    0 -0.85803330462E+02  0.93341417915E+02 -0.29040838649E+02  0.21654012296E+03  0.17312256561E+03 0.  0.
         24    2    3    3    0    0 -0.11270299349E+03  0.97313693959E+02  0.93131344323E+01  0.16929091028E+03  0.80004737713E+02 0.  0.
         -6    2    1    2    0  502  0.85803330462E+02 -0.93341417915E+02  0.29571898278E+03  0.36902728777E+03  0.18071134587E+03 0.  0.
        -24    2    5    5    0    0  0.75939175058E+01  0.92502251498E+01  0.17260452388E+03  0.19064282238E+03  0.80057041003E+02 0.  0.
          5    1    3    3  501    0  0.26899663026E+02 -0.39722760444E+01 -0.38353973081E+02  0.47249212681E+02  0.47000000000E+01 0. -1.
        -11    1    4    4    0    0 -0.77973486935E+02  0.14770269287E+02  0.75917697565E+01  0.79722396399E+02  0.00000000000E+00 0.  1.
         12    1    4    4    0    0 -0.34729506553E+02  0.82543424672E+02  0.17213646758E+01  0.89568513878E+02  0.00000000000E+00 0. -1.
         -5    1    5    5    0  502  0.78209412956E+02 -0.10259164306E+03  0.12311445890E+03  0.17838446539E+03  0.47000000000E+01 0.  1.
         11    1    6    6    0    0 -0.29375542349E+02 -0.21591798628E+01  0.26902769867E+02  0.39891647904E+02  0.00000000000E+00 0. -1.
        -12    1    6    6    0    0  0.36969459855E+02  0.11409405013E+02  0.14570175401E+03  0.15075117448E+03  0.00000000000E+00 0.  1.
<mgrwt>
<rscale>  2 0.21919351E+03</rscale>
<asrwt>0</asrwt>
<pdfrwt beam="1">  1       21 0.65557350E-01 0.22075195E+03</pdfrwt>
<pdfrwt beam="2">  1       21 0.24529944E-01 0.22075195E+03</pdfrwt>
<totfact> 0.33106031E+04</totfact>
</mgrwt>
</event>
<event>
12    1  0.1074575E-001  0.2207870E+03  0.7546771E-02  0.1133635E+00
         21   -1    0    0  503  502  0.00000000000E+00  0.00000000000E+00  0.16429610870E+03  0.16429610870E+03  0.00000000000E+00 0.  1.
         21   -1    0    0  501  503 -0.00000000000E+00 -0.00000000000E+00 -0.31591302780E+03  0.31591302780E+03  0.00000000000E+00 0. -1.
          6    2    1    2  501    0  0.13018394075E+03 -0.34064036668E+02 -0.13835564879E+03  0.25902421966E+03  0.17275139303E+03 0.  0.
         24    2    3    3    0    0  0.15607742836E+03 -0.11324275619E+02 -0.13892140879E+03  0.22423945981E+03  0.80596368752E+02 0.  0.
         -6    2    1    2    0  502 -0.13018394075E+03  0.34064036668E+02 -0.13261270304E+02  0.22118491684E+03  0.17503910742E+03 0.  0.
        -24    2    5    5    0    0 -0.81064489540E+02 -0.31845547482E+02 -0.53761791210E+02  0.12942884912E+03  0.79220618728E+02 0.  0.
          5    1    3    3  501    0 -0.25893487608E+02 -0.22739761049E+02  0.56575999795E+00  0.34784759845E+02  0.47000000000E+01 0. -1.
        -11    1    4    4    0    0  0.13869511113E+02 -0.22036299273E+02 -0.13251080119E+01  0.26071396883E+02  0.00000000000E+00 0.  1.
         12    1    4    4    0    0  0.14220791724E+03  0.10712023654E+02 -0.13759630078E+03  0.19816806293E+03  0.00000000000E+00 0. -1.
         -5    1    5    5    0  502 -0.49119451208E+02  0.65909584150E+02  0.40500520906E+02  0.91756067720E+02  0.47000000000E+01 0.  1.
         13    1    6    6    0    0 -0.39510299157E+02  0.21422970539E+02 -0.40667029759E+02  0.60612001416E+02  0.00000000000E+00 0. -1.
        -14    1    6    6    0    0 -0.41554190382E+02 -0.53268518021E+02 -0.13094761451E+02  0.68816847704E+02  0.00000000000E+00 0.  1.
<mgrwt>
<rscale>  2 0.22033331E+03</rscale>
<asrwt>0</asrwt>
<pdfrwt beam="1">  1       21 0.25276325E-01 0.22078702E+03</pdfrwt>
<pdfrwt beam="2">  1       21 0.48602004E-01 0.22078702E+03</pdfrwt>
<totfact> 0.59190855E+04</totfact>
</mgrwt>
</event>
<event>
12    1  0.1074575E-001  0.2122671E+03  0.7546771E-02  0.1139962E+00
         21   -1    0    0  501  502  0.00000000000E+00  0.00000000000E+00  0.28357930132E+03  0.28357930132E+03  0.00000000000E+00 0.  1.
         21   -1    0    0  502  503 -0.00000000000E+00 -0.00000000000E+00 -0.16211256535E+03  0.16211256535E+03  0.00000000000E+00 0. -1.
         -6    2    1    2    0  503 -0.33048093771E+02 -0.11873282606E+03  0.26269501185E+02  0.21388640762E+03  0.17282259165E+03 0.  0.
        -24    2    3    3    0    0 -0.80598955247E+02 -0.10538499025E+03  0.32479272195E+02  0.16388740359E+03  0.90564839630E+02 0.  0.
          6    2    1    2  501    0  0.33048093771E+02  0.11873282606E+03  0.95197234779E+02  0.23180545905E+03  0.17170205837E+03 0.  0.
         24    2    5    5    0    0  0.58516769410E+02  0.91047035732E+02  0.70994454551E+01  0.13589682071E+03  0.81876545693E+02 0.  0.
          5    1    5    5  501    0 -0.25468675639E+02  0.27685790332E+02  0.88097789324E+02  0.95908638344E+02  0.47000000000E+01 0. -1.
        -13    1    6    6    0    0 -0.10127606393E+02  0.35365800671E+02  0.26582997323E+02  0.45386826448E+02  0.00000000000E+00 0.  1.
         14    1    6    6    0    0  0.68644375803E+02  0.55681235061E+02 -0.19483551868E+02  0.90509994258E+02  0.00000000000E+00 0. -1.
         -5    1    3    3    0  503  0.47550861476E+02 -0.13347835815E+02 -0.62097710098E+01  0.49999004031E+02  0.47000000000E+01 0.  1.
         11    1    4    4    0    0 -0.51705446072E+02 -0.66127045570E+01 -0.90608299348E+01  0.52908219156E+02  0.00000000000E+00 0. -1.
        -12    1    4    4    0    0 -0.28893509175E+02 -0.98772285692E+02  0.41540102130E+02  0.11097918444E+03  0.00000000000E+00 0.  1.
<mgrwt>
<rscale>  2 0.21203887E+03</rscale>
<asrwt>0</asrwt>
<pdfrwt beam="1">  1       21 0.43627585E-01 0.21226707E+03</pdfrwt>
<pdfrwt beam="2">  1       21 0.24940395E-01 0.21226707E+03</pdfrwt>
<totfact> 0.76181009E+04</totfact>
</mgrwt>
</event>
<event>
12    1  0.1074575E-001  0.1970508E+03  0.7546771E-02  0.1152809E+00
         21   -1    0    0  501  502  0.00000000000E+00  0.00000000000E+00  0.13538362404E+03  0.13538362404E+03  0.00000000000E+00 0. -1.
         21   -1    0    0  502  503 -0.00000000000E+00 -0.00000000000E+00 -0.28497761019E+03  0.28497761019E+03  0.00000000000E+00 0. -1.
         -6    2    1    2    0  503 -0.81337270019E+02  0.36469099667E+02 -0.92473166764E+02  0.21767014122E+03  0.17573632830E+03 0.  0.
        -24    2    3    3    0    0 -0.93180674363E+02 -0.21267264956E+02 -0.22535723042E+02  0.12608908390E+03  0.79092753346E+02 0.  0.
          6    2    1    2  501    0  0.81337270019E+02 -0.36469099667E+02 -0.57120819382E+02  0.20269109301E+03  0.17284427805E+03 0.  0.
         24    2    5    5    0    0  0.73080248424E+02 -0.89001628855E+02 -0.46716294330E+02  0.14830185538E+03  0.80925987815E+02 0.  0.
          5    1    5    5  501    0  0.82570215947E+01  0.52532529188E+02 -0.10404525052E+02  0.54389237631E+02  0.47000000000E+01 0. -1.
        -13    1    6    6    0    0 -0.16225510458E+02 -0.25251606151E+01 -0.46955534201E+01  0.17078988485E+02  0.00000000000E+00 0.  1.
         14    1    6    6    0    0  0.89305758882E+02 -0.86476468240E+02 -0.42020740910E+02  0.13122286689E+03  0.00000000000E+00 0. -1.
         -5    1    3    3    0  503  0.11843404344E+02  0.57736364623E+02 -0.69937443722E+02  0.91581057325E+02  0.47000000000E+01 0.  1.
         13    1    4    4    0    0 -0.73393127124E+02  0.21230321287E+02 -0.20780787326E+02  0.79177766910E+02  0.00000000000E+00 0. -1.
        -14    1    4    4    0    0 -0.19787547239E+02 -0.42497586243E+02 -0.17549357161E+01  0.46911316988E+02  0.00000000000E+00 0.  1.
<mgrwt>
<rscale>  2 0.19640388E+03</rscale>
<asrwt>0</asrwt>
<pdfrwt beam="1">  1       21 0.20828250E-01 0.19705076E+03</pdfrwt>
<pdfrwt beam="2">  1       21 0.43842709E-01 0.19705076E+03</pdfrwt>
<totfact> 0.10676212E+05</totfact>
</mgrwt>
</event>
<event>
12    1  0.1074575E-001  0.2382634E+03  0.7546771E-02  0.1120991E+00
         21   -1    0    0  501  502  0.00000000000E+00  0.00000000000E+00  0.12089216545E+04  0.12089216545E+04  0.00000000000E+00 0. -1.
         21   -1    0    0  502  503 -0.00000000000E+00 -0.00000000000E+00 -0.22209203230E+03  0.22209203230E+03  0.00000000000E+00 0.  1.
         -6    2    1    2    0  503 -0.15530654759E+03  0.52480536137E+02 -0.14208549436E+03  0.27722913382E+03  0.17260757381E+03 0.  0.
        -24    2    3    3    0    0 -0.22117800416E+02 -0.33474611763E+01 -0.91147469037E+02  0.12402084397E+03  0.81073460729E+02 0.  0.
          6    2    1    2  501    0  0.15530654759E+03 -0.52480536137E+02  0.11289151165E+04  0.11537845529E+04  0.17290206440E+03 0.  0.
         24    2    5    5    0    0  0.36634997579E+02  0.75773997480E+01  0.67159924210E+03  0.67749704371E+03  0.80976306468E+02 0.  0.
          5    1    5    5  501    0  0.11867155001E+03 -0.60057935885E+02  0.45731587443E+03  0.47628750923E+03  0.47000000000E+01 0. -1.
        -11    1    6    6    0    0 -0.22091891990E+02  0.41946306825E+01  0.33830994339E+03  0.33905643249E+03  0.00000000000E+00 0.  1.
         12    1    6    6    0    0  0.58726889570E+02  0.33827690655E+01  0.33328929871E+03  0.33844061122E+03  0.00000000000E+00 0. -1.
         -5    1    3    3    0  503 -0.13318874717E+03  0.55827997313E+02 -0.50938025328E+02  0.15320828986E+03  0.47000000000E+01 0.  1.
         13    1    4    4    0    0 -0.51419506955E+02 -0.12870834452E+02 -0.52626268741E+02  0.74693696096E+02  0.00000000000E+00 0. -1.
        -14    1    4    4    0    0  0.29301706539E+02  0.95233732760E+01 -0.38521200296E+02  0.49327147869E+02  0.00000000000E+00 0.  1.
<mgrwt>
<rscale>  2 0.23820999E+03</rscale>
<asrwt>0</asrwt>
<pdfrwt beam="1">  1       21 0.18598794E+00 0.23826341E+03</pdfrwt>
<pdfrwt beam="2">  1       21 0.34168006E-01 0.23826341E+03</pdfrwt>
<totfact> 0.13089313E+03</totfact>
</mgrwt>
</event>
<event>
12    1  0.1074575E-001  0.1884110E+03  0.7546771E-02  0.1160505E+00
         21   -1    0    0  501  502  0.00000000000E+00  0.00000000000E+00  0.27907835308E+02  0.27907835308E+02  0.00000000000E+00 0.  1.
         21   -1    0    0  502  503 -0.00000000000E+00 -0.00000000000E+00 -0.15465901594E+04  0.15465901594E+04  0.00000000000E+00 0. -1.
         -6    2    1    2    0  503  0.67676114720E+02  0.35094617656E+01 -0.10972338409E+04  0.11128514734E+04  0.17298533882E+03 0.  0.
        -24    2    3    3    0    0  0.45673598310E+02  0.22574782860E+01 -0.10811868812E+04  0.10851879034E+04  0.81095867613E+02 0.  0.
          6    2    1    2  501    0 -0.67676114720E+02 -0.35094617656E+01 -0.42144848322E+03  0.46164652132E+03  0.17580191640E+03 0.  0.
         24    2    5    5    0    0 -0.11412213752E+03  0.72093735560E+01 -0.28449913913E+03  0.31656261693E+03  0.78716535318E+02 0.  0.
          5    1    5    5  501    0  0.46446022804E+02 -0.10718835322E+02 -0.13694934409E+03  0.14508390438E+03  0.47000000000E+01 0. -1.
        -11    1    6    6    0    0 -0.89471260796E+02  0.38084045604E+02 -0.22532308463E+03  0.24540984802E+03  0.00000000000E+00 0.  1.
         12    1    6    6    0    0 -0.24650876728E+02 -0.30874672048E+02 -0.59176054498E+02  0.71152768910E+02  0.00000000000E+00 0. -1.
         -5    1    3    3    0  503  0.22002516410E+02  0.12519834796E+01 -0.16046959639E+02  0.27663569992E+02  0.47000000000E+01 0.  1.
         11    1    4    4    0    0 -0.10974202082E+02 -0.23149576142E+02 -0.50863740853E+03  0.50928219029E+03  0.00000000000E+00 0. -1.
        -12    1    4    4    0    0  0.56647800392E+02  0.25407054428E+02 -0.57254947271E+03  0.57590571312E+03  0.00000000000E+00 0.  1.
<mgrwt>
<rscale>  2 0.18775116E+03</rscale>
<asrwt>0</asrwt>
<pdfrwt beam="1">  1       21 0.42935131E-02 0.18841095E+03</pdfrwt>
<pdfrwt beam="2">  1       21 0.23793695E+00 0.18841095E+03</pdfrwt>
<totfact> 0.27361698E+04</totfact>
</mgrwt>
</event>
<event>
12    1  0.1074575E-001  0.2533320E+03  0.7546771E-02  0.1111393E+00
         21   -1    0    0  501  502  0.00000000000E+00  0.00000000000E+00  0.68134625058E+03  0.68134625058E+03  0.00000000000E+00 0.  1.
         21   -1    0    0  502  503 -0.00000000000E+00 -0.00000000000E+00 -0.10871011297E+03  0.10871011297E+03  0.00000000000E+00 0. -1.
         -6    2    1    2    0  503  0.10311799483E+03  0.15120073724E+03  0.43330659175E+03  0.50192800750E+03  0.17516317668E+03 0.  0.
        -24    2    3    3    0    0  0.66221938813E+02  0.14935073690E+02  0.15979732622E+03  0.19409841448E+03  0.86779072531E+02 0.  0.
          6    2    1    2  501    0 -0.10311799483E+03 -0.15120073724E+03  0.13932954587E+03  0.28812835605E+03  0.17352303423E+03 0.  0.
         24    2    5    5    0    0 -0.41943591449E+02 -0.15609426897E+03  0.13729708847E+03  0.22654528074E+03  0.79671751913E+02 0.  0.
          5    1    5    5  501    0 -0.61174403377E+02  0.48935317355E+01  0.20324573968E+01  0.61583075308E+02  0.47000000000E+01 0. -1.
        -11    1    6    6    0    0 -0.35173422486E+02 -0.14648079319E+03  0.14760742590E+03  0.21090695722E+03  0.00000000000E+00 0.  1.
         12    1    6    6    0    0 -0.67701689636E+01 -0.96134757793E+01 -0.10310337433E+02  0.15638323514E+02  0.00000000000E+00 0. -1.
         -5    1    3    3    0  503  0.36896056013E+02  0.13626566355E+03  0.27350926553E+03  0.30782959302E+03  0.47000000000E+01 0.  1.
         13    1    4    4    0    0 -0.16629247188E+02  0.20353014289E+02  0.28659522430E+02  0.38886312227E+02  0.00000000000E+00 0. -1.
        -14    1    4    4    0    0  0.82851186001E+02 -0.54179405990E+01  0.13113780379E+03  0.15521210225E+03  0.00000000000E+00 0.  1.
<mgrwt>
<rscale>  2 0.25304875E+03</rscale>
<asrwt>0</asrwt>
<pdfrwt beam="1">  1       21 0.10482250E+00 0.25333204E+03</pdfrwt>
<pdfrwt beam="2">  1       21 0.16724633E-01 0.25333204E+03</pdfrwt>
<totfact> 0.22809951E+04</totfact>
</mgrwt>
</event>
<event>
11    1  0.1074575E-001  0.2037604E+03  0.7546771E-02  0.1146620E+00
         21   -1    0    0  501  502  0.00000000000E+00  0.00000000000E+00  0.21721318725E+03  0.21721318725E+03  0.00000000000E+00 0. -1.
         21   -1    0    0  502  503 -0.00000000000E+00 -0.00000000000E+00 -0.42862333322E+03  0.42862333322E+03  0.00000000000E+00 0.  1.
         -6    2    1    2    0  503  0.10648072007E+03  0.14355678327E+02 -0.34611434983E+03  0.40163844374E+03  0.17313020269E+03 0.  0.
        -24    2    3    3    0    0  0.95646913618E+02  0.70169763121E+02 -0.27859802676E+03  0.31324654759E+03  0.80214782438E+02 0.  0.
          6    2    1    2  501    0 -0.10648072007E+03 -0.14355678327E+02  0.13470420386E+03  0.24419807672E+03  0.17304117687E+03 0.  0.
          5    1    5    5  501    0 -0.10458746887E+03  0.58272590040E+02  0.90730485158E+02  0.15029419261E+03  0.47000000000E+01 0. -1.
        -13    1    5    5    0    0 -0.20844807423E+02 -0.34995752562E+02  0.19278663590E+02  0.45065236754E+02  0.00000000000E+00 0.  1.
         14    1    5    5    0    0  0.18951556228E+02 -0.37632515804E+02  0.24695055112E+02  0.48838647363E+02  0.00000000000E+00 0. -1.
         -5    1    3    3    0  503  0.10833806448E+02 -0.55814084794E+02 -0.67516323073E+02  0.88391896150E+02  0.47000000000E+01 0.  1.
         13    1    4    4    0    0  0.35718245413E+02 -0.12979708465E+02 -0.50709914208E+02  0.63370034608E+02  0.00000000000E+00 0. -1.
        -14    1    4    4    0    0  0.59928668205E+02  0.83149471586E+02 -0.22788811255E+03  0.24987651298E+03  0.00000000000E+00 0.  1.
<mgrwt>
<rscale>  2 0.20374148E+03</rscale>
<asrwt>0</asrwt>
<pdfrwt beam="1">  1       21 0.33417414E-01 0.20376039E+03</pdfrwt>
<pdfrwt beam="2">  1       21 0.65942051E-01 0.20376039E+03</pdfrwt>
<totfact> 0.18091823E+04</totfact>
</mgrwt>
</event>
<event>
12    1  0.1074575E-001  0.3386936E+03  0.7546771E-02  0.1067887E+00
         21   -1    0    0  503  502  0.00000000000E+00  0.00000000000E+00  0.22322864367E+03  0.22322864367E+03  0.00000000000E+00 0. -1.
         21   -1    0    0  501  503 -0.00000000000E+00 -0.00000000000E+00 -0.12134932007E+04  0.12134932007E+04  0.00000000000E+00 0. -1.
          6    2    1    2  501    0  0.35444343986E+00  0.28779578615E+03 -0.10450003296E+04  0.10985167428E+04  0.17856876912E+03 0.  0.
         24    2    3    3    0    0 -0.79192640343E+01  0.28461227145E+03 -0.10469337617E+04  0.10882982713E+04  0.85181958085E+02 0.  0.
         -6    2    1    2    0  502 -0.35444343986E+00 -0.28779578615E+03  0.54735772544E+02  0.33820510155E+03  0.16899747266E+03 0.  0.
        -24    2    5    5    0    0  0.34933780479E+02 -0.25426610629E+03  0.49461763774E+01  0.26841547435E+03  0.78426911094E+02 0.  0.
          5    1    3    3  501    0  0.82737074741E+01  0.31835146999E+01  0.19334321540E+01  0.10218471564E+02  0.47000000000E+01 0. -1.
        -13    1    4    4    0    0  0.99267080126E+01  0.19104438427E+02 -0.18428053589E+03  0.18553391875E+03  0.00000000000E+00 0.  1.
         14    1    4    4    0    0 -0.17845972047E+02  0.26550783302E+03 -0.86265322586E+03  0.90276435253E+03  0.00000000000E+00 0. -1.
         -5    1    5    5    0  502 -0.35288223919E+02 -0.33529679856E+02  0.49789596167E+02  0.69789627202E+02  0.47000000000E+01 0.  1.
         13    1    6    6    0    0  0.47903116766E+02 -0.15408450044E+03  0.30499031678E+02  0.16421611615E+03  0.00000000000E+00 0. -1.
        -14    1    6    6    0    0 -0.12969336287E+02 -0.10018160585E+03 -0.25552855300E+02  0.10419935820E+03  0.00000000000E+00 0.  1.
<mgrwt>
<rscale>  2 0.33744997E+03</rscale>
<asrwt>0</asrwt>
<pdfrwt beam="1">  1       21 0.34342868E-01 0.33869359E+03</pdfrwt>
<pdfrwt beam="2">  1       21 0.18669126E+00 0.33869359E+03</pdfrwt>
<totfact> 0.11915346E+03</totfact>
</mgrwt>
</event>
<event>
12    1  0.1074575E-001  0.2116847E+03  0.7546771E-02  0.1140299E+00
         21   -1    0    0  501  502  0.00000000000E+00  0.00000000000E+00  0.98629303762E+02  0.98629303762E+02  0.00000000000E+00 0.  1.
         21   -1    0    0  502  503 -0.00000000000E+00 -0.00000000000E+00 -0.45367733314E+03  0.45367733314E+03  0.00000000000E+00 0. -1.
         -6    2    1    2    0  503  0.11370838673E+03 -0.41484229257E+02 -0.17717701030E+03  0.27604732426E+03  0.17366604090E+03 0.  0.
        -24    2    3    3    0    0  0.55799415731E+02  0.41478000930E+02 -0.11051654640E+03  0.15479598197E+03  0.83149802453E+02 0.  0.
          6    2    1    2  501    0 -0.11370838673E+03  0.41484229257E+02 -0.17787101908E+03  0.27625931265E+03  0.17329330600E+03 0.  0.
         24    2    5    5    0    0 -0.10237793864E+03  0.24701894726E+02 -0.41826808182E+02  0.13863612011E+03  0.79869055285E+02 0.  0.
          5    1    5    5  501    0 -0.11330448093E+02  0.16782334532E+02 -0.13604421090E+03  0.13762319254E+03  0.47000000000E+01 0. -1.
        -13    1    6    6    0    0 -0.83518349517E+02 -0.17371246993E+02 -0.19974906830E+02  0.87613194389E+02  0.00000000000E+00 0.  1.
         14    1    6    6    0    0 -0.18859589121E+02  0.42073141719E+02 -0.21851901352E+02  0.51022925716E+02  0.00000000000E+00 0. -1.
         -5    1    3    3    0  503  0.57908971000E+02 -0.82962230188E+02 -0.66660463902E+02  0.12125134229E+03  0.47000000000E+01 0.  1.
         11    1    4    4    0    0  0.90191703486E+01  0.45330311497E+02 -0.94505017498E+02  0.10520162027E+03  0.00000000000E+00 0. -1.
        -12    1    4    4    0    0  0.46780245382E+02 -0.38523105669E+01 -0.16011528900E+02  0.49594361700E+02  0.00000000000E+00 0.  1.
<mgrwt>
<rscale>  2 0.21160828E+03</rscale>
<asrwt>0</asrwt>
<pdfrwt beam="1">  1       21 0.15173739E-01 0.21168475E+03</pdfrwt>
<pdfrwt beam="2">  1       21 0.69796514E-01 0.21168475E+03</pdfrwt>
<totfact> 0.71027837E+04</totfact>
</mgrwt>
</event>
<event>
12    1  0.1074575E-001  0.1971524E+03  0.7546771E-02  0.1152665E+00
         21   -1    0    0  503  502  0.00000000000E+00  0.00000000000E+00  0.31209388689E+03  0.31209388689E+03  0.00000000000E+00 0.  1.
         21   -1    0    0  501  503 -0.00000000000E+00 -0.00000000000E+00 -0.16372366764E+03  0.16372366764E+03  0.00000000000E+00 0.  1.
          6    2    1    2  501    0  0.80102017779E+01  0.88727304503E+02 -0.44016143502E+02  0.20200612664E+03  0.17587596884E+03 0.  0.
         24    2    3    3    0    0  0.46785655455E+01  0.63268500309E+02  0.43836109457E+02  0.11035811051E+03  0.78946285257E+02 0.  0.
         -6    2    1    2    0  502 -0.80102017779E+01 -0.88727304503E+02  0.19238636275E+03  0.27381142788E+03  0.17327287027E+03 0.  0.
        -24    2    5    5    0    0  0.51675330208E+02 -0.16090441141E+02  0.73476018935E+02  0.12215313924E+03  0.81199889285E+02 0.  0.
          5    1    3    3  501    0  0.33316362324E+01  0.25458804195E+02 -0.87852252959E+02  0.91648016132E+02  0.47000000000E+01 0. -1.
        -11    1    4    4    0    0 -0.31367396785E+02  0.46258610365E+02  0.74415704532E+01  0.56383947936E+02  0.00000000000E+00 0.  1.
         12    1    4    4    0    0  0.36045962330E+02  0.17009889943E+02  0.36394539004E+02  0.53974162573E+02  0.00000000000E+00 0. -1.
         -5    1    5    5    0  502 -0.59685531986E+02 -0.72636863362E+02  0.11891034381E+03  0.15165828864E+03  0.47000000000E+01 0.  1.
         11    1    6    6    0    0 -0.16805682397E+01  0.22858804701E+02 -0.56347679785E+00  0.22927423930E+02  0.00000000000E+00 0. -1.
        -12    1    6    6    0    0  0.53355898447E+02 -0.38949245842E+02  0.74039495733E+02  0.99225715312E+02  0.00000000000E+00 0.  1.
<mgrwt>
<rscale>  2 0.19657013E+03</rscale>
<asrwt>0</asrwt>
<pdfrwt beam="1">  1       21 0.48014444E-01 0.19715236E+03</pdfrwt>
<pdfrwt beam="2">  1       21 0.25188257E-01 0.19715236E+03</pdfrwt>
<totfact> 0.61767400E+04</totfact>
</mgrwt>
</event>
<event>
12    1  0.1074575E-001  0.2049072E+03  0.7546771E-02  0.1145930E+00
         21   -1    0    0  501  502  0.00000000000E+00  0.00000000000E+00  0.70702343472E+02  0.70702343472E+02  0.00000000000E+00 0. -1.
         21   -1    0    0  502  503 -0.00000000000E+00 -0.00000000000E+00 -0.60052508890E+03  0.60052508890E+03  0.00000000000E+00 0.  1.
         -6    2    1    2    0  503 -0.70855313703E+02  0.81667008850E+02 -0.21984948931E+03  0.29964923087E+03  0.17252793337E+03 0.  0.
        -24    2    3    3    0    0 -0.11171975336E+03  0.54557996609E+02 -0.19616254873E+03  0.24498697581E+03  0.77980731639E+02 0.  0.
          6    2    1    2  501    0  0.70855313703E+02 -0.81667008850E+02 -0.30997325612E+03  0.37157820151E+03  0.17406023243E+03 0.  0.
         24    2    5    5    0    0 -0.16862808952E+00 -0.41082259262E+01 -0.22072140045E+03  0.23356461937E+03  0.76273120078E+02 0.  0.
          5    1    5    5  501    0  0.71023941792E+02 -0.77558782924E+02 -0.89251855664E+02  0.13801358214E+03  0.47000000000E+01 0. -1.
        -11    1    6    6    0    0 -0.36591214650E+02  0.30180486821E+01 -0.13975798958E+03  0.14450024657E+03  0.00000000000E+00 0.  1.
         12    1    6    6    0    0  0.36422586560E+02 -0.71262746083E+01 -0.80963410877E+02  0.89064372800E+02  0.00000000000E+00 0. -1.
         -5    1    3    3    0  503  0.40864439659E+02  0.27109012241E+02 -0.23686940581E+02  0.54662255053E+02  0.47000000000E+01 0.  1.
         13    1    4    4    0    0 -0.86696162053E+02  0.19461626344E+01 -0.13554697254E+03  0.16091300080E+03  0.00000000000E+00 0. -1.
        -14    1    4    4    0    0 -0.25023591309E+02  0.52611833974E+02 -0.60615576196E+02  0.84073975009E+02  0.00000000000E+00 0.  1.
<mgrwt>
<rscale>  2 0.20458137E+03</rscale>
<asrwt>0</asrwt>
<pdfrwt beam="1">  1       21 0.10877283E-01 0.20490715E+03</pdfrwt>
<pdfrwt beam="2">  1       21 0.92388479E-01 0.20490715E+03</pdfrwt>
<totfact> 0.68721452E+04</totfact>
</mgrwt>
</event>
<event>
12    1  0.1074575E-001  0.2058335E+03  0.7546771E-02  0.1144964E+00
         21   -1    0    0  501  502  0.00000000000E+00  0.00000000000E+00  0.67931464113E+02  0.67931464113E+02  0.00000000000E+00 0. -1.
         21   -1    0    0  502  503 -0.00000000000E+00 -0.00000000000E+00 -0.64951349318E+03  0.64951349318E+03  0.00000000000E+00 0. -1.
         -6    2    1    2    0  503  0.67548415175E+02  0.89375491119E+02 -0.21792781839E+03  0.29957917538E+03  0.17234959091E+03 0.  0.
        -24    2    3    3    0    0  0.30184114326E+02  0.12219249381E+02 -0.18997966923E+03  0.20928872373E+03  0.81542040361E+02 0.  0.
          6    2    1    2  501    0 -0.67548415175E+02 -0.89375491119E+02 -0.36365421068E+03  0.41786578192E+03  0.17267501252E+03 0.  0.
         24    2    5    5    0    0 -0.87548913100E+02 -0.14556138792E+02 -0.15648332621E+03  0.19664231849E+03  0.79400734738E+02 0.  0.
          5    1    5    5  501    0  0.20000497925E+02 -0.74819352327E+02 -0.20717088447E+03  0.22122346343E+03  0.47000000000E+01 0. -1.
        -11    1    6    6    0    0 -0.94377021696E+02 -0.14589018538E+02 -0.16187292513E+03  0.18794335736E+03  0.00000000000E+00 0.  1.
         12    1    6    6    0    0  0.68281085953E+01  0.32879746418E-01  0.53895989239E+01  0.86989611234E+01  0.00000000000E+00 0. -1.
         -5    1    3    3    0  503  0.37364300849E+02  0.77156241738E+02 -0.27948149156E+02  0.90290451645E+02  0.47000000000E+01 0.  1.
         13    1    4    4    0    0  0.36300754186E+02  0.27762405944E+02 -0.47799811969E+02  0.66131066546E+02  0.00000000000E+00 0. -1.
        -14    1    4    4    0    0 -0.61166398604E+01 -0.15543156563E+02 -0.14217985726E+03  0.14315765719E+03  0.00000000000E+00 0.  1.
<mgrwt>
<rscale>  2 0.20576523E+03</rscale>
<asrwt>0</asrwt>
<pdfrwt beam="1">  1       21 0.10450995E-01 0.20583349E+03</pdfrwt>
<pdfrwt beam="2">  1       21 0.99925152E-01 0.20583349E+03</pdfrwt>
<totfact> 0.61329966E+04</totfact>
</mgrwt>
</event>
<event>
12    1  0.1074575E-001  0.1819267E+03  0.7546771E-02  0.1166046E+00
         21   -1    0    0  501  502  0.00000000000E+00  0.00000000000E+00  0.26739378220E+04  0.26739378220E+04  0.00000000000E+00 0. -1.
         21   -1    0    0  502  503 -0.00000000000E+00 -0.00000000000E+00 -0.66291557884E+02  0.66291557884E+02  0.00000000000E+00 0. -1.
         -6    2    1    2    0  503  0.52423813502E+02  0.20126087232E+02  0.68179409619E+02  0.19428271186E+03  0.17304341831E+03 0.  0.
        -24    2    3    3    0    0 -0.91310094556E+01  0.34569121673E+02 -0.15103878066E+02  0.89612785514E+02  0.80770815819E+02 0.  0.
          6    2    1    2  501    0 -0.52423813502E+02 -0.20126087232E+02  0.25394668545E+04  0.25459466681E+04  0.17262449344E+03 0.  0.
         24    2    5    5    0    0  0.97648492937E+01  0.17176007115E+02  0.20589044125E+04  0.20599207153E+04  0.61608491213E+02 0.  0.
          5    1    5    5  501    0 -0.62188662796E+02 -0.37302094347E+02  0.48056244205E+03  0.48602595274E+03  0.47000000000E+01 0. -1.
        -13    1    6    6    0    0 -0.23852310572E+02  0.19710392009E+02  0.10234097690E+04  0.10238774280E+04  0.00000000000E+00 0.  1.
         14    1    6    6    0    0  0.33617159865E+02 -0.25343848934E+01  0.10354946435E+04  0.10360432873E+04  0.00000000000E+00 0. -1.
         -5    1    3    3    0  503  0.61554822957E+02 -0.14443034441E+02  0.83283287685E+02  0.10466992634E+03  0.47000000000E+01 0.  1.
         13    1    4    4    0    0 -0.20993639983E+02  0.55296507479E+02  0.36313482611E+01  0.59258951639E+02  0.00000000000E+00 0. -1.
        -14    1    4    4    0    0  0.11862630528E+02 -0.20727385806E+02 -0.18735226327E+02  0.30353833876E+02  0.00000000000E+00 0.  1.
<mgrwt>
<rscale>  2 0.18182706E+03</rscale>
<asrwt>0</asrwt>
<pdfrwt beam="1">  1       21 0.41137497E+00 0.18192674E+03</pdfrwt>
<pdfrwt beam="2">  1       21 0.10198703E-01 0.18192674E+03</pdfrwt>
<totfact> 0.59012146E+02</totfact>
</mgrwt>
</event>
<event>
12    1  0.1074575E-001  0.1936962E+03  0.7546771E-02  0.1159644E+00
         21   -1    0    0  503  502  0.00000000000E+00  0.00000000000E+00  0.70439109711E+03  0.70439109711E+03  0.00000000000E+00 0. -1.
         21   -1    0    0  501  503 -0.00000000000E+00 -0.00000000000E+00 -0.62316037338E+02  0.62316037338E+02  0.00000000000E+00 0. -1.
          6    2    1    2  501    0 -0.26455529427E+02 -0.14211916743E+01  0.15110417014E+03  0.24566375693E+03  0.19187573169E+03 0.  0.
         24    2    3    3    0    0  0.42802992363E+02  0.47364714346E+02  0.11167450321E+03  0.15210310227E+03  0.81170479435E+02 0.  0.
         -6    2    1    2    0  502  0.26455529427E+02  0.14211916743E+01  0.49097088963E+03  0.52104337751E+03  0.17242932455E+03 0.  0.
        -24    2    5    5    0    0 -0.26922509523E+02 -0.48678311367E+02  0.34254682686E+03  0.35548079824E+03  0.77031615634E+02 0.  0.
          5    1    3    3  501    0 -0.69258521790E+02 -0.48785906021E+02  0.39429666925E+02  0.93560654661E+02  0.47000000000E+01 0. -1.
        -11    1    4    4    0    0  0.34750015313E+02  0.48285240809E+02  0.24151074071E+02  0.64205158851E+02  0.00000000000E+00 0.  1.
         12    1    4    4    0    0  0.80529770504E+01 -0.92052646311E+00  0.87523429143E+02  0.87897943419E+02  0.00000000000E+00 0. -1.
         -5    1    5    5    0  502  0.53378038950E+02  0.50099503041E+02  0.14842406277E+03  0.16556257927E+03  0.47000000000E+01 0.  1.
         13    1    6    6    0    0 -0.38031609654E+01  0.20095317692E+02  0.10974743587E+03  0.11163684654E+03  0.00000000000E+00 0. -1.
        -14    1    6    6    0    0 -0.23119348558E+02 -0.68773629059E+02  0.23279939099E+03  0.24384395169E+03  0.00000000000E+00 0.  1.
<mgrwt>
<rscale>  2 0.18869496E+03</rscale>
<asrwt>0</asrwt>
<pdfrwt beam="1">  1       21 0.10836786E+00 0.19369618E+03</pdfrwt>
<pdfrwt beam="2">  1       21 0.95870832E-02 0.19369618E+03</pdfrwt>
<totfact> 0.59161899E+04</totfact>
</mgrwt>
</event>
<event>
12    1  0.1074575E-001  0.2098790E+03  0.7546771E-02  0.1141921E+00
         21   -1    0    0  501  502  0.00000000000E+00  0.00000000000E+00  0.45887789095E+03  0.45887789095E+03  0.00000000000E+00 0. -1.
         21   -1    0    0  502  503 -0.00000000000E+00 -0.00000000000E+00 -0.95402944296E+02  0.95402944296E+02  0.00000000000E+00 0. -1.
         -6    2    1    2    0  503 -0.29703831818E+02 -0.11565744404E+03  0.18418971222E+03  0.27924015037E+03  0.17259852115E+03 0.  0.
        -24    2    3    3    0    0  0.13086495882E+02 -0.97966917665E+02  0.45944745134E+02  0.13337127846E+03  0.76864848799E+02 0.  0.
          6    2    1    2  501    0  0.29703831818E+02  0.11565744404E+03  0.17928523443E+03  0.27504068488E+03  0.17101234185E+03 0.  0.
         24    2    5    5    0    0  0.37172279743E+02  0.33546135112E+02  0.22855423198E+02  0.98149699772E+02  0.81264208810E+02 0.  0.
          5    1    5    5  501    0 -0.74684479250E+01  0.82111308926E+02  0.15642981123E+03  0.17689098510E+03  0.47000000000E+01 0. -1.
        -11    1    6    6    0    0 -0.14697886115E+02  0.29976712309E+02 -0.12086252662E+02  0.35506459138E+02  0.00000000000E+00 0.  1.
         12    1    6    6    0    0  0.51870165857E+02  0.35694228037E+01  0.34941675860E+02  0.62643240634E+02  0.00000000000E+00 0. -1.
         -5    1    3    3    0  503 -0.42790327700E+02 -0.17690526374E+02  0.13824496709E+03  0.14586887191E+03  0.47000000000E+01 0.  1.
         11    1    4    4    0    0  0.82516940340E+01 -0.58694777891E+02  0.66251920272E+02  0.88895918612E+02  0.00000000000E+00 0. -1.
        -12    1    4    4    0    0  0.48348018483E+01 -0.39272139774E+02 -0.20307175139E+02  0.44475359846E+02  0.00000000000E+00 0.  1.
<mgrwt>
<rscale>  2 0.20955266E+03</rscale>
<asrwt>0</asrwt>
<pdfrwt beam="1">  1       21 0.70596598E-01 0.20987904E+03</pdfrwt>
<pdfrwt beam="2">  1       21 0.14677376E-01 0.20987904E+03</pdfrwt>
<totfact> 0.73649306E+04</totfact>
</mgrwt>
</event>
<event>
12    1  0.1074575E-001  0.2374931E+03  0.7546771E-02  0.1121767E+00
         21   -1    0    0  501  502  0.00000000000E+00  0.00000000000E+00  0.11241968702E+03  0.11241968702E+03  0.00000000000E+00 0.  1.
         21   -1    0    0  502  503 -0.00000000000E+00 -0.00000000000E+00 -0.58883261911E+03  0.58883261911E+03  0.00000000000E+00 0. -1.
         -6    2    1    2    0  503 -0.14927204150E+03  0.60412824575E+02 -0.37512464811E+03  0.44306193302E+03  0.17220198351E+03 0.  0.
        -24    2    3    3    0    0 -0.42807372186E+02 -0.28783818054E+02 -0.18712353154E+03  0.20927297541E+03  0.78223927839E+02 0.  0.
          6    2    1    2  501    0  0.14927204150E+03 -0.60412824575E+02 -0.10128828398E+03  0.25819037311E+03  0.17455973347E+03 0.  0.
         24    2    5    5    0    0  0.53315289316E+02 -0.92021231670E+02 -0.36006850587E+02  0.13781369250E+03  0.79910533722E+02 0.  0.
          5    1    5    5  501    0  0.95956752183E+02  0.31608407095E+02 -0.65281433389E+02  0.12037668061E+03  0.47000000000E+01 0. -1.
        -11    1    6    6    0    0  0.67394298628E+02 -0.54801002217E+02 -0.43638217090E+01  0.86972318996E+02  0.00000000000E+00 0.  1.
         12    1    6    6    0    0 -0.14079009312E+02 -0.37220229452E+02 -0.31643028878E+02  0.50841373509E+02  0.00000000000E+00 0. -1.
         -5    1    3    3    0  503 -0.10646466931E+03  0.89196642629E+02 -0.18800111657E+03  0.23378895761E+03  0.47000000000E+01 0.  1.
         13    1    4    4    0    0  0.10349893330E+02  0.16041470607E+02 -0.74553474479E+02  0.76958882711E+02  0.00000000000E+00 0. -1.
        -14    1    4    4    0    0 -0.53157265516E+02 -0.44825288661E+02 -0.11257005706E+03  0.13231409270E+03  0.00000000000E+00 0.  1.
<mgrwt>
<rscale>  2 0.23705999E+03</rscale>
<asrwt>0</asrwt>
<pdfrwt beam="1">  1       21 0.17295337E-01 0.23749306E+03</pdfrwt>
<pdfrwt beam="2">  1       21 0.90589632E-01 0.23749306E+03</pdfrwt>
<totfact> 0.30544284E+04</totfact>
</mgrwt>
</event>
<event>
12    1  0.1074575E-001  0.1910972E+03  0.7546771E-02  0.1158308E+00
         21   -1    0    0  503  502  0.00000000000E+00  0.00000000000E+00  0.19128891551E+03  0.19128891551E+03  0.00000000000E+00 0. -1.
         21   -1    0    0  501  503 -0.00000000000E+00 -0.00000000000E+00 -0.46900442500E+03  0.46900442500E+03  0.00000000000E+00 0. -1.
          6    2    1    2  501    0 -0.18860685725E+02 -0.70301451611E+02 -0.39420653660E+03  0.43648920278E+03  0.17270208766E+03 0.  0.
         24    2    3    3    0    0  0.18611601874E+02 -0.52776934494E+02 -0.10352700770E+03  0.14284322621E+03  0.80960171756E+02 0.  0.
         -6    2    1    2    0  502  0.18860685725E+02  0.70301451611E+02  0.11649102711E+03  0.22380413773E+03  0.17669214216E+03 0.  0.
        -24    2    5    5    0    0  0.61627279292E+02  0.95591918233E+02  0.72153973201E+02  0.15704746333E+03  0.80758736403E+02 0.  0.
          5    1    3    3  501    0 -0.37472287599E+02 -0.17524517117E+02 -0.29067952890E+03  0.29364597658E+03  0.47000000000E+01 0. -1.
        -13    1    4    4    0    0 -0.18536790242E+02 -0.29319635663E+02 -0.51065536142E+01  0.35061809961E+02  0.00000000000E+00 0.  1.
         14    1    4    4    0    0  0.37148392116E+02 -0.23457298830E+02 -0.98420454091E+02  0.10778141625E+03  0.00000000000E+00 0. -1.
         -5    1    5    5    0  502 -0.42766593567E+02 -0.25290466622E+02  0.44337053912E+02  0.66756674400E+02  0.47000000000E+01 0.  1.
         11    1    6    6    0    0  0.18553560307E+02  0.89907612527E+01  0.55103627531E+02  0.58834328033E+02  0.00000000000E+00 0. -1.
        -12    1    6    6    0    0  0.43073718984E+02  0.86601156980E+02  0.17050345670E+02  0.98213135297E+02  0.00000000000E+00 0.  1.
<mgrwt>
<rscale>  2 0.19016967E+03</rscale>
<asrwt>0</asrwt>
<pdfrwt beam="1">  1       21 0.29429064E-01 0.19109718E+03</pdfrwt>
<pdfrwt beam="2">  1       21 0.72154526E-01 0.19109718E+03</pdfrwt>
<totfact> 0.19187514E+04</totfact>
</mgrwt>
</event>
<event>
12    1  0.1074575E-001  0.1907027E+03  0.7546771E-02  0.1158100E+00
         21   -1    0    0  503  502  0.00000000000E+00  0.00000000000E+00  0.87167954133E+02  0.87167954133E+02  0.00000000000E+00 0. -1.
         21   -1    0    0  501  503 -0.00000000000E+00 -0.00000000000E+00 -0.86078515279E+03  0.86078515279E+03  0.00000000000E+00 0. -1.
          6    2    1    2  501    0 -0.78011287887E+02  0.10488145222E+02 -0.44970870834E+02  0.19476456772E+03  0.17238067000E+03 0.  0.
         24    2    3    3    0    0  0.14436436515E+02  0.28909321396E+01 -0.59005234833E+02  0.10083186433E+03  0.80428097942E+02 0.  0.
         -6    2    1    2    0  502  0.78011287887E+02 -0.10488145222E+02 -0.72864632783E+03  0.75318853920E+03  0.17370015056E+03 0.  0.
        -24    2    5    5    0    0  0.84232615816E+02 -0.63086215320E+02 -0.59021269325E+03  0.60489415940E+03  0.80442008127E+02 0.  0.
          5    1    3    3  501    0 -0.92447724402E+02  0.75972130820E+01  0.14034363999E+02  0.93932703393E+02  0.47000000000E+01 0. -1.
        -11    1    4    4    0    0  0.38167793241E+02 -0.10305169462E+02 -0.43118567774E+01  0.39768946018E+02  0.00000000000E+00 0.  1.
         12    1    4    4    0    0 -0.23731356727E+02  0.13196101601E+02 -0.54693378056E+02  0.61062918311E+02  0.00000000000E+00 0. -1.
         -5    1    5    5    0  502 -0.62213279290E+01  0.52598070098E+02 -0.13843363457E+03  0.14829437980E+03  0.47000000000E+01 0.  1.
         13    1    6    6    0    0  0.10825716677E+02 -0.49756857507E+02 -0.34010608607E+03  0.34389691884E+03  0.00000000000E+00 0. -1.
        -14    1    6    6    0    0  0.73406899140E+02 -0.13329357813E+02 -0.25010660718E+03  0.26099724056E+03  0.00000000000E+00 0.  1.
<mgrwt>
<rscale>  2 0.19040168E+03</rscale>
<asrwt>0</asrwt>
<pdfrwt beam="1">  1       21 0.13410454E-01 0.19070266E+03</pdfrwt>
<pdfrwt beam="2">  1       21 0.13242849E+00 0.19070266E+03</pdfrwt>
<totfact> 0.19850190E+04</totfact>
</mgrwt>
</event>
<event>
12    1  0.1074575E-001  0.2149032E+03  0.7546771E-02  0.1137889E+00
         21   -1    0    0  501  502  0.00000000000E+00  0.00000000000E+00  0.34578466656E+03  0.34578466656E+03  0.00000000000E+00 0. -1.
         21   -1    0    0  502  503 -0.00000000000E+00 -0.00000000000E+00 -0.14651647842E+03  0.14651647842E+03  0.00000000000E+00 0.  1.
         -6    2    1    2    0  503  0.11970764404E+03 -0.45765383699E+02  0.17400459866E+03  0.27591808537E+03  0.17154824130E+03 0.  0.
        -24    2    3    3    0    0  0.12784540086E+03  0.13010117523E+02  0.10557510103E+03  0.18522371522E+03  0.81535348448E+02 0.  0.
          6    2    1    2  501    0 -0.11970764404E+03  0.45765383699E+02  0.25263589484E+02  0.21638305961E+03  0.17250793938E+03 0.  0.
         24    2    5    5    0    0 -0.83980574397E+02  0.86529611892E+02  0.28084173311E+02  0.16190194822E+03  0.10432358045E+03 0.  0.
          5    1    5    5  501    0 -0.35727069641E+02 -0.40764228193E+02 -0.28205838273E+01  0.54481111392E+02  0.47000000000E+01 0. -1.
        -11    1    6    6    0    0 -0.81885725176E+02  0.47684143342E+02 -0.23176708314E+02  0.97551060077E+02  0.00000000000E+00 0.  1.
         12    1    6    6    0    0 -0.20948492215E+01  0.38845468551E+02  0.51260881625E+02  0.64350888146E+02  0.00000000000E+00 0. -1.
         -5    1    3    3    0  503 -0.81377568164E+01 -0.58775501222E+02  0.68429497631E+02  0.90694370145E+02  0.47000000000E+01 0.  1.
         13    1    4    4    0    0  0.12390737729E+03  0.32714643489E+01  0.11647291801E+03  0.17008727541E+03  0.00000000000E+00 0. -1.
        -14    1    4    4    0    0  0.39380235690E+01  0.97386531740E+01 -0.10897816985E+02  0.15136439817E+02  0.00000000000E+00 0.  1.
<mgrwt>
<rscale>  2 0.21471053E+03</rscale>
<asrwt>0</asrwt>
<pdfrwt beam="1">  1       21 0.53197641E-01 0.21490319E+03</pdfrwt>
<pdfrwt beam="2">  1       21 0.22540997E-01 0.21490319E+03</pdfrwt>
<totfact> 0.61077233E+04</totfact>
</mgrwt>
</event>
<event>
12    1  0.1074575E-001  0.2033074E+03  0.7546771E-02  0.1147000E+00
         21   -1    0    0  503  502  0.00000000000E+00  0.00000000000E+00  0.14226424102E+04  0.14226424102E+04  0.00000000000E+00 0.  1.
         21   -1    0    0  501  503 -0.00000000000E+00 -0.00000000000E+00 -0.32155326736E+02  0.32155326736E+02  0.00000000000E+00 0.  1.
          6    2    1    2  501    0 -0.11493869796E+02 -0.10529398757E+03  0.46896317233E+03  0.51113634824E+03  0.17353667229E+03 0.  0.
         24    2    3    3    0    0 -0.64056412086E+02 -0.58288063435E+02  0.19722195997E+03  0.23035573237E+03  0.81648880403E+02 0.  0.
         -6    2    1    2    0  502  0.11493869796E+02  0.10529398757E+03  0.92152391117E+03  0.94366138873E+03  0.17341154766E+03 0.  0.
        -24    2    5    5    0    0  0.26868193845E+01  0.41410930084E+01  0.22319835238E+03  0.23797721839E+03  0.82409248974E+02 0.  0.
          5    1    3    3  501    0  0.52562542290E+02 -0.47005924140E+02  0.27174121235E+03  0.28078061587E+03  0.47000000000E+01 0. -1.
        -13    1    4    4    0    0 -0.50665464513E+02 -0.78641457711E+02  0.14260371548E+03  0.17054995701E+03  0.00000000000E+00 0.  1.
         14    1    4    4    0    0 -0.13390947572E+02  0.20353394276E+02  0.54618244493E+02  0.59805775364E+02  0.00000000000E+00 0. -1.
         -5    1    5    5    0  502  0.88070504117E+01  0.10115289457E+03  0.69832555878E+03  0.70568417034E+03  0.47000000000E+01 0.  1.
         11    1    6    6    0    0  0.19620627914E+02  0.38976860342E+02  0.12619638141E+03  0.13352786737E+03  0.00000000000E+00 0. -1.
        -12    1    6    6    0    0 -0.16933808530E+02 -0.34835767334E+02  0.97001970970E+02  0.10444935102E+03  0.00000000000E+00 0.  1.
<mgrwt>
<rscale>  2 0.20328072E+03</rscale>
<asrwt>0</asrwt>
<pdfrwt beam="1">  1       21 0.21886801E+00 0.20330743E+03</pdfrwt>
<pdfrwt beam="2">  1       21 0.49469744E-02 0.20330743E+03</pdfrwt>
<totfact> 0.27772907E+04</totfact>
</mgrwt>
</event>
<event>
12    1  0.1074575E-001  0.1824513E+03  0.7546771E-02  0.1165606E+00
         21   -1    0    0  503  502  0.00000000000E+00  0.00000000000E+00  0.34241493036E+03  0.34241493036E+03  0.00000000000E+00 0. -1.
         21   -1    0    0  501  503 -0.00000000000E+00 -0.00000000000E+00 -0.10067684970E+03  0.10067684970E+03  0.00000000000E+00 0.  1.
          6    2    1    2  501    0 -0.24129661032E+02 -0.48973051268E+02  0.16372980747E+03  0.24466357706E+03  0.17341342448E+03 0.  0.
         24    2    3    3    0    0 -0.18113656978E+02 -0.98705277466E+02  0.13710551154E+03  0.18773880423E+03  0.79856752686E+02 0.  0.
         -6    2    1    2    0  502  0.24129661032E+02  0.48973051268E+02  0.78008273191E+02  0.19842820301E+03  0.17409152986E+03 0.  0.
        -24    2    5    5    0    0 -0.24018389220E+02 -0.93414662496E+01 -0.10732793198E+02  0.81741080493E+02  0.76826202418E+02 0.  0.
          5    1    3    3  501    0 -0.60160040544E+01  0.49732226198E+02  0.26624295931E+02  0.56924772825E+02  0.47000000000E+01 0. -1.
        -11    1    4    4    0    0 -0.28827352758E+02 -0.42656978581E+02  0.16082760974E+02  0.53937827999E+02  0.00000000000E+00 0.  1.
         12    1    4    4    0    0  0.10713695780E+02 -0.56048298885E+02  0.12102275057E+03  0.13380097623E+03  0.00000000000E+00 0. -1.
         -5    1    5    5    0  502  0.48148050253E+02  0.58314517518E+02  0.88741066389E+02  0.11668712251E+03  0.47000000000E+01 0.  1.
         13    1    6    6    0    0 -0.44269865843E+02 -0.19412951406E+02  0.11859537073E+02  0.49772807070E+02  0.00000000000E+00 0. -1.
        -14    1    6    6    0    0  0.20251476622E+02  0.10071485156E+02 -0.22592330271E+02  0.31968273424E+02  0.00000000000E+00 0.  1.
<mgrwt>
<rscale>  2 0.18228931E+03</rscale>
<asrwt>0</asrwt>
<pdfrwt beam="1">  1       21 0.52679219E-01 0.18245126E+03</pdfrwt>
<pdfrwt beam="2">  1       21 0.15488746E-01 0.18245126E+03</pdfrwt>
<totfact> 0.12684409E+05</totfact>
</mgrwt>
</event>
<event>
12    1  0.1074575E-001  0.2147763E+03  0.7546771E-02  0.1138117E+00
         21   -1    0    0  503  502  0.00000000000E+00  0.00000000000E+00  0.76680091329E+02  0.76680091329E+02  0.00000000000E+00 0. -1.
         21   -1    0    0  501  503 -0.00000000000E+00 -0.00000000000E+00 -0.83383304076E+03  0.83383304076E+03  0.00000000000E+00 0. -1.
          6    2    1    2  501    0 -0.12584560419E+03 -0.10744296281E+02 -0.62183562994E+03  0.65788175502E+03  0.17371326064E+03 0.  0.
         24    2    3    3    0    0 -0.90821634977E+02 -0.53495340348E+02 -0.25991868512E+03  0.29173930305E+03  0.80273141504E+02 0.  0.
         -6    2    1    2    0  502  0.12584560419E+03  0.10744296281E+02 -0.13531731949E+03  0.25263137707E+03  0.17192812374E+03 0.  0.
        -24    2    5    5    0    0 -0.51518146296E+00 -0.22857162185E+02 -0.53139598515E+02  0.98127739621E+02  0.79262355994E+02 0.  0.
          5    1    3    3  501    0 -0.35023969208E+02  0.42751044067E+02 -0.36191694482E+03  0.36614245197E+03  0.47000000000E+01 0. -1.
        -11    1    4    4    0    0 -0.70061184859E+02 -0.15822603484E+02 -0.83449220118E+02  0.11010311868E+03  0.00000000000E+00 0.  1.
         12    1    4    4    0    0 -0.20760450119E+02 -0.37672736864E+02 -0.17646946500E+03  0.18163618437E+03  0.00000000000E+00 0. -1.
         -5    1    5    5    0  502  0.12636078565E+03  0.33601458466E+02 -0.82177720970E+02  0.15450363745E+03  0.47000000000E+01 0.  1.
         11    1    6    6    0    0  0.25193321491E+02  0.15562663488E+02 -0.40558627899E+02  0.50218544778E+02  0.00000000000E+00 0. -1.
        -12    1    6    6    0    0 -0.25708502954E+02 -0.38419825672E+02 -0.12580970616E+02  0.47909194843E+02  0.00000000000E+00 0.  1.
<mgrwt>
<rscale>  2 0.21441506E+03</rscale>
<asrwt>0</asrwt>
<pdfrwt beam="1">  1       21 0.11796937E-01 0.21477629E+03</pdfrwt>
<pdfrwt beam="2">  1       21 0.12828201E+00 0.21477629E+03</pdfrwt>
<totfact> 0.26685792E+04</totfact>
</mgrwt>
</event>
<event>
12    1  0.1074575E-001  0.4683637E+03  0.7546771E-02  0.1022427E+00
         21   -1    0    0  503  502  0.00000000000E+00  0.00000000000E+00  0.18264509796E+04  0.18264509796E+04  0.00000000000E+00 0. -1.
         21   -1    0    0  501  503 -0.00000000000E+00 -0.00000000000E+00 -0.13552485219E+03  0.13552485219E+03  0.00000000000E+00 0. -1.
          6    2    1    2  501    0  0.21581119102E+03 -0.37766450683E+03  0.51334670910E+03  0.69490244694E+03  0.17366524444E+03 0.  0.
         24    2    3    3    0    0  0.19590604173E+03 -0.32717733024E+03  0.35342105342E+03  0.52595430309E+03  0.79355562628E+02 0.  0.
         -6    2    1    2    0  502 -0.21581119102E+03  0.37766450683E+03  0.11775794183E+04  0.12670733849E+04  0.17197885415E+03 0.  0.
        -24    2    5    5    0    0 -0.21096120882E+03  0.25427419685E+03  0.80013231486E+03  0.86991208659E+03  0.85879673479E+02 0.  0.
          5    1    3    3  501    0  0.19905149290E+02 -0.50487176588E+02  0.15992565567E+03  0.16894814385E+03  0.47000000000E+01 0. -1.
        -13    1    4    4    0    0 -0.55587611568E+01 -0.48504349845E+00  0.67069637181E+01  0.87245891084E+01  0.00000000000E+00 0.  1.
         14    1    4    4    0    0  0.20146480289E+03 -0.32669228675E+03  0.34671408971E+03  0.51722971398E+03  0.00000000000E+00 0. -1.
         -5    1    5    5    0  502 -0.48499822031E+01  0.12339030999E+03  0.37744710347E+03  0.39716129827E+03  0.47000000000E+01 0.  1.
         11    1    6    6    0    0 -0.19012592724E+03  0.25425507610E+03  0.77334317639E+03  0.83597438980E+03  0.00000000000E+00 0. -1.
        -12    1    6    6    0    0 -0.20835281577E+02  0.19120750404E-01  0.26789138465E+02  0.33937696794E+02  0.00000000000E+00 0.  1.
<mgrwt>
<rscale>  2 0.46820797E+03</rscale>
<asrwt>0</asrwt>
<pdfrwt beam="1">  1       21 0.28099244E+00 0.46836371E+03</pdfrwt>
<pdfrwt beam="2">  1       21 0.20849979E-01 0.46836371E+03</pdfrwt>
<totfact> 0.75097942E+02</totfact>
</mgrwt>
</event>
<event>
12    1  0.1074575E-001  0.2202304E+03  0.7546771E-02  0.1134213E+00
         21   -1    0    0  503  502  0.00000000000E+00  0.00000000000E+00  0.29337809427E+03  0.29337809427E+03  0.00000000000E+00 0.  1.
         21   -1    0    0  501  503 -0.00000000000E+00 -0.00000000000E+00 -0.19268547574E+03  0.19268547574E+03  0.00000000000E+00 0. -1.
          6    2    1    2  501    0 -0.10873174808E+03  0.82538421168E+02 -0.44797604613E+02  0.22211500102E+03  0.16939027212E+03 0.  0.
         24    2    3    3    0    0 -0.74979523929E+02  0.10313990469E+03  0.23217716328E+01  0.16042254300E+03  0.97315120767E+02 0.  0.
         -6    2    1    2    0  502  0.10873174808E+03 -0.82538421168E+02  0.14549022314E+03  0.26394856900E+03  0.17281856970E+03 0.  0.
        -24    2    5    5    0    0  0.12781836436E+02  0.97892123248E+01  0.30299771226E+02  0.87818765543E+02  0.80838452636E+02 0.  0.
          5    1    3    3  501    0 -0.33752224154E+02 -0.20601483524E+02 -0.47119376245E+02  0.61692458020E+02  0.47000000000E+01 0. -1.
        -13    1    4    4    0    0 -0.89681456151E+02  0.58049785063E+02  0.22007577105E+02  0.10907279484E+03  0.00000000000E+00 0.  1.
         14    1    4    4    0    0  0.14701932222E+02  0.45090119628E+02 -0.19685805473E+02  0.51349748162E+02  0.00000000000E+00 0. -1.
         -5    1    5    5    0  502  0.95949911647E+02 -0.92327633493E+02  0.11519045192E+03  0.17612980345E+03  0.47000000000E+01 0.  1.
         11    1    6    6    0    0  0.11163781839E+02 -0.28565260442E+02 -0.99059302851E+01  0.32229359036E+02  0.00000000000E+00 0. -1.
        -12    1    6    6    0    0  0.16180545971E+01  0.38354472766E+02  0.40205701511E+02  0.55589406508E+02  0.00000000000E+00 0.  1.
<mgrwt>
<rscale>  2 0.21955738E+03</rscale>
<asrwt>0</asrwt>
<pdfrwt beam="1">  1       21 0.45135092E-01 0.22023043E+03</pdfrwt>
<pdfrwt beam="2">  1       21 0.29643919E-01 0.22023043E+03</pdfrwt>
<totfact> 0.50702880E+04</totfact>
</mgrwt>
</event>
<event>
11    1  0.1074575E-001  0.2201829E+03  0.7546771E-02  0.1135051E+00
         21   -1    0    0  503  502  0.00000000000E+00  0.00000000000E+00  0.43404268651E+03  0.43404268651E+03  0.00000000000E+00 0.  1.
         21   -1    0    0  501  503 -0.00000000000E+00 -0.00000000000E+00 -0.11906015453E+03  0.11906015453E+03  0.00000000000E+00 0. -1.
          6    2    1    2  501    0 -0.13736669349E+02 -0.13181213143E+03  0.23861737546E+03  0.32005312854E+03  0.16713054520E+03 0.  0.
         -6    2    1    2    0  502  0.13736669349E+02  0.13181213143E+03  0.76365156520E+02  0.23304971250E+03  0.17583343621E+03 0.  0.
        -24    2    4    4    0    0  0.52871473347E+02  0.13521907130E+03  0.92533479454E+02  0.19031044731E+03  0.81092734555E+02 0.  0.
          5    1    3    3  501    0  0.18186982057E+02  0.26549944546E+01  0.71043391766E+02  0.73532773819E+02  0.47000000000E+01 0. -1.
        -13    1    3    3    0    0 -0.12763067501E+02  0.92572476657E+01  0.69992320849E+02  0.71746202020E+02  0.00000000000E+00 0.  1.
         14    1    3    3    0    0 -0.19160583906E+02 -0.14372437355E+03  0.97581662849E+02  0.17477415270E+03  0.00000000000E+00 0. -1.
         -5    1    4    4    0  502 -0.39134803998E+02 -0.34069398631E+01 -0.16168322934E+02  0.42739265198E+02  0.47000000000E+01 0.  1.
         11    1    5    5    0    0 -0.18771265334E+02  0.49103599767E+02  0.42608853791E+02  0.67668591930E+02  0.00000000000E+00 0. -1.
        -12    1    5    5    0    0  0.71642738681E+02  0.86115471529E+02  0.49924625663E+02  0.12264185538E+03  0.00000000000E+00 0.  1.
<mgrwt>
<rscale>  2 0.21844098E+03</rscale>
<asrwt>0</asrwt>
<pdfrwt beam="1">  1       21 0.66775797E-01 0.22018295E+03</pdfrwt>
<pdfrwt beam="2">  1       21 0.18316947E-01 0.22018295E+03</pdfrwt>
<totfact> 0.55147914E+04</totfact>
</mgrwt>
</event>
<event>
12    1  0.1074575E-001  0.1867058E+03  0.7546771E-02  0.1161710E+00
         21   -1    0    0  501  502  0.00000000000E+00  0.00000000000E+00  0.27331445616E+03  0.27331445616E+03  0.00000000000E+00 0.  1.
         21   -1    0    0  502  503 -0.00000000000E+00 -0.00000000000E+00 -0.13261298390E+03  0.13261298390E+03  0.00000000000E+00 0. -1.
         -6    2    1    2    0  503 -0.32623772928E+02  0.55927919028E+02  0.27760518798E+02  0.18771948339E+03  0.17399918204E+03 0.  0.
        -24    2    3    3    0    0  0.43551140557E+02  0.63019927922E+02  0.66378562842E+01  0.10821369173E+03  0.76144131642E+02 0.  0.
          6    2    1    2  501    0  0.32623772928E+02 -0.55927919028E+02  0.11294095346E+03  0.21820795668E+03  0.17511941840E+03 0.  0.
         24    2    5    5    0    0 -0.23109802749E+02  0.62619569317E+01  0.10414762187E+03  0.13410549054E+03  0.81020246630E+02 0.  0.
          5    1    5    5  501    0  0.55733575677E+02 -0.62189875959E+02  0.87933315893E+01  0.84102466135E+02  0.47000000000E+01 0. -1.
        -13    1    6    6    0    0 -0.14663576084E+02  0.16498296264E+01  0.11706840225E+03  0.11799471686E+03  0.00000000000E+00 0.  1.
         14    1    6    6    0    0 -0.84462266648E+01  0.46121273052E+01 -0.12920780376E+02  0.16110773684E+02  0.00000000000E+00 0. -1.
         -5    1    3    3    0  503 -0.76174913485E+02 -0.70920088942E+01  0.21122662514E+02  0.79505791652E+02  0.47000000000E+01 0.  1.
         13    1    4    4    0    0  0.72256139271E+01  0.15036270425E+02 -0.32425124257E+02  0.36464881845E+02  0.00000000000E+00 0. -1.
        -14    1    4    4    0    0  0.36325526630E+02  0.47983657497E+02  0.39062980541E+02  0.71748809889E+02  0.00000000000E+00 0.  1.
<mgrwt>
<rscale>  2 0.18644266E+03</rscale>
<asrwt>0</asrwt>
<pdfrwt beam="1">  1       21 0.42048378E-01 0.18670579E+03</pdfrwt>
<pdfrwt beam="2">  1       21 0.20401998E-01 0.18670579E+03</pdfrwt>
<totfact> 0.12131531E+05</totfact>
</mgrwt>
</event>
<event>
12    1  0.1074575E-001  0.1937688E+03  0.7546771E-02  0.1157479E+00
         21   -1    0    0  501  502  0.00000000000E+00  0.00000000000E+00  0.12946525693E+03  0.12946525693E+03  0.00000000000E+00 0.  1.
         21   -1    0    0  502  503 -0.00000000000E+00 -0.00000000000E+00 -0.27560452013E+03  0.27560452013E+03  0.00000000000E+00 0.  1.
         -6    2    1    2    0  503  0.10124494967E+02  0.64525478133E+02 -0.83647941374E+02  0.20147334229E+03  0.17125561840E+03 0.  0.
        -24    2    3    3    0    0  0.68913340662E+02  0.55096425221E+02 -0.37149654438E+02  0.12578175686E+03  0.81586083012E+02 0.  0.
          6    2    1    2  501    0 -0.10124494967E+02 -0.64525478133E+02 -0.62491321824E+02  0.20359643477E+03  0.18242889086E+03 0.  0.
         24    2    5    5    0    0 -0.65305570960E+02 -0.58965930976E+02  0.19019119920E+00  0.11976969806E+03  0.81258512088E+02 0.  0.
          5    1    5    5  501    0  0.55181075993E+02 -0.55595471567E+01 -0.62681513024E+02  0.83826736709E+02  0.47000000000E+01 0. -1.
        -11    1    6    6    0    0 -0.38446429220E+02 -0.60547701435E+02 -0.31382289045E+02  0.78287930964E+02  0.00000000000E+00 0.  1.
         12    1    6    6    0    0 -0.26859141740E+02  0.15817704590E+01  0.31572480244E+02  0.41481767098E+02  0.00000000000E+00 0. -1.
         -5    1    3    3    0  503 -0.58788845695E+02  0.94290529114E+01 -0.46498286936E+02  0.75691585430E+02  0.47000000000E+01 0.  1.
         13    1    4    4    0    0  0.54046699096E+02  0.13636389680E+02  0.14801783842E+02  0.57672260331E+02  0.00000000000E+00 0. -1.
        -14    1    4    4    0    0  0.14866641565E+02  0.41460035541E+02 -0.51951438280E+02  0.68109496532E+02  0.00000000000E+00 0.  1.
<mgrwt>
<rscale>  2 0.19109373E+03</rscale>
<asrwt>0</asrwt>
<pdfrwt beam="1">  1       21 0.19917732E-01 0.19376879E+03</pdfrwt>
<pdfrwt beam="2">  1       21 0.42400695E-01 0.19376879E+03</pdfrwt>
<totfact> 0.12444697E+05</totfact>
</mgrwt>
</event>
<event>
12    1  0.1074575E-001  0.2454129E+03  0.7546771E-02  0.1116501E+00
         21   -1    0    0  503  502  0.00000000000E+00  0.00000000000E+00  0.68346446633E+03  0.68346446633E+03  0.00000000000E+00 0.  1.
         21   -1    0    0  501  503 -0.00000000000E+00 -0.00000000000E+00 -0.13707874829E+03  0.13707874829E+03  0.00000000000E+00 0.  1.
          6    2    1    2  501    0  0.14097533190E+03  0.97594220697E+02  0.52039861507E+03  0.57536266353E+03  0.17558131989E+03 0.  0.
         24    2    3    3    0    0  0.57212360277E+02  0.19286991316E+01  0.36868342295E+03  0.37735327751E+03  0.56489429423E+02 0.  0.
         -6    2    1    2    0  502 -0.14097533190E+03 -0.97594220697E+02  0.25987102968E+02  0.24518055110E+03  0.17331906127E+03 0.  0.
        -24    2    5    5    0    0 -0.77233542728E+00 -0.17777044214E+02  0.14370108346E+02  0.83363659378E+02  0.80164704753E+02 0.  0.
          5    1    3    3  501    0  0.83762971625E+02  0.95665521565E+02  0.15171519212E+03  0.19800938602E+03  0.47000000000E+01 0. -1.
        -11    1    4    4    0    0  0.30334879788E+02 -0.19101017657E+02  0.94790681836E+02  0.10134262267E+03  0.00000000000E+00 0.  1.
         12    1    4    4    0    0  0.26877480490E+02  0.21029716789E+02  0.27389274112E+03  0.27601065484E+03  0.00000000000E+00 0. -1.
         -5    1    5    5    0  502 -0.14020299647E+03 -0.79817176483E+02  0.11616994622E+02  0.16181689172E+03  0.47000000000E+01 0.  1.
         13    1    6    6    0    0 -0.26817019221E+02  0.20457069911E+02  0.15427020872E+02  0.37089583473E+02  0.00000000000E+00 0. -1.
        -14    1    6    6    0    0  0.26044683794E+02 -0.38234114124E+02 -0.10569125266E+01  0.46274075905E+02  0.00000000000E+00 0.  1.
<mgrwt>
<rscale>  2 0.24500852E+03</rscale>
<asrwt>0</asrwt>
<pdfrwt beam="1">  1       21 0.10514838E+00 0.24541287E+03</pdfrwt>
<pdfrwt beam="2">  1       21 0.21089039E-01 0.24541287E+03</pdfrwt>
<totfact> 0.14740153E+04</totfact>
</mgrwt>
</event>
<event>
12    1  0.1074575E-001  0.2574073E+03  0.7546771E-02  0.1108924E+00
         21   -1    0    0  501  502  0.00000000000E+00  0.00000000000E+00  0.19101392386E+04  0.19101392386E+04  0.00000000000E+00 0.  1.
         21   -1    0    0  502  503 -0.00000000000E+00 -0.00000000000E+00 -0.52327985107E+02  0.52327985107E+02  0.00000000000E+00 0. -1.
         -6    2    1    2    0  503 -0.18704259386E+03  0.31332122561E+02  0.35783043788E+03  0.44079605585E+03  0.17404570309E+03 0.  0.
        -24    2    3    3    0    0 -0.77374675197E+02 -0.50550476362E+02  0.16422406065E+03  0.20365193998E+03  0.77216446041E+02 0.  0.
          6    2    1    2  501    0  0.18704259386E+03 -0.31332122561E+02  0.14999808156E+04  0.15216711678E+04  0.17197110815E+03 0.  0.
         24    2    5    5    0    0  0.36224618397E+02 -0.27391846408E+02  0.81449199414E+03  0.81976048845E+03  0.80916708220E+02 0.  0.
          5    1    5    5  501    0  0.15081797546E+03 -0.39402761529E+01  0.68548882145E+03  0.70191067938E+03  0.47000000000E+01 0. -1.
        -13    1    6    6    0    0  0.33651564563E+02 -0.41324550318E+02  0.78727322774E+03  0.78907495295E+03  0.00000000000E+00 0.  1.
         14    1    6    6    0    0  0.25730538340E+01  0.13932703910E+02  0.27218766402E+02  0.30685535497E+02  0.00000000000E+00 0. -1.
         -5    1    3    3    0  503 -0.10966791866E+03  0.81882598923E+02  0.19360637723E+03  0.23714411587E+03  0.47000000000E+01 0.  1.
         11    1    4    4    0    0 -0.87381854340E+02 -0.27804714050E+02  0.10487602116E+03  0.13931141520E+03  0.00000000000E+00 0. -1.
        -12    1    4    4    0    0  0.10007179142E+02 -0.22745762312E+02  0.59348039486E+02  0.64340524776E+02  0.00000000000E+00 0.  1.
<mgrwt>
<rscale>  2 0.25705709E+03</rscale>
<asrwt>0</asrwt>
<pdfrwt beam="1">  1       21 0.29386752E+00 0.25740734E+03</pdfrwt>
<pdfrwt beam="2">  1       21 0.80504607E-02 0.25740734E+03</pdfrwt>
<totfact> 0.41159068E+03</totfact>
</mgrwt>
</event>
<event>
12    1  0.1074575E-001  0.1923112E+03  0.7546771E-02  0.1157370E+00
         21   -1    0    0  503  502  0.00000000000E+00  0.00000000000E+00  0.98277817193E+02  0.98277817193E+02  0.00000000000E+00 0. -1.
         21   -1    0    0  501  503 -0.00000000000E+00 -0.00000000000E+00 -0.37053153953E+03  0.37053153953E+03  0.00000000000E+00 0. -1.
          6    2    1    2  501    0 -0.63435780408E+02 -0.48570764529E+02 -0.11467565720E+03  0.22018423614E+03  0.17013927850E+03 0.  0.
         24    2    3    3    0    0 -0.17858302943E+02  0.37427275702E+02 -0.51235565897E+02  0.10390997175E+03  0.80327324531E+02 0.  0.
         -6    2    1    2    0  502  0.63435780408E+02  0.48570764529E+02 -0.15757806514E+03  0.24862512058E+03  0.17492966177E+03 0.  0.
        -24    2    5    5    0    0  0.92957530199E+02 -0.11471803002E+02 -0.11894367756E+03  0.17122131234E+03  0.79977713665E+02 0.  0.
          5    1    3    3  501    0 -0.45577477465E+02 -0.85998040231E+02 -0.63440091299E+02  0.11627426439E+03  0.47000000000E+01 0. -1.
        -11    1    4    4    0    0  0.46699553870E+01 -0.58658781319E+01 -0.54484575625E+02  0.54998054426E+02  0.00000000000E+00 0.  1.
         12    1    4    4    0    0 -0.22528258330E+02  0.43293153834E+02  0.32490097286E+01  0.48911917326E+02  0.00000000000E+00 0. -1.
         -5    1    5    5    0  502 -0.29521749791E+02  0.60042567531E+02 -0.38634387581E+02  0.77403808240E+02  0.47000000000E+01 0.  1.
         13    1    6    6    0    0  0.97135444364E+02  0.11684967078E+01 -0.68027376045E+02  0.11859335491E+03  0.00000000000E+00 0. -1.
        -14    1    6    6    0    0 -0.41779141654E+01 -0.12640299710E+02 -0.50916301519E+02  0.52627957436E+02  0.00000000000E+00 0.  1.
<mgrwt>
<rscale>  2 0.19121516E+03</rscale>
<asrwt>0</asrwt>
<pdfrwt beam="1">  1       21 0.15119664E-01 0.19231122E+03</pdfrwt>
<pdfrwt beam="2">  1       21 0.57004852E-01 0.19231122E+03</pdfrwt>
<totfact> 0.11180064E+05</totfact>
</mgrwt>
</event>
<event>
12    1  0.1074575E-001  0.2240737E+03  0.7546771E-02  0.1131979E+00
         21   -1    0    0  501  502  0.00000000000E+00  0.00000000000E+00  0.39018805920E+04  0.39018805920E+04  0.00000000000E+00 0. -1.
         21   -1    0    0  502  503 -0.00000000000E+00 -0.00000000000E+00 -0.18816694715E+02  0.18816694715E+02  0.00000000000E+00 0. -1.
         -6    2    1    2    0  503 -0.10679210426E+03 -0.84969399779E+02  0.79102422453E+03  0.82054916509E+03  0.17016831699E+03 0.  0.
        -24    2    3    3    0    0  0.33113387045E+01 -0.35976466272E+02  0.23029687380E+03  0.24699853303E+03  0.81647744274E+02 0.  0.
          6    2    1    2  501    0  0.10679210426E+03  0.84969399779E+02  0.30920396727E+04  0.31001481216E+04  0.17772080826E+03 0.  0.
         24    2    5    5    0    0  0.15550895332E+02  0.99312904851E+02  0.15460896292E+04  0.15514343580E+04  0.80315268630E+02 0.  0.
          5    1    5    5  501    0  0.91241208926E+02 -0.14343505072E+02  0.15459500435E+04  0.15487137636E+04  0.47000000000E+01 0. -1.
        -11    1    6    6    0    0  0.55270290751E+01  0.37689327560E+02  0.18334546864E+03  0.18726076560E+03  0.00000000000E+00 0.  1.
         12    1    6    6    0    0  0.10023866257E+02  0.61623577291E+02  0.13627441605E+04  0.13641735924E+04  0.00000000000E+00 0. -1.
         -5    1    3    3    0  503 -0.11010344296E+03 -0.48992933507E+02  0.56072735072E+03  0.57355063206E+03  0.47000000000E+01 0.  1.
         13    1    4    4    0    0 -0.55418931610E+01 -0.22191810218E+02  0.82007565421E+01  0.24299000565E+02  0.00000000000E+00 0. -1.
        -14    1    4    4    0    0  0.88532318655E+01 -0.13784656054E+02  0.22209611726E+03  0.22269953246E+03  0.00000000000E+00 0.  1.
<mgrwt>
<rscale>  2 0.22257332E+03</rscale>
<asrwt>0</asrwt>
<pdfrwt beam="1">  1       21 0.60028868E+00 0.22407373E+03</pdfrwt>
<pdfrwt beam="2">  1       21 0.28948792E-02 0.22407373E+03</pdfrwt>
<totfact> 0.21695414E+02</totfact>
</mgrwt>
</event>
<event>
12    1  0.1074575E-001  0.2039487E+03  0.7546771E-02  0.1146475E+00
         21   -1    0    0  501  502  0.00000000000E+00  0.00000000000E+00  0.30719705787E+03  0.30719705787E+03  0.00000000000E+00 0.  1.
         21   -1    0    0  502  503 -0.00000000000E+00 -0.00000000000E+00 -0.28744409553E+03  0.28744409553E+03  0.00000000000E+00 0. -1.
         -6    2    1    2    0  503  0.67378667294E+01 -0.10768061652E+03 -0.20641954872E+03  0.29009385002E+03  0.17293032615E+03 0.  0.
        -24    2    3    3    0    0  0.12264246706E+02 -0.14419788670E+03 -0.15829839946E+03  0.22925153823E+03  0.80959509840E+02 0.  0.
          6    2    1    2  501    0 -0.67378667294E+01  0.10768061652E+03  0.22617251106E+03  0.30454730339E+03  0.17307380281E+03 0.  0.
         24    2    5    5    0    0 -0.11708826000E+02  0.53773939361E+01  0.38405218196E+02  0.90609681508E+02  0.81050235203E+02 0.  0.
          5    1    5    5  501    0  0.49709592702E+01  0.10230322258E+03  0.18776729287E+03  0.21393762188E+03  0.47000000000E+01 0. -1.
        -11    1    6    6    0    0 -0.33676209585E+02 -0.14148797519E+01  0.53407962606E+02  0.63154567899E+02  0.00000000000E+00 0.  1.
         12    1    6    6    0    0  0.21967383586E+02  0.67922736880E+01 -0.15002744410E+02  0.27455113609E+02  0.00000000000E+00 0. -1.
         -5    1    3    3    0  503 -0.55263799768E+01  0.36517270182E+02 -0.48121149264E+02  0.60842311788E+02  0.47000000000E+01 0.  1.
         11    1    4    4    0    0  0.60590470840E+01 -0.49101964176E+02 -0.11377352077E+03  0.12406501911E+03  0.00000000000E+00 0. -1.
        -12    1    4    4    0    0  0.62051996222E+01 -0.95095922522E+02 -0.44524878687E+02  0.10518651912E+03  0.00000000000E+00 0.  1.
<mgrwt>
<rscale>  2 0.20391822E+03</rscale>
<asrwt>0</asrwt>
<pdfrwt beam="1">  1       21 0.47261086E-01 0.20394866E+03</pdfrwt>
<pdfrwt beam="2">  1       21 0.44222168E-01 0.20394866E+03</pdfrwt>
<totfact> 0.20895192E+04</totfact>
</mgrwt>
</event>
<event>
12    1  0.1074575E-001  0.3378345E+03  0.7546771E-02  0.1067786E+00
         21   -1    0    0  503  502  0.00000000000E+00  0.00000000000E+00  0.27368428754E+04  0.27368428754E+04  0.00000000000E+00 0. -1.
         21   -1    0    0  501  503 -0.00000000000E+00 -0.00000000000E+00 -0.54497356959E+02  0.54497356959E+02  0.00000000000E+00 0.  1.
          6    2    1    2  501    0 -0.28948030387E+03 -0.47687614212E+01  0.66207142666E+03  0.74301419177E+03  0.17294486911E+03 0.  0.
         24    2    3    3    0    0 -0.11090643483E+03 -0.48832996923E+01  0.16008166458E+03  0.21018734273E+03  0.78920819848E+02 0.  0.
         -6    2    1    2    0  502  0.28948030387E+03  0.47687614212E+01  0.20202740918E+04  0.20483260406E+04  0.17409932577E+03 0.  0.
        -24    2    5    5    0    0  0.10828996280E+03  0.54897946909E+02  0.10227873712E+04  0.10332670657E+04  0.82500433889E+02 0.  0.
          5    1    3    3  501    0 -0.17857386904E+03  0.11453827103E+00  0.50198976208E+03  0.53282684903E+03  0.47000000000E+01 0. -1.
        -13    1    4    4    0    0  0.62929632334E+01 -0.10480874155E+02  0.41920985709E+02  0.43667140416E+02  0.00000000000E+00 0.  1.
         14    1    4    4    0    0 -0.11719939807E+03  0.55975744631E+01  0.11816067888E+03  0.16652020232E+03  0.00000000000E+00 0. -1.
         -5    1    5    5    0  502  0.18119034107E+03 -0.50129185488E+02  0.99748672053E+03  0.10150589749E+04  0.47000000000E+01 0.  1.
         11    1    6    6    0    0  0.47992590452E+02  0.49309915947E+02  0.78048370021E+03  0.78351104832E+03  0.00000000000E+00 0. -1.
        -12    1    6    6    0    0  0.60297372347E+02  0.55880309622E+01  0.24230367103E+03  0.24975601734E+03  0.00000000000E+00 0.  1.
<mgrwt>
<rscale>  2 0.33768605E+03</rscale>
<asrwt>0</asrwt>
<pdfrwt beam="1">  1       21 0.42105264E+00 0.33783452E+03</pdfrwt>
<pdfrwt beam="2">  1       21 0.83842109E-02 0.33783452E+03</pdfrwt>
<totfact> 0.59738344E+02</totfact>
</mgrwt>
</event>
<event>
12    1  0.1074575E-001  0.1775481E+03  0.7546771E-02  0.1170242E+00
         21   -1    0    0  503  502  0.00000000000E+00  0.00000000000E+00  0.28052299444E+02  0.28052299444E+02  0.00000000000E+00 0. -1.
         21   -1    0    0  501  503 -0.00000000000E+00 -0.00000000000E+00 -0.12075938685E+04  0.12075938685E+04  0.00000000000E+00 0. -1.
          6    2    1    2  501    0  0.10001602734E+02  0.39891678655E+02 -0.42555816924E+03  0.46104026323E+03  0.17253113003E+03 0.  0.
         24    2    3    3    0    0 -0.26103460013E+02 -0.35836586083E+02 -0.18800111869E+03  0.20906052614E+03  0.79976443011E+02 0.  0.
         -6    2    1    2    0  502 -0.10001602734E+02 -0.39891678655E+02 -0.75398339978E+03  0.77460590468E+03  0.17271931661E+03 0.  0.
        -24    2    5    5    0    0  0.22243065363E+02 -0.83882457048E+02 -0.45509313833E+03  0.47074345949E+03  0.83418340555E+02 0.  0.
          5    1    3    3  501    0  0.36105062747E+02  0.75728264738E+02 -0.23755705056E+03  0.25197973709E+03  0.47000000000E+01 0. -1.
        -11    1    4    4    0    0  0.98022708085E+01 -0.51387739080E+02 -0.10781463560E+03  0.11983647145E+03  0.00000000000E+00 0.  1.
         12    1    4    4    0    0 -0.35905730821E+02  0.15551152997E+02 -0.80186483085E+02  0.89224054687E+02  0.00000000000E+00 0. -1.
         -5    1    5    5    0  502 -0.32244668097E+02  0.43990778393E+02 -0.29889026146E+03  0.30386244519E+03  0.47000000000E+01 0.  1.
         11    1    6    6    0    0 -0.16356839159E+02 -0.12982949489E+01 -0.18407330364E+03  0.18480317332E+03  0.00000000000E+00 0. -1.
        -12    1    6    6    0    0  0.38599904522E+02 -0.82584162099E+02 -0.27101983469E+03  0.28594028617E+03  0.00000000000E+00 0.  1.
<mgrwt>
<rscale>  2 0.17750235E+03</rscale>
<asrwt>0</asrwt>
<pdfrwt beam="1">  1       21 0.43157388E-02 0.17754814E+03</pdfrwt>
<pdfrwt beam="2">  1       21 0.18578365E+00 0.17754814E+03</pdfrwt>
<totfact> 0.57906702E+04</totfact>
</mgrwt>
</event>
<event>
12    1  0.1074575E-001  0.1715143E+03  0.7546771E-02  0.1176781E+00
         21   -1    0    0  501  502  0.00000000000E+00  0.00000000000E+00  0.15743297315E+03  0.15743297315E+03  0.00000000000E+00 0.  1.
         21   -1    0    0  502  503 -0.00000000000E+00 -0.00000000000E+00 -0.26852965695E+03  0.26852965695E+03  0.00000000000E+00 0.  1.
         -6    2    1    2    0  503  0.28954043966E+01 -0.19376579259E+02 -0.17473054806E+03  0.24484265604E+03  0.17039168583E+03 0.  0.
        -24    2    3    3    0    0 -0.26830574790E+02 -0.14402584957E+02 -0.19152690947E+03  0.21002050484E+03  0.80614770381E+02 0.  0.
          6    2    1    2  501    0 -0.28954043966E+01  0.19376579259E+02  0.63633864258E+02  0.18111997406E+03  0.16843794445E+03 0.  0.
         24    2    5    5    0    0  0.42022748012E+02  0.41456926672E+02 -0.24778498051E+00  0.99829524020E+02  0.80506424271E+02 0.  0.
          5    1    5    5  501    0 -0.44918152409E+02 -0.22080347413E+02  0.63881649238E+02  0.81290450036E+02  0.47000000000E+01 0. -1.
        -13    1    6    6    0    0  0.36597749357E+02  0.38071337017E+02  0.35423441960E+02  0.63589639098E+02  0.00000000000E+00 0.  1.
         14    1    6    6    0    0  0.54249986552E+01  0.33855896555E+01 -0.35671226940E+02  0.36239884922E+02  0.00000000000E+00 0. -1.
         -5    1    3    3    0  503  0.29725979186E+02 -0.49739943023E+01  0.16796361407E+02  0.34822151203E+02  0.47000000000E+01 0.  1.
         13    1    4    4    0    0  0.18558841778E+02  0.21419314831E+02 -0.64601367378E+02  0.70544697342E+02  0.00000000000E+00 0. -1.
        -14    1    4    4    0    0 -0.45389416568E+02 -0.35821899788E+02 -0.12692554209E+03  0.13947580749E+03  0.00000000000E+00 0.  1.
<mgrwt>
<rscale>  2 0.17102705E+03</rscale>
<asrwt>0</asrwt>
<pdfrwt beam="1">  1       21 0.24220458E-01 0.17151432E+03</pdfrwt>
<pdfrwt beam="2">  1       21 0.41312255E-01 0.17151432E+03</pdfrwt>
<totfact> 0.91544900E+04</totfact>
</mgrwt>
</event>
<event>
12    1  0.1074575E-001  0.2430247E+03  0.7546771E-02  0.1118283E+00
         21   -1    0    0  501  502  0.00000000000E+00  0.00000000000E+00  0.38108259770E+02  0.38108259770E+02  0.00000000000E+00 0.  1.
         21   -1    0    0  502  503 -0.00000000000E+00 -0.00000000000E+00 -0.24729627032E+04  0.24729627032E+04  0.00000000000E+00 0.  1.
         -6    2    1    2    0  503 -0.15996330727E+03 -0.47804810089E+02 -0.19969310907E+04  0.20116646809E+04  0.17659968282E+03 0.  0.
        -24    2    3    3    0    0 -0.70599295182E+01 -0.38192635885E+02 -0.83720956400E+03  0.84185788223E+03  0.79349352644E+02 0.  0.
          6    2    1    2  501    0  0.15996330727E+03  0.47804810089E+02 -0.43792335274E+03  0.49940628205E+03  0.17249989024E+03 0.  0.
         24    2    5    5    0    0  0.58909004190E+02  0.62500574300E+02 -0.33395676920E+03  0.35360135020E+03  0.78295584868E+02 0.  0.
          5    1    5    5  501    0  0.10105430308E+03 -0.14695764211E+02 -0.10396658355E+03  0.14580493185E+03  0.47000000000E+01 0. -1.
        -11    1    6    6    0    0  0.37261815294E+02  0.62325926455E+02 -0.13343122866E+03  0.15191068682E+03  0.00000000000E+00 0.  1.
         12    1    6    6    0    0  0.21647188896E+02  0.17464784433E+00 -0.20052554054E+03  0.20169066339E+03  0.00000000000E+00 0. -1.
         -5    1    3    3    0  503 -0.15290337775E+03 -0.96121742036E+01 -0.11597215267E+04  0.11698067987E+04  0.47000000000E+01 0.  1.
         11    1    4    4    0    0 -0.21835580621E+02  0.15856205421E+02 -0.42523033592E+03  0.42608573130E+03  0.00000000000E+00 0. -1.
        -12    1    4    4    0    0  0.14775651103E+02 -0.54048841306E+02 -0.41197922808E+03  0.41577215092E+03  0.00000000000E+00 0.  1.
<mgrwt>
<rscale>  2 0.24228062E+03</rscale>
<asrwt>0</asrwt>
<pdfrwt beam="1">  1       21 0.58628079E-02 0.24302471E+03</pdfrwt>
<pdfrwt beam="2">  1       21 0.38045588E+00 0.24302471E+03</pdfrwt>
<totfact> 0.22112254E+03</totfact>
</mgrwt>
</event>
<event>
12    1  0.1074575E-001  0.2117140E+03  0.7546771E-02  0.1140236E+00
         21   -1    0    0  503  502  0.00000000000E+00  0.00000000000E+00  0.35146110247E+03  0.35146110247E+03  0.00000000000E+00 0.  1.
         21   -1    0    0  501  503 -0.00000000000E+00 -0.00000000000E+00 -0.28955543137E+03  0.28955543137E+03  0.00000000000E+00 0. -1.
          6    2    1    2  501    0  0.83154749870E+02  0.89466039557E+02 -0.20884216633E+03  0.29738506160E+03  0.17292755641E+03 0.  0.
         24    2    3    3    0    0  0.11825493505E+03  0.84177544273E+02 -0.13048532968E+03  0.21123475671E+03  0.80768883593E+02 0.  0.
         -6    2    1    2    0  502 -0.83154749870E+02 -0.89466039557E+02  0.27074783743E+03  0.34363147225E+03  0.17279847391E+03 0.  0.
        -24    2    5    5    0    0  0.10643143237E+02 -0.26890397637E+02  0.57514955248E+02  0.10237619716E+03  0.79602422611E+02 0.  0.
          5    1    3    3  501    0 -0.35100185185E+02  0.52884952842E+01 -0.78356836650E+02  0.86150304888E+02  0.47000000000E+01 0. -1.
        -11    1    4    4    0    0  0.80981257889E+02  0.23606385568E+02 -0.10718151228E+03  0.13639318951E+03  0.00000000000E+00 0.  1.
         12    1    4    4    0    0  0.37273677165E+02  0.60571158705E+02 -0.23303817397E+02  0.74841567204E+02  0.00000000000E+00 0. -1.
         -5    1    5    5    0  502 -0.93797893106E+02 -0.62575641920E+02  0.21323288218E+03  0.24125527508E+03  0.47000000000E+01 0.  1.
         11    1    6    6    0    0  0.35604714695E+02  0.26714453522E+01  0.52314358117E+02  0.63337385437E+02  0.00000000000E+00 0. -1.
        -12    1    6    6    0    0 -0.24961571459E+02 -0.29561842989E+02  0.52005971318E+01  0.39038811728E+02  0.00000000000E+00 0.  1.
<mgrwt>
<rscale>  2 0.21168766E+03</rscale>
<asrwt>0</asrwt>
<pdfrwt beam="1">  1       21 0.54070939E-01 0.21171402E+03</pdfrwt>
<pdfrwt beam="2">  1       21 0.44546990E-01 0.21171402E+03</pdfrwt>
<totfact> 0.15458902E+04</totfact>
</mgrwt>
</event>
<event>
12    1  0.1074575E-001  0.1779756E+03  0.7546771E-02  0.1170073E+00
         21   -1    0    0  501  502  0.00000000000E+00  0.00000000000E+00  0.25364583728E+03  0.25364583728E+03  0.00000000000E+00 0. -1.
         21   -1    0    0  502  503 -0.00000000000E+00 -0.00000000000E+00 -0.14748382572E+03  0.14748382572E+03  0.00000000000E+00 0. -1.
         -6    2    1    2    0  503  0.34373076978E+02  0.23318185790E+02 -0.27037768427E+02  0.17882921292E+03  0.17182432965E+03 0.  0.
        -24    2    3    3    0    0 -0.16100969240E+01 -0.44265262376E+02  0.14631138042E+02  0.91532597653E+02  0.78753668914E+02 0.  0.
          6    2    1    2  501    0 -0.34373076978E+02 -0.23318185790E+02  0.13319977998E+03  0.22230045008E+03  0.17306086360E+03 0.  0.
         24    2    5    5    0    0  0.33658599216E+02 -0.21953857937E+02  0.12446475545E+03  0.15353591700E+03  0.80417220045E+02 0.  0.
          5    1    5    5  501    0 -0.68031676194E+02 -0.13643278531E+01  0.87350245342E+01  0.68764533082E+02  0.47000000000E+01 0. -1.
        -13    1    6    6    0    0 -0.45422490730E+01 -0.44905743029E+02  0.57528943721E+02  0.73121386401E+02  0.00000000000E+00 0.  1.
         14    1    6    6    0    0  0.38200848289E+02  0.22951885092E+02  0.66935811729E+02  0.80414530597E+02  0.00000000000E+00 0. -1.
         -5    1    3    3    0  503  0.35983173902E+02  0.67583448166E+02 -0.41668906469E+02  0.87296615263E+02  0.47000000000E+01 0.  1.
         11    1    4    4    0    0 -0.22858868410E+02 -0.27336714433E+02  0.40551157158E+02  0.53983517556E+02  0.00000000000E+00 0. -1.
        -12    1    4    4    0    0  0.21248771486E+02 -0.16928547943E+02 -0.25920019116E+02  0.37549080096E+02  0.00000000000E+00 0.  1.
<mgrwt>
<rscale>  2 0.17767428E+03</rscale>
<asrwt>0</asrwt>
<pdfrwt beam="1">  1       21 0.39022436E-01 0.17797558E+03</pdfrwt>
<pdfrwt beam="2">  1       21 0.22689819E-01 0.17797558E+03</pdfrwt>
<totfact> 0.11590865E+05</totfact>
</mgrwt>
</event>
<event>
12    1  0.1074575E-001  0.3881064E+03  0.7546771E-02  0.1048057E+00
         21   -1    0    0  503  502  0.00000000000E+00  0.00000000000E+00  0.32932317701E+03  0.32932317701E+03  0.00000000000E+00 0.  1.
         21   -1    0    0  501  503 -0.00000000000E+00 -0.00000000000E+00 -0.47027693334E+03  0.47027693334E+03  0.00000000000E+00 0. -1.
          6    2    1    2  501    0 -0.12612824529E+03 -0.32235444834E+03 -0.13920158899E+03  0.41148978968E+03  0.17356854557E+03 0.  0.
         24    2    3    3    0    0 -0.10008825509E+03 -0.12787023231E+03 -0.21569655010E+02  0.18266331991E+03  0.80821923427E+02 0.  0.
         -6    2    1    2    0  502  0.12612824529E+03  0.32235444834E+03 -0.17521673440E+01  0.38811032067E+03  0.17551588615E+03 0.  0.
        -24    2    5    5    0    0  0.93092308046E+02  0.11509680813E+03 -0.36979353309E+02  0.17524851759E+03  0.86203928499E+02 0.  0.
          5    1    3    3  501    0 -0.26039990203E+02 -0.19448421604E+03 -0.11763193398E+03  0.22882646977E+03  0.47000000000E+01 0. -1.
        -11    1    4    4    0    0 -0.66380227356E+02 -0.85878080222E+02  0.25099345257E+02  0.11140626723E+03  0.00000000000E+00 0.  1.
         12    1    4    4    0    0 -0.33708027735E+02 -0.41992152085E+02 -0.46669000267E+02  0.71257052678E+02  0.00000000000E+00 0. -1.
         -5    1    5    5    0  502  0.33035937248E+02  0.20725764021E+03  0.35227185965E+02  0.21286180307E+03  0.47000000000E+01 0.  1.
         11    1    6    6    0    0  0.65879994972E+02  0.12561774657E+03 -0.34418299647E+02  0.14596099253E+03  0.00000000000E+00 0. -1.
        -12    1    6    6    0    0  0.27212313074E+02 -0.10520938437E+02 -0.25610536624E+01  0.29287525063E+02  0.00000000000E+00 0.  1.
<mgrwt>
<rscale>  2 0.38788699E+03</rscale>
<asrwt>0</asrwt>
<pdfrwt beam="1">  1       21 0.50665104E-01 0.38810637E+03</pdfrwt>
<pdfrwt beam="2">  1       21 0.72350297E-01 0.38810637E+03</pdfrwt>
<totfact> 0.57542191E+03</totfact>
</mgrwt>
</event>
<event>
12    1  0.1074575E-001  0.1891670E+03  0.7546771E-02  0.1159650E+00
         21   -1    0    0  501  502  0.00000000000E+00  0.00000000000E+00  0.17139885666E+02  0.17139885666E+02  0.00000000000E+00 0. -1.
         21   -1    0    0  502  503 -0.00000000000E+00 -0.00000000000E+00 -0.21818008967E+04  0.21818008967E+04  0.00000000000E+00 0.  1.
         -6    2    1    2    0  503 -0.54443107347E+02  0.51323573403E+02 -0.13399817683E+04  0.13532683796E+04  0.17374120671E+03 0.  0.
        -24    2    3    3    0    0 -0.13220840651E+02 -0.31030894961E+02 -0.41633920102E+03  0.42503391800E+03  0.78598944510E+02 0.  0.
          6    2    1    2  501    0  0.54443107347E+02 -0.51323573403E+02 -0.82467924276E+03  0.84567240273E+03  0.17166187160E+03 0.  0.
         24    2    5    5    0    0  0.41366235027E+02 -0.10087873059E+03 -0.58351742965E+03  0.59907996915E+03  0.80725058325E+02 0.  0.
          5    1    5    5  501    0  0.13076872320E+02  0.49555157191E+02 -0.24116181311E+03  0.24659243358E+03  0.47000000000E+01 0. -1.
        -13    1    6    6    0    0 -0.18862961918E+02 -0.59692074436E+02 -0.28069408476E+03  0.28759020202E+03  0.00000000000E+00 0.  1.
         14    1    6    6    0    0  0.60229196945E+02 -0.41186656158E+02 -0.30282334490E+03  0.31148976713E+03  0.00000000000E+00 0. -1.
         -5    1    3    3    0  503 -0.41222266696E+02  0.82354468364E+02 -0.92364256726E+03  0.92823446164E+03  0.47000000000E+01 0.  1.
         13    1    4    4    0    0 -0.36099305330E+01 -0.57333083574E+02 -0.28844268015E+03  0.29410762282E+03  0.00000000000E+00 0. -1.
        -14    1    4    4    0    0 -0.96109101181E+01  0.26302188613E+02 -0.12789652087E+03  0.13092629518E+03  0.00000000000E+00 0.  1.
<mgrwt>
<rscale>  2 0.18868823E+03</rscale>
<asrwt>0</asrwt>
<pdfrwt beam="1">  1       21 0.26369057E-02 0.18916704E+03</pdfrwt>
<pdfrwt beam="2">  1       21 0.33566165E+00 0.18916704E+03</pdfrwt>
<totfact> 0.16681293E+04</totfact>
</mgrwt>
</event>
<event>
12    1  0.1074575E-001  0.2061494E+03  0.7546771E-02  0.1144940E+00
         21   -1    0    0  501  502  0.00000000000E+00  0.00000000000E+00  0.12481403067E+03  0.12481403067E+03  0.00000000000E+00 0.  1.
         21   -1    0    0  502  503 -0.00000000000E+00 -0.00000000000E+00 -0.90375760215E+03  0.90375760215E+03  0.00000000000E+00 0. -1.
         -6    2    1    2    0  503 -0.35313186029E+02 -0.10611260171E+03 -0.79581895803E+03  0.82173266971E+03  0.17149303529E+03 0.  0.
        -24    2    3    3    0    0 -0.40165990301E+02 -0.14175542672E+03 -0.60191979359E+03  0.62446904748E+03  0.77111902867E+02 0.  0.
          6    2    1    2  501    0  0.35313186029E+02  0.10611260171E+03  0.16875386540E+02  0.20683896311E+03  0.17317815290E+03 0.  0.
         24    2    5    5    0    0  0.46214311838E+02 -0.56027650015E+01  0.14239468107E+02  0.94463717753E+02  0.80953554125E+02 0.  0.
          5    1    5    5  501    0 -0.10901125809E+02  0.11171536671E+03  0.26359184325E+01  0.11237524536E+03  0.47000000000E+01 0. -1.
        -11    1    6    6    0    0  0.51229353980E+02 -0.21542591966E+01 -0.23381168521E+02  0.56353940264E+02  0.00000000000E+00 0.  1.
         12    1    6    6    0    0 -0.50150421418E+01 -0.34485058049E+01  0.37620636628E+02  0.38109777489E+02  0.00000000000E+00 0. -1.
         -5    1    3    3    0  503  0.48528042726E+01  0.35642825006E+02 -0.19389916444E+03  0.19726362223E+03  0.47000000000E+01 0.  1.
         11    1    4    4    0    0 -0.35115656036E+02 -0.10701510626E+03 -0.55241817134E+03  0.56378291770E+03  0.00000000000E+00 0. -1.
        -12    1    4    4    0    0 -0.50503342659E+01 -0.34740320462E+02 -0.49501622249E+02  0.60686129777E+02  0.00000000000E+00 0.  1.
<mgrwt>
<rscale>  2 0.20579510E+03</rscale>
<asrwt>0</asrwt>
<pdfrwt beam="1">  1       21 0.19202158E-01 0.20614941E+03</pdfrwt>
<pdfrwt beam="2">  1       21 0.13903963E+00 0.20614941E+03</pdfrwt>
<totfact> 0.89795604E+03</totfact>
</mgrwt>
</event>
<event>
12    1  0.1074575E-001  0.1916835E+03  0.7546771E-02  0.1161187E+00
         21   -1    0    0  503  502  0.00000000000E+00  0.00000000000E+00  0.35178832027E+03  0.35178832027E+03  0.00000000000E+00 0. -1.
         21   -1    0    0  501  503 -0.00000000000E+00 -0.00000000000E+00 -0.18665327835E+03  0.18665327835E+03  0.00000000000E+00 0. -1.
          6    2    1    2  501    0  0.71667621480E+02  0.29733956536E+02 -0.10818999574E+03  0.20460162471E+03  0.15535891836E+03 0.  0.
         24    2    3    3    0    0  0.72092348486E+02 -0.63566615921E+01 -0.21712670636E+02  0.11077662342E+03  0.81008063626E+02 0.  0.
         -6    2    1    2    0  502 -0.71667621480E+02 -0.29733956536E+02  0.27332503767E+03  0.33383997392E+03  0.17527748238E+03 0.  0.
        -24    2    5    5    0    0 -0.99573065169E+02  0.85698918652E+01  0.11215902030E+03  0.16578500154E+03  0.70119772851E+02 0.  0.
          5    1    3    3  501    0 -0.42472700590E+00  0.36090618128E+02 -0.86477325106E+02  0.93825001292E+02  0.47000000000E+01 0. -1.
        -13    1    4    4    0    0 -0.16037134963E+02 -0.11110121640E+02 -0.94278771556E+01  0.21668164859E+02  0.00000000000E+00 0.  1.
         14    1    4    4    0    0  0.88129483450E+02  0.47534600484E+01 -0.12284793480E+02  0.89108458557E+02  0.00000000000E+00 0. -1.
         -5    1    5    5    0  502  0.27905443688E+02 -0.38303848401E+02  0.16116601736E+03  0.16805497238E+03  0.47000000000E+01 0.  1.
         11    1    6    6    0    0 -0.56451457484E+02  0.12606285184E+02  0.15524779355E+02  0.59889099611E+02  0.00000000000E+00 0. -1.
        -12    1    6    6    0    0 -0.43121607685E+02 -0.40363933190E+01  0.96634240950E+02  0.10589590192E+03  0.00000000000E+00 0.  1.
<mgrwt>
<rscale>  2 0.18700859E+03</rscale>
<asrwt>0</asrwt>
<pdfrwt beam="1">  1       21 0.54121280E-01 0.19168347E+03</pdfrwt>
<pdfrwt beam="2">  1       21 0.28715889E-01 0.19168347E+03</pdfrwt>
<totfact> 0.37462236E+04</totfact>
</mgrwt>
</event>
<event>
12    1  0.1074575E-001  0.1820664E+03  0.7546771E-02  0.1166272E+00
         21   -1    0    0  503  502  0.00000000000E+00  0.00000000000E+00  0.27113355636E+03  0.27113355636E+03  0.00000000000E+00 0.  1.
         21   -1    0    0  501  503 -0.00000000000E+00 -0.00000000000E+00 -0.12783490400E+03  0.12783490400E+03  0.00000000000E+00 0.  1.
          6    2    1    2  501    0 -0.29316418997E+02 -0.33339274211E+02  0.25841624405E+02  0.18389115145E+03  0.17657068387E+03 0.  0.
         24    2    3    3    0    0  0.47322651415E+02 -0.11682635463E+02 -0.17962405924E+02  0.92877744807E+02  0.76991623865E+02 0.  0.
         -6    2    1    2    0  502  0.29316418997E+02  0.33339274211E+02  0.11745702795E+03  0.21507730891E+03  0.17461711189E+03 0.  0.
        -24    2    5    5    0    0  0.41442682684E+02  0.25799060283E+02  0.15211901778E+03  0.17729577061E+03  0.76879823412E+02 0.  0.
          5    1    3    3  501    0 -0.76639070412E+02 -0.21656638748E+02  0.43804030329E+02  0.91013406641E+02  0.47000000000E+01 0. -1.
        -13    1    4    4    0    0  0.23462192176E+01  0.16111589764E+02  0.21452463286E+02  0.26931324706E+02  0.00000000000E+00 0.  1.
         14    1    4    4    0    0  0.44976432198E+02 -0.27794225228E+02 -0.39414869211E+02  0.65946420101E+02  0.00000000000E+00 0. -1.
         -5    1    5    5    0  502 -0.12126263687E+02  0.75402139280E+01 -0.34661989828E+02  0.37781538295E+02  0.47000000000E+01 0.  1.
         11    1    6    6    0    0 -0.19432850701E+01  0.38806964741E+02  0.37281308720E+02  0.53848424760E+02  0.00000000000E+00 0. -1.
        -12    1    6    6    0    0  0.43385967754E+02 -0.13007904458E+02  0.11483770906E+03  0.12344734585E+03  0.00000000000E+00 0.  1.
<mgrwt>
<rscale>  2 0.18159103E+03</rscale>
<asrwt>0</asrwt>
<pdfrwt beam="1">  1       21 0.41712855E-01 0.18206638E+03</pdfrwt>
<pdfrwt beam="2">  1       21 0.19666908E-01 0.18206638E+03</pdfrwt>
<totfact> 0.13225539E+05</totfact>
</mgrwt>
</event>
<event>
12    1  0.1074575E-001  0.2202313E+03  0.7546771E-02  0.1134594E+00
         21   -1    0    0  503  502  0.00000000000E+00  0.00000000000E+00  0.77639406631E+03  0.77639406631E+03  0.00000000000E+00 0.  1.
         21   -1    0    0  501  503 -0.00000000000E+00 -0.00000000000E+00 -0.14500795986E+03  0.14500795986E+03  0.00000000000E+00 0. -1.
          6    2    1    2  501    0 -0.11399571354E+03 -0.73092565063E+02 -0.36083305533E+02  0.21853842717E+03  0.16768868011E+03 0.  0.
         24    2    3    3    0    0 -0.75046347100E+02  0.21358597537E+02 -0.55722182724E+01  0.11180936970E+03  0.79888307244E+02 0.  0.
         -6    2    1    2    0  502  0.11399571354E+03  0.73092565063E+02  0.66746941199E+03  0.70286359900E+03  0.17367866045E+03 0.  0.
        -24    2    5    5    0    0  0.69064962320E+02  0.10890135030E+03  0.56320076059E+03  0.58372047848E+03  0.83096492978E+02 0.  0.
          5    1    3    3  501    0 -0.38949366436E+02 -0.94451162600E+02 -0.30511087261E+02  0.10672905747E+03  0.47000000000E+01 0. -1.
        -13    1    4    4    0    0 -0.28118640327E+02  0.21173245209E+02  0.35099973940E+02  0.49708876643E+02  0.00000000000E+00 0.  1.
         14    1    4    4    0    0 -0.46927706773E+02  0.18535232739E+00 -0.40672192213E+02  0.62100493056E+02  0.00000000000E+00 0. -1.
         -5    1    5    5    0  502  0.44930751216E+02 -0.35808785239E+02  0.10426865139E+03  0.11914312053E+03  0.47000000000E+01 0.  1.
         11    1    6    6    0    0 -0.17092269357E+02  0.35532239528E+02  0.12060874259E+03  0.12689032472E+03  0.00000000000E+00 0. -1.
        -12    1    6    6    0    0  0.86157231677E+02  0.73369110774E+02  0.44259201800E+03  0.45683015376E+03  0.00000000000E+00 0.  1.
<mgrwt>
<rscale>  2 0.21904872E+03</rscale>
<asrwt>0</asrwt>
<pdfrwt beam="1">  1       21 0.11944524E+00 0.22023129E+03</pdfrwt>
<pdfrwt beam="2">  1       21 0.22308917E-01 0.22023129E+03</pdfrwt>
<totfact> 0.98523826E+03</totfact>
</mgrwt>
</event>
<event>
12    1  0.1074575E-001  0.2273620E+03  0.7546771E-02  0.1129396E+00
         21   -1    0    0  503  502  0.00000000000E+00  0.00000000000E+00  0.13816565020E+03  0.13816565020E+03  0.00000000000E+00 0. -1.
         21   -1    0    0  501  503 -0.00000000000E+00 -0.00000000000E+00 -0.48472093068E+03  0.48472093068E+03  0.00000000000E+00 0.  1.
          6    2    1    2  501    0  0.39923255222E+02 -0.14293458084E+03 -0.17804269159E+02  0.22317330143E+03  0.16572618913E+03 0.  0.
         24    2    3    3    0    0 -0.39028093212E+02 -0.65787550321E+02  0.11108435578E+01  0.11108025425E+03  0.80538159119E+02 0.  0.
         -6    2    1    2    0  502 -0.39923255222E+02  0.14293458084E+03 -0.32875101132E+03  0.39971327944E+03  0.17224783775E+03 0.  0.
        -24    2    5    5    0    0 -0.38505892506E+02  0.10190372616E+03 -0.10500947138E+03  0.17218766188E+03  0.82185939552E+02 0.  0.
          5    1    3    3  501    0  0.78951348434E+02 -0.77147030516E+02 -0.18915112717E+02  0.11209304718E+03  0.47000000000E+01 0. -1.
        -13    1    4    4    0    0 -0.17272914355E+02 -0.67201484133E+02 -0.27905006664E+02  0.74786913540E+02  0.00000000000E+00 0.  1.
         14    1    4    4    0    0 -0.21755178857E+02  0.14139338122E+01  0.29015850221E+02  0.36293340711E+02  0.00000000000E+00 0. -1.
         -5    1    5    5    0  502 -0.14173627164E+01  0.41030854677E+02 -0.22374153994E+03  0.22752561756E+03  0.47000000000E+01 0.  1.
         11    1    6    6    0    0 -0.56820353889E+01  0.57794411978E+02 -0.52882339037E+01  0.58313334666E+02  0.00000000000E+00 0. -1.
        -12    1    6    6    0    0 -0.32823857117E+02  0.44109314182E+02 -0.99721237481E+02  0.11387432721E+03  0.00000000000E+00 0.  1.
<mgrwt>
<rscale>  2 0.22612697E+03</rscale>
<asrwt>0</asrwt>
<pdfrwt beam="1">  1       21 0.21256254E-01 0.22736200E+03</pdfrwt>
<pdfrwt beam="2">  1       21 0.74572451E-01 0.22736200E+03</pdfrwt>
<totfact> 0.32565372E+04</totfact>
</mgrwt>
</event>
<event>
12    1  0.1074575E-001  0.2562088E+03  0.7546771E-02  0.1109669E+00
         21   -1    0    0  503  502  0.00000000000E+00  0.00000000000E+00  0.13584154054E+04  0.13584154054E+04  0.00000000000E+00 0.  1.
         21   -1    0    0  501  503 -0.00000000000E+00 -0.00000000000E+00 -0.63426585760E+02  0.63426585760E+02  0.00000000000E+00 0.  1.
          6    2    1    2  501    0 -0.84942446654E+02  0.16836703508E+03  0.29882273075E+03  0.39362163734E+03  0.17343670669E+03 0.  0.
         24    2    3    3    0    0 -0.85592138475E+02  0.15849242155E+03  0.31629369559E+03  0.37299993266E+03  0.81494699442E+02 0.  0.
         -6    2    1    2    0  502  0.84942446654E+02 -0.16836703508E+03  0.99616608893E+03  0.10282203539E+04  0.17125285868E+03 0.  0.
        -24    2    5    5    0    0 -0.15784638778E+02 -0.89036269788E+02  0.39226822234E+03  0.41084361367E+03  0.82106665201E+02 0.  0.
          5    1    3    3  501    0  0.64969182126E+00  0.98746135287E+01 -0.17470964837E+02  0.20621704686E+02  0.47000000000E+01 0. -1.
        -13    1    4    4    0    0 -0.32864535448E+02  0.66730972350E+02  0.21093041655E+03  0.22366211344E+03  0.00000000000E+00 0.  1.
         14    1    4    4    0    0 -0.52727603027E+02  0.91761449197E+02  0.10536327903E+03  0.14933781922E+03  0.00000000000E+00 0. -1.
         -5    1    5    5    0  502  0.10072708543E+03 -0.79330765288E+02  0.60389786658E+03  0.61737674019E+03  0.47000000000E+01 0.  1.
         11    1    6    6    0    0  0.13780678394E+02 -0.17304860043E+02  0.17718773238E+02  0.28342903930E+02  0.00000000000E+00 0. -1.
        -12    1    6    6    0    0 -0.29565317172E+02 -0.71731409746E+02  0.37454944911E+03  0.38250070974E+03  0.00000000000E+00 0.  1.
<mgrwt>
<rscale>  2 0.25583973E+03</rscale>
<asrwt>0</asrwt>
<pdfrwt beam="1">  1       21 0.20898696E+00 0.25620884E+03</pdfrwt>
<pdfrwt beam="2">  1       21 0.97579373E-02 0.25620884E+03</pdfrwt>
<totfact> 0.95026100E+03</totfact>
</mgrwt>
</event>
<event>
12    1  0.1074575E-001  0.2353253E+03  0.7546771E-02  0.1123013E+00
         21   -1    0    0  501  502  0.00000000000E+00  0.00000000000E+00  0.46507854726E+02  0.46507854726E+02  0.00000000000E+00 0.  1.
         21   -1    0    0  502  503 -0.00000000000E+00 -0.00000000000E+00 -0.13744933987E+04  0.13744933987E+04  0.00000000000E+00 0. -1.
         -6    2    1    2    0  503 -0.11398884176E+03  0.11035647785E+03 -0.92468937836E+03  0.95406895366E+03  0.17327756242E+03 0.  0.
        -24    2    3    3    0    0 -0.13422072418E+03  0.12317738861E+03 -0.68684972532E+03  0.71498006772E+03  0.79032146670E+02 0.  0.
          6    2    1    2  501    0  0.11398884176E+03 -0.11035647785E+03 -0.40329616559E+03  0.46693229974E+03  0.17379863957E+03 0.  0.
         24    2    5    5    0    0  0.13556052959E+03 -0.12273974869E+03 -0.29799864157E+03  0.35863483127E+03  0.79837639803E+02 0.  0.
          5    1    5    5  501    0 -0.21571687838E+02  0.12383270845E+02 -0.10529752402E+03  0.10829746847E+03  0.47000000000E+01 0. -1.
        -13    1    6    6    0    0  0.12376422896E+03 -0.70856082094E+02 -0.24532188761E+03  0.28376221961E+03  0.00000000000E+00 0.  1.
         14    1    6    6    0    0  0.11796300635E+02 -0.51883666600E+02 -0.52676753962E+02  0.74872611658E+02  0.00000000000E+00 0. -1.
         -5    1    3    3    0  503  0.20231882427E+02 -0.12820910759E+02 -0.23783965304E+03  0.23908888594E+03  0.47000000000E+01 0.  1.
         11    1    4    4    0    0 -0.10236837454E+03  0.12073169319E+03 -0.47362978719E+03  0.49938021703E+03  0.00000000000E+00 0. -1.
        -12    1    4    4    0    0 -0.31852349645E+02  0.24456954171E+01 -0.21321993813E+03  0.21559985069E+03  0.00000000000E+00 0.  1.
<mgrwt>
<rscale>  2 0.23522905E+03</rscale>
<asrwt>0</asrwt>
<pdfrwt beam="1">  1       21 0.71550543E-02 0.23532525E+03</pdfrwt>
<pdfrwt beam="2">  1       21 0.21146053E+00 0.23532525E+03</pdfrwt>
<totfact> 0.16023727E+04</totfact>
</mgrwt>
</event>
<event>
12    1  0.1074575E-001  0.1946704E+03  0.7546771E-02  0.1154761E+00
         21   -1    0    0  503  502  0.00000000000E+00  0.00000000000E+00  0.27252515805E+03  0.27252515805E+03  0.00000000000E+00 0.  1.
         21   -1    0    0  501  503 -0.00000000000E+00 -0.00000000000E+00 -0.17857079704E+03  0.17857079704E+03  0.00000000000E+00 0. -1.
          6    2    1    2  501    0 -0.61297994434E+02 -0.63589884131E+02 -0.60853559907E+02  0.20396009569E+03  0.17348039484E+03 0.  0.
         24    2    3    3    0    0 -0.15261646235E+02 -0.41051948038E+02  0.32583064190E+02  0.97283966015E+02  0.80525360528E+02 0.  0.
         -6    2    1    2    0  502  0.61297994434E+02  0.63589884131E+02  0.15480792092E+03  0.24713585940E+03  0.17120024282E+03 0.  0.
        -24    2    5    5    0    0  0.15609449180E+02  0.43266509667E+02  0.57788566887E+01  0.89871004140E+02  0.76991924499E+02 0.  0.
          5    1    3    3  501    0 -0.46036348199E+02 -0.22537936093E+02 -0.93436624098E+02  0.10667612967E+03  0.47000000000E+01 0. -1.
        -13    1    4    4    0    0 -0.25598980782E+02  0.18228191078E+02  0.94489784789E+01  0.32815514034E+02  0.00000000000E+00 0.  1.
         14    1    4    4    0    0  0.10337334547E+02 -0.59280139116E+02  0.23134085712E+02  0.64468451981E+02  0.00000000000E+00 0. -1.
         -5    1    5    5    0  502  0.45688545254E+02  0.20323374464E+02  0.14902906423E+03  0.15726485526E+03  0.47000000000E+01 0.  1.
         13    1    6    6    0    0  0.31879256929E+02  0.54365989539E+02  0.19379924543E+02  0.65935796926E+02  0.00000000000E+00 0. -1.
        -14    1    6    6    0    0 -0.16269807750E+02 -0.11099479872E+02 -0.13601067854E+02  0.23935207215E+02  0.00000000000E+00 0.  1.
<mgrwt>
<rscale>  2 0.19416111E+03</rscale>
<asrwt>0</asrwt>
<pdfrwt beam="1">  1       21 0.41926948E-01 0.19467040E+03</pdfrwt>
<pdfrwt beam="2">  1       21 0.27472430E-01 0.19467040E+03</pdfrwt>
<totfact> 0.69150109E+04</totfact>
</mgrwt>
</event>
<event>
12    1  0.1074575E-001  0.2484425E+03  0.7546771E-02  0.1114484E+00
         21   -1    0    0  501  502  0.00000000000E+00  0.00000000000E+00  0.55431667542E+03  0.55431667542E+03  0.00000000000E+00 0. -1.
         21   -1    0    0  502  503 -0.00000000000E+00 -0.00000000000E+00 -0.18011822764E+03  0.18011822764E+03  0.00000000000E+00 0.  1.
         -6    2    1    2    0  503 -0.15213642494E+03  0.91623364077E+02 -0.40957840364E+02  0.25061837412E+03  0.17202235936E+03 0.  0.
        -24    2    3    3    0    0 -0.13767033201E+03  0.85790557276E+02  0.24988082724E+02  0.18269014544E+03  0.80238051637E+02 0.  0.
          6    2    1    2  501    0  0.15213642494E+03 -0.91623364077E+02  0.41515628814E+03  0.48381652893E+03  0.17373358179E+03 0.  0.
         24    2    5    5    0    0  0.62112414187E+02 -0.56820510523E+02  0.34746253405E+03  0.36583307470E+03  0.77569991388E+02 0.  0.
          5    1    5    5  501    0  0.90024010758E+02 -0.34802853554E+02  0.67693754089E+02  0.11798345423E+03  0.47000000000E+01 0. -1.
        -11    1    6    6    0    0  0.36517280567E+02 -0.56695703026E+02  0.12614250526E+03  0.14303791859E+03  0.00000000000E+00 0.  1.
         12    1    6    6    0    0  0.25595133620E+02 -0.12480749762E+00  0.22132002880E+03  0.22279515612E+03  0.00000000000E+00 0. -1.
         -5    1    3    3    0  503 -0.14466092939E+02  0.58328068006E+01 -0.65945923088E+02  0.67928228683E+02  0.47000000000E+01 0.  1.
         13    1    4    4    0    0 -0.27873583188E+02 -0.13673105644E+02  0.14224058245E+02  0.34149879804E+02  0.00000000000E+00 0. -1.
        -14    1    4    4    0    0 -0.10979674882E+03  0.99463662920E+02  0.10764024479E+02  0.14854026564E+03  0.00000000000E+00 0.  1.
<mgrwt>
<rscale>  2 0.24814359E+03</rscale>
<asrwt>0</asrwt>
<pdfrwt beam="1">  1       21 0.85279488E-01 0.24844253E+03</pdfrwt>
<pdfrwt beam="2">  1       21 0.27710497E-01 0.24844253E+03</pdfrwt>
<totfact> 0.14302557E+04</totfact>
</mgrwt>
</event>
<event>
12    1  0.1074575E-001  0.1983322E+03  0.7546771E-02  0.1151343E+00
         21   -1    0    0  503  502  0.00000000000E+00  0.00000000000E+00  0.12015494975E+03  0.12015494975E+03  0.00000000000E+00 0. -1.
         21   -1    0    0  501  503 -0.00000000000E+00 -0.00000000000E+00 -0.36787092226E+03  0.36787092226E+03  0.00000000000E+00 0.  1.
          6    2    1    2  501    0 -0.67418205380E+02  0.70596500000E+02 -0.20602028628E+03  0.28535814408E+03  0.17162701362E+03 0.  0.
         24    2    3    3    0    0  0.25986339076E+02  0.20063069344E+02 -0.56021680957E+02  0.10151117473E+03  0.78027388066E+02 0.  0.
         -6    2    1    2    0  502  0.67418205380E+02 -0.70596500000E+02 -0.41695686226E+02  0.20266772793E+03  0.17264587300E+03 0.  0.
        -24    2    5    5    0    0  0.97032841716E+02 -0.92022680605E+02 -0.12267338648E+02  0.15550603222E+03  0.78409771982E+02 0.  0.
          5    1    3    3  501    0 -0.93404544455E+02  0.50533430655E+02 -0.14999860532E+03  0.18384696935E+03  0.47000000000E+01 0. -1.
        -11    1    4    4    0    0 -0.59210648616E+01 -0.27083912316E+02 -0.18277005349E+02  0.33206117508E+02  0.00000000000E+00 0.  1.
         12    1    4    4    0    0  0.31907403937E+02  0.47146981661E+02 -0.37744675608E+02  0.68305057225E+02  0.00000000000E+00 0. -1.
         -5    1    5    5    0  502 -0.29614636337E+02  0.21426180606E+02 -0.29428347577E+02  0.47161695706E+02  0.47000000000E+01 0.  1.
         11    1    6    6    0    0  0.44442884638E+01 -0.52976267707E+02 -0.14113688955E+02  0.55003934915E+02  0.00000000000E+00 0. -1.
        -12    1    6    6    0    0  0.92588553252E+02 -0.39046412898E+02  0.18463503068E+01  0.10050209731E+03  0.00000000000E+00 0.  1.
<mgrwt>
<rscale>  2 0.19811030E+03</rscale>
<asrwt>0</asrwt>
<pdfrwt beam="1">  1       21 0.18485377E-01 0.19833224E+03</pdfrwt>
<pdfrwt beam="2">  1       21 0.56595526E-01 0.19833224E+03</pdfrwt>
<totfact> 0.78266227E+04</totfact>
</mgrwt>
</event>
<event>
12    1  0.1074575E-001  0.1992504E+03  0.7546771E-02  0.1150568E+00
         21   -1    0    0  501  502  0.00000000000E+00  0.00000000000E+00  0.56548079133E+02  0.56548079133E+02  0.00000000000E+00 0. -1.
         21   -1    0    0  502  503 -0.00000000000E+00 -0.00000000000E+00 -0.70698164675E+03  0.70698164675E+03  0.00000000000E+00 0. -1.
         -6    2    1    2    0  503 -0.82809464323E+02  0.51325575027E+02 -0.28351393898E+03  0.34600040095E+03  0.17275532359E+03 0.  0.
        -24    2    3    3    0    0 -0.30037692656E+02  0.89700556675E+02 -0.13210671648E+03  0.18106484951E+03  0.79898950830E+02 0.  0.
          6    2    1    2  501    0  0.82809464323E+02 -0.51325575027E+02 -0.36691962864E+03  0.41752932493E+03  0.17380736827E+03 0.  0.
         24    2    5    5    0    0  0.16658982570E+02 -0.72949548862E+02 -0.30613966842E+03  0.32501026719E+03  0.79441921069E+02 0.  0.
          5    1    5    5  501    0  0.66150481753E+02  0.21623973834E+02 -0.60779960221E+02  0.92519057740E+02  0.47000000000E+01 0. -1.
        -13    1    6    6    0    0 -0.19195223804E+02 -0.70113390128E+01 -0.17925257556E+02  0.27183273352E+02  0.00000000000E+00 0.  1.
         14    1    6    6    0    0  0.35854206374E+02 -0.65938209849E+02 -0.28821441086E+03  0.29782699384E+03  0.00000000000E+00 0. -1.
         -5    1    3    3    0  503 -0.52771771667E+02 -0.38374981647E+02 -0.15140722250E+03  0.16493555143E+03  0.47000000000E+01 0.  1.
         11    1    4    4    0    0  0.82175295588E+00  0.20812331797E+02  0.76800773418E+01  0.22199369827E+02  0.00000000000E+00 0. -1.
        -12    1    4    4    0    0 -0.30859445612E+02  0.68888224877E+02 -0.13978679382E+03  0.15886547969E+03  0.00000000000E+00 0.  1.
<mgrwt>
<rscale>  2 0.19902075E+03</rscale>
<asrwt>0</asrwt>
<pdfrwt beam="1">  1       21 0.86997037E-02 0.19925040E+03</pdfrwt>
<pdfrwt beam="2">  1       21 0.10876642E+00 0.19925040E+03</pdfrwt>
<totfact> 0.69354960E+04</totfact>
</mgrwt>
</event>
<event>
12    1  0.1074575E-001  0.2137485E+03  0.7546771E-02  0.1138912E+00
         21   -1    0    0  501  502  0.00000000000E+00  0.00000000000E+00  0.10217718448E+03  0.10217718448E+03  0.00000000000E+00 0.  1.
         21   -1    0    0  502  503 -0.00000000000E+00 -0.00000000000E+00 -0.83214954740E+03  0.83214954740E+03  0.00000000000E+00 0. -1.
         -6    2    1    2    0  503  0.28694809004E+02  0.11984962483E+03 -0.68464876084E+03  0.71723938695E+03  0.17464560641E+03 0.  0.
        -24    2    3    3    0    0  0.64903591619E+00  0.13420352535E+03 -0.38046025348E+03  0.41138756358E+03  0.80490468556E+02 0.  0.
          6    2    1    2  501    0 -0.28694809004E+02 -0.11984962483E+03 -0.45323602081E+02  0.21708734493E+03  0.17287383200E+03 0.  0.
         24    2    5    5    0    0  0.38486362485E+02 -0.10457388815E+03 -0.52189382434E+02  0.14769075371E+03  0.81681876279E+02 0.  0.
          5    1    5    5  501    0 -0.67181171490E+02 -0.15275736676E+02  0.68657803534E+01  0.69396591224E+02  0.47000000000E+01 0. -1.
        -13    1    6    6    0    0  0.33623185535E+02 -0.11013010391E+03 -0.22794835254E+02  0.11738297538E+03  0.00000000000E+00 0.  1.
         14    1    6    6    0    0  0.48631769503E+01  0.55562157642E+01 -0.29394547180E+02  0.30307778335E+02  0.00000000000E+00 0. -1.
         -5    1    3    3    0  503  0.28045773088E+02 -0.14353900520E+02 -0.30418850736E+03  0.30585182336E+03  0.47000000000E+01 0.  1.
         13    1    4    4    0    0  0.17195512538E+02  0.78513824629E+02 -0.30904825540E+03  0.31932887510E+03  0.00000000000E+00 0. -1.
        -14    1    4    4    0    0 -0.16546476622E+02  0.55689700718E+02 -0.71411998086E+02  0.92058688483E+02  0.00000000000E+00 0.  1.
<mgrwt>
<rscale>  2 0.21338626E+03</rscale>
<asrwt>0</asrwt>
<pdfrwt beam="1">  1       21 0.15719566E-01 0.21374848E+03</pdfrwt>
<pdfrwt beam="2">  1       21 0.12802301E+00 0.21374848E+03</pdfrwt>
<totfact> 0.15956112E+04</totfact>
</mgrwt>
</event>
<event>
12    1  0.1074575E-001  0.1993554E+03  0.7546771E-02  0.1150306E+00
         21   -1    0    0  501  502  0.00000000000E+00  0.00000000000E+00  0.91458458529E+02  0.91458458529E+02  0.00000000000E+00 0.  1.
         21   -1    0    0  502  503 -0.00000000000E+00 -0.00000000000E+00 -0.49029441651E+03  0.49029441651E+03  0.00000000000E+00 0. -1.
         -6    2    1    2    0  503  0.82044272410E+02 -0.56733615064E+02 -0.29774862229E+03  0.35832500777E+03  0.17260534003E+03 0.  0.
        -24    2    3    3    0    0  0.56867861208E+02  0.25065493790E+02 -0.22206760446E+03  0.24398056169E+03  0.79688524355E+02 0.  0.
          6    2    1    2  501    0 -0.82044272410E+02  0.56733615064E+02 -0.10108733570E+03  0.22342786727E+03  0.17248593195E+03 0.  0.
         24    2    5    5    0    0 -0.15425057147E+02  0.89500411780E+02 -0.38475453040E+02  0.12619556472E+03  0.78719146158E+02 0.  0.
          5    1    5    5  501    0 -0.66619215263E+02 -0.32766796716E+02 -0.62611882657E+02  0.97232302549E+02  0.47000000000E+01 0. -1.
        -11    1    6    6    0    0 -0.32301064618E+02  0.10295054037E+02  0.50187692699E+01  0.34271488997E+02  0.00000000000E+00 0.  1.
         12    1    6    6    0    0  0.16876007471E+02  0.79205357743E+02 -0.43494222310E+02  0.91924075724E+02  0.00000000000E+00 0. -1.
         -5    1    3    3    0  503  0.25176411202E+02 -0.81799108855E+02 -0.75681017822E+02  0.11434444608E+03  0.47000000000E+01 0.  1.
         11    1    4    4    0    0 -0.15239486216E+02 -0.68294856992E+01 -0.77807025679E+02  0.79578998864E+02  0.00000000000E+00 0. -1.
        -12    1    4    4    0    0  0.72107347424E+02  0.31894979489E+02 -0.14426057878E+03  0.16440156283E+03  0.00000000000E+00 0.  1.
<mgrwt>
<rscale>  2 0.19932953E+03</rscale>
<asrwt>0</asrwt>
<pdfrwt beam="1">  1       21 0.14070532E-01 0.19935538E+03</pdfrwt>
<pdfrwt beam="2">  1       21 0.75429910E-01 0.19935538E+03</pdfrwt>
<totfact> 0.68952589E+04</totfact>
</mgrwt>
</event>
<event>
12    1  0.1074575E-001  0.2742729E+03  0.7546771E-02  0.1098993E+00
         21   -1    0    0  501  502  0.00000000000E+00  0.00000000000E+00  0.59647012485E+03  0.59647012485E+03  0.00000000000E+00 0. -1.
         21   -1    0    0  502  503 -0.00000000000E+00 -0.00000000000E+00 -0.14433527407E+03  0.14433527407E+03  0.00000000000E+00 0.  1.
         -6    2    1    2    0  503 -0.19569052611E+03  0.80353442164E+02  0.93241310211E+02  0.28968871945E+03  0.17456848103E+03 0.  0.
        -24    2    3    3    0    0 -0.17718859787E+03  0.88291769674E+02  0.12745067800E+03  0.24971736424E+03  0.83209680174E+02 0.  0.
          6    2    1    2  501    0  0.19569052611E+03 -0.80353442164E+02  0.35889354057E+03  0.45111667948E+03  0.17306133989E+03 0.  0.
         24    2    5    5    0    0  0.19096563518E+03 -0.10863983408E+03  0.34952850862E+03  0.42058410040E+03  0.80313883007E+02 0.  0.
          5    1    5    5  501    0  0.47248909339E+01  0.28286391914E+02  0.93650319510E+01  0.30532579080E+02  0.47000000000E+01 0. -1.
        -11    1    6    6    0    0  0.35224801428E+02 -0.60245169539E+02  0.12363216187E+03  0.14196893511E+03  0.00000000000E+00 0.  1.
         12    1    6    6    0    0  0.15574083375E+03 -0.48394664538E+02  0.22589634675E+03  0.27861516528E+03  0.00000000000E+00 0. -1.
         -5    1    3    3    0  503 -0.18501928240E+02 -0.79383275107E+01 -0.34209367791E+02  0.39971355205E+02  0.47000000000E+01 0.  1.
         11    1    4    4    0    0 -0.11812402181E+03  0.29388958319E+02  0.11091438986E+03  0.16467846634E+03  0.00000000000E+00 0. -1.
        -12    1    4    4    0    0 -0.59064576060E+02  0.58902811355E+02  0.16536288145E+02  0.85038897902E+02  0.00000000000E+00 0.  1.
<mgrwt>
<rscale>  2 0.27403337E+03</rscale>
<asrwt>0</asrwt>
<pdfrwt beam="1">  1       21 0.91764633E-01 0.27427288E+03</pdfrwt>
<pdfrwt beam="2">  1       21 0.22205427E-01 0.27427288E+03</pdfrwt>
<totfact> 0.18227143E+04</totfact>
</mgrwt>
</event>
<event>
12    1  0.1074575E-001  0.1983951E+03  0.7546771E-02  0.1152265E+00
         21   -1    0    0  503  502  0.00000000000E+00  0.00000000000E+00  0.18910263415E+03  0.18910263415E+03  0.00000000000E+00 0.  1.
         21   -1    0    0  501  503 -0.00000000000E+00 -0.00000000000E+00 -0.21539791294E+03  0.21539791294E+03  0.00000000000E+00 0. -1.
          6    2    1    2  501    0 -0.50808013353E+02 -0.83637492938E+02  0.36101494657E+02  0.20165297755E+03  0.17258018713E+03 0.  0.
         24    2    3    3    0    0 -0.37743131142E+02 -0.12264307256E+03  0.47733777394E+02  0.15864685717E+03  0.80152633083E+02 0.  0.
         -6    2    1    2    0  502  0.50808013353E+02  0.83637492938E+02 -0.62396773444E+02  0.20284756955E+03  0.16636434320E+03 0.  0.
        -24    2    5    5    0    0  0.92406906735E+02  0.86386611249E+02 -0.38912221689E+02  0.15476805465E+03  0.80232828236E+02 0.  0.
          5    1    3    3  501    0 -0.13064882211E+02  0.39005579618E+02 -0.11632282737E+02  0.43006120380E+02  0.47000000000E+01 0. -1.
        -13    1    4    4    0    0 -0.29435862805E+02 -0.12028674839E+03  0.64619042005E+02  0.13968175417E+03  0.00000000000E+00 0.  1.
         14    1    4    4    0    0 -0.83072683374E+01 -0.23563241633E+01 -0.16885264610E+02  0.18965102999E+02  0.00000000000E+00 0. -1.
         -5    1    5    5    0  502 -0.41598893381E+02 -0.27491183116E+01 -0.23484551755E+02  0.48079514902E+02  0.47000000000E+01 0.  1.
         13    1    6    6    0    0  0.17220221909E+02  0.38035798289E+02 -0.49493677191E+02  0.64752467721E+02  0.00000000000E+00 0. -1.
        -14    1    6    6    0    0  0.75186684826E+02  0.48350812960E+02  0.10581455502E+02  0.90015586925E+02  0.00000000000E+00 0.  1.
<mgrwt>
<rscale>  2 0.19703549E+03</rscale>
<asrwt>0</asrwt>
<pdfrwt beam="1">  1       21 0.29092713E-01 0.19839507E+03</pdfrwt>
<pdfrwt beam="2">  1       21 0.33138140E-01 0.19839507E+03</pdfrwt>
<totfact> 0.98958844E+04</totfact>
</mgrwt>
</event>
<event>
12    1  0.1074575E-001  0.2267336E+03  0.7546771E-02  0.1131807E+00
         21   -1    0    0  501  502  0.00000000000E+00  0.00000000000E+00  0.56457307381E+02  0.56457307381E+02  0.00000000000E+00 0.  1.
         21   -1    0    0  502  503 -0.00000000000E+00 -0.00000000000E+00 -0.10803238158E+04  0.10803238158E+04  0.00000000000E+00 0. -1.
         -6    2    1    2    0  503  0.11737654918E+03  0.32464046506E+02 -0.78823954204E+03  0.82020100557E+03  0.19125100076E+03 0.  0.
        -24    2    3    3    0    0  0.36396578406E+02 -0.51209706840E+02 -0.23422964848E+03  0.25406665330E+03  0.75757449105E+02 0.  0.
          6    2    1    2  501    0 -0.11737654918E+03 -0.32464046506E+02 -0.23562696641E+03  0.31658011764E+03  0.17283441489E+03 0.  0.
         24    2    5    5    0    0 -0.50598858250E+02 -0.84082894628E+02 -0.15857929051E+03  0.20220267297E+03  0.78155946366E+02 0.  0.
          5    1    5    5  501    0 -0.66777690933E+02  0.51618848121E+02 -0.77047675899E+02  0.11437744467E+03  0.47000000000E+01 0. -1.
        -13    1    6    6    0    0 -0.58018475489E+02 -0.68333212495E+02 -0.16134491308E+03  0.18457451721E+03  0.00000000000E+00 0.  1.
         14    1    6    6    0    0  0.74196172385E+01 -0.15749682133E+02  0.27656225678E+01  0.17628155758E+02  0.00000000000E+00 0. -1.
         -5    1    3    3    0  503  0.80979970777E+02  0.83673753346E+02 -0.55400989356E+03  0.56613435228E+03  0.47000000000E+01 0.  1.
         11    1    4    4    0    0  0.59115773554E+02 -0.26464381813E+02 -0.15009057336E+03  0.16346931944E+03  0.00000000000E+00 0. -1.
        -12    1    4    4    0    0 -0.22719195148E+02 -0.24745325027E+02 -0.84139075121E+02  0.90597333852E+02  0.00000000000E+00 0.  1.
<mgrwt>
<rscale>  2 0.22280701E+03</rscale>
<asrwt>0</asrwt>
<pdfrwt beam="1">  1       21 0.86857400E-02 0.22673357E+03</pdfrwt>
<pdfrwt beam="2">  1       21 0.16620366E+00 0.22673357E+03</pdfrwt>
<totfact> 0.23080752E+04</totfact>
</mgrwt>
</event>
<event>
12    1  0.1074575E-001  0.1837423E+03  0.7546771E-02  0.1164353E+00
         21   -1    0    0  501  502  0.00000000000E+00  0.00000000000E+00  0.28197503019E+03  0.28197503019E+03  0.00000000000E+00 0. -1.
         21   -1    0    0  502  503 -0.00000000000E+00 -0.00000000000E+00 -0.16887876980E+03  0.16887876980E+03  0.00000000000E+00 0. -1.
         -6    2    1    2    0  503  0.43510641885E+02  0.43556776150E+02 -0.65425156242E+02  0.19504274177E+03  0.17312091538E+03 0.  0.
        -24    2    3    3    0    0  0.61826304486E+01  0.68262784534E+02 -0.95671052329E+02  0.14081478295E+03  0.77316364187E+02 0.  0.
          6    2    1    2  501    0 -0.43510641885E+02 -0.43556776150E+02  0.17852141663E+03  0.25581105821E+03  0.17256602389E+03 0.  0.
         24    2    5    5    0    0 -0.72907647342E+01 -0.77463387027E+02  0.17519476930E+03  0.20586414295E+03  0.75054024431E+02 0.  0.
          5    1    5    5  501    0 -0.36219877151E+02  0.33906610877E+02  0.33266473358E+01  0.49946915265E+02  0.47000000000E+01 0. -1.
        -13    1    6    6    0    0  0.22323272899E+02 -0.65701728182E+02  0.82260097284E+02  0.10761862852E+03  0.00000000000E+00 0.  1.
         14    1    6    6    0    0 -0.29614037633E+02 -0.11761658845E+02  0.92934672012E+02  0.98245514430E+02  0.00000000000E+00 0. -1.
         -5    1    3    3    0  503  0.37328011436E+02 -0.24706008383E+02  0.30245896087E+02  0.54227958823E+02  0.47000000000E+01 0.  1.
         13    1    4    4    0    0  0.36710977033E+02  0.39919854106E+02 -0.27211873424E+02  0.60677645322E+02  0.00000000000E+00 0. -1.
        -14    1    4    4    0    0 -0.30528346584E+02  0.28342930428E+02 -0.68459178905E+02  0.80137137625E+02  0.00000000000E+00 0.  1.
<mgrwt>
<rscale>  2 0.18361145E+03</rscale>
<asrwt>0</asrwt>
<pdfrwt beam="1">  1       21 0.43380774E-01 0.18374227E+03</pdfrwt>
<pdfrwt beam="2">  1       21 0.25981349E-01 0.18374227E+03</pdfrwt>
<totfact> 0.72144981E+04</totfact>
</mgrwt>
</event>
<event>
12    1  0.1074575E-001  0.1999906E+03  0.7546771E-02  0.1149762E+00
         21   -1    0    0  503  502  0.00000000000E+00  0.00000000000E+00  0.17585340249E+03  0.17585340249E+03  0.00000000000E+00 0.  1.
         21   -1    0    0  501  503 -0.00000000000E+00 -0.00000000000E+00 -0.48366836033E+03  0.48366836033E+03  0.00000000000E+00 0.  1.
          6    2    1    2  501    0  0.75876405073E+02 -0.65074377595E+02 -0.39397179887E+03  0.44182575678E+03  0.17321754409E+03 0.  0.
         24    2    3    3    0    0  0.10857720338E+03 -0.70831615306E+02 -0.37126464071E+03  0.40132646015E+03  0.80120954503E+02 0.  0.
         -6    2    1    2    0  502 -0.75876405073E+02  0.65074377595E+02  0.86156841024E+02  0.21769600604E+03  0.17313765138E+03 0.  0.
        -24    2    5    5    0    0 -0.10430940656E+03  0.77997317347E+02  0.36948801069E+02  0.15922413980E+03  0.83803812477E+02 0.  0.
          5    1    3    3  501    0 -0.32700798307E+02  0.57572377110E+01 -0.22707158158E+02  0.40499296630E+02  0.47000000000E+01 0. -1.
        -13    1    4    4    0    0  0.32331957948E+02 -0.46907929141E+02 -0.73322963805E+02  0.92854544004E+02  0.00000000000E+00 0.  1.
         14    1    4    4    0    0  0.76245245431E+02 -0.23923686165E+02 -0.29794167691E+03  0.30847191614E+03  0.00000000000E+00 0. -1.
         -5    1    5    5    0  502  0.28433001486E+02 -0.12922939752E+02  0.49208039955E+02  0.58471866240E+02  0.47000000000E+01 0.  1.
         11    1    6    6    0    0 -0.35148173591E+02  0.23604876527E+02 -0.27210293220E+02  0.50328762748E+02  0.00000000000E+00 0. -1.
        -12    1    6    6    0    0 -0.69161232969E+02  0.54392440820E+02  0.64159094290E+02  0.10889537706E+03  0.00000000000E+00 0.  1.
<mgrwt>
<rscale>  2 0.19997325E+03</rscale>
<asrwt>0</asrwt>
<pdfrwt beam="1">  1       21 0.27054370E-01 0.19999055E+03</pdfrwt>
<pdfrwt beam="2">  1       21 0.74410516E-01 0.19999055E+03</pdfrwt>
<totfact> 0.20973559E+04</totfact>
</mgrwt>
</event>
<event>
12    1  0.1074575E-001  0.1878222E+03  0.7546771E-02  0.1160509E+00
         21   -1    0    0  501  502  0.00000000000E+00  0.00000000000E+00  0.23817391397E+03  0.23817391397E+03  0.00000000000E+00 0. -1.
         21   -1    0    0  502  503 -0.00000000000E+00 -0.00000000000E+00 -0.33736800270E+03  0.33736800270E+03  0.00000000000E+00 0. -1.
         -6    2    1    2    0  503  0.71053760806E+02  0.18749394767E+02 -0.26528252700E+03  0.32504152235E+03  0.17284963232E+03 0.  0.
        -24    2    3    3    0    0  0.29990165114E+02 -0.41866799132E+02 -0.18940440001E+03  0.21949474595E+03  0.98242953344E+02 0.  0.
          6    2    1    2  501    0 -0.71053760806E+02 -0.18749394767E+02  0.16608843827E+03  0.25050039432E+03  0.17252507499E+03 0.  0.
         24    2    5    5    0    0 -0.23772925581E+02 -0.87926021588E+01  0.18130516965E+03  0.19962550845E+03  0.79600987666E+02 0.  0.
          5    1    5    5  501    0 -0.47280835225E+02 -0.99567926083E+01 -0.15216731383E+02  0.50874885873E+02  0.47000000000E+01 0. -1.
        -13    1    6    6    0    0 -0.12812425436E+02  0.80534663800E+01 -0.19617145743E+01  0.15259911217E+02  0.00000000000E+00 0.  1.
         14    1    6    6    0    0 -0.10960500146E+02 -0.16846068539E+02  0.18326688423E+03  0.18436559723E+03  0.00000000000E+00 0. -1.
         -5    1    3    3    0  503  0.41063595692E+02  0.60616193899E+02 -0.75878126986E+02  0.10554677640E+03  0.47000000000E+01 0.  1.
         13    1    4    4    0    0 -0.24266849713E+02  0.80641356297E+01 -0.10193107372E+03  0.10508974292E+03  0.00000000000E+00 0. -1.
        -14    1    4    4    0    0  0.54257014828E+02 -0.49930934762E+02 -0.87473326296E+02  0.11440500303E+03  0.00000000000E+00 0.  1.
<mgrwt>
<rscale>  2 0.18774748E+03</rscale>
<asrwt>0</asrwt>
<pdfrwt beam="1">  1       21 0.36642141E-01 0.18782218E+03</pdfrwt>
<pdfrwt beam="2">  1       21 0.51902769E-01 0.18782218E+03</pdfrwt>
<totfact> 0.25382633E+04</totfact>
</mgrwt>
</event>
<event>
12    1  0.1074575E-001  0.2327435E+03  0.7546771E-02  0.1125112E+00
         21   -1    0    0  501  502  0.00000000000E+00  0.00000000000E+00  0.19004298044E+03  0.19004298044E+03  0.00000000000E+00 0.  1.
         21   -1    0    0  502  503 -0.00000000000E+00 -0.00000000000E+00 -0.40745069269E+03  0.40745069269E+03  0.00000000000E+00 0. -1.
         -6    2    1    2    0  503  0.68330664943E+02 -0.13915255599E+03 -0.27390003013E+03  0.35799232510E+03  0.17060118615E+03 0.  0.
        -24    2    3    3    0    0  0.26524466009E+02 -0.15637139275E+03 -0.24854949716E+03  0.30594440362E+03  0.81667409657E+02 0.  0.
          6    2    1    2  501    0 -0.68330664943E+02  0.13915255599E+03  0.56492317883E+02  0.23950134803E+03  0.17360011555E+03 0.  0.
         24    2    5    5    0    0 -0.27907351750E+02  0.66225942961E+01  0.54822083618E+02  0.10085390060E+03  0.79645272163E+02 0.  0.
          5    1    5    5  501    0 -0.40423313193E+02  0.13252996169E+03  0.16702342652E+01  0.13864744743E+03  0.47000000000E+01 0. -1.
        -11    1    6    6    0    0  0.20911883673E+02 -0.12021458612E+02  0.39697221034E+02  0.46450960202E+02  0.00000000000E+00 0.  1.
         12    1    6    6    0    0 -0.48819235423E+02  0.18644052908E+02  0.15124862585E+02  0.54402940402E+02  0.00000000000E+00 0. -1.
         -5    1    3    3    0  503  0.41806198933E+02  0.17218836758E+02 -0.25350532965E+02  0.52047921478E+02  0.47000000000E+01 0.  1.
         11    1    4    4    0    0  0.38720739655E+02 -0.35405051795E+02 -0.46353349740E+02  0.70010330696E+02  0.00000000000E+00 0. -1.
        -12    1    4    4    0    0 -0.12196273646E+02 -0.12096634095E+03 -0.20219614742E+03  0.23593407293E+03  0.00000000000E+00 0.  1.
<mgrwt>
<rscale>  2 0.23218439E+03</rscale>
<asrwt>0</asrwt>
<pdfrwt beam="1">  1       21 0.29237382E-01 0.23274345E+03</pdfrwt>
<pdfrwt beam="2">  1       21 0.62684721E-01 0.23274345E+03</pdfrwt>
<totfact> 0.25852406E+04</totfact>
</mgrwt>
</event>
<event>
12    1  0.1074575E-001  0.1792316E+03  0.7546771E-02  0.1169315E+00
         21   -1    0    0  503  502  0.00000000000E+00  0.00000000000E+00  0.72528442358E+03  0.72528442358E+03  0.00000000000E+00 0.  1.
         21   -1    0    0  501  503 -0.00000000000E+00 -0.00000000000E+00 -0.62379010638E+02  0.62379010638E+02  0.00000000000E+00 0.  1.
          6    2    1    2  501    0 -0.31211859517E+02 -0.13077214170E+02  0.11290593450E+03  0.20919701606E+03  0.17283069108E+03 0.  0.
         24    2    3    3    0    0 -0.16563057645E+02  0.24549179294E+01 -0.12559281073E+02  0.81841431797E+02  0.79119674651E+02 0.  0.
         -6    2    1    2    0  502  0.31211859517E+02  0.13077214170E+02  0.54999947844E+03  0.57846641816E+03  0.17600788888E+03 0.  0.
        -24    2    5    5    0    0  0.26415918374E+02  0.55934357265E+02  0.18534306208E+03  0.21123879425E+03  0.80270321230E+02 0.  0.
          5    1    3    3  501    0 -0.14648801872E+02 -0.15532132099E+02  0.12546521557E+03  0.12735558426E+03  0.47000000000E+01 0. -1.
        -11    1    4    4    0    0 -0.44044734644E+02 -0.16217721429E+02 -0.19980664439E+01  0.46978137550E+02  0.00000000000E+00 0.  1.
         12    1    4    4    0    0  0.27481676999E+02  0.18672639358E+02 -0.10561214629E+02  0.34863294246E+02  0.00000000000E+00 0. -1.
         -5    1    5    5    0  502  0.47959411434E+01 -0.42857143095E+02  0.36465641636E+03  0.36722762391E+03  0.47000000000E+01 0.  1.
         13    1    6    6    0    0 -0.18581546863E+01  0.47409514372E+02  0.37502690061E+02  0.60477818691E+02  0.00000000000E+00 0. -1.
        -14    1    6    6    0    0  0.28274073060E+02  0.85248428926E+01  0.14784037202E+03  0.15076097556E+03  0.00000000000E+00 0.  1.
<mgrwt>
<rscale>  2 0.17844671E+03</rscale>
<asrwt>0</asrwt>
<pdfrwt beam="1">  1       21 0.11158221E+00 0.17923161E+03</pdfrwt>
<pdfrwt beam="2">  1       21 0.95967714E-02 0.17923161E+03</pdfrwt>
<totfact> 0.55418820E+04</totfact>
</mgrwt>
</event>
<event>
12    1  0.1074575E-001  0.1779256E+03  0.7546771E-02  0.1169871E+00
         21   -1    0    0  501  502  0.00000000000E+00  0.00000000000E+00  0.38600372828E+03  0.38600372828E+03  0.00000000000E+00 0. -1.
         21   -1    0    0  502  503 -0.00000000000E+00 -0.00000000000E+00 -0.82494520395E+02  0.82494520395E+02  0.00000000000E+00 0. -1.
         -6    2    1    2    0  503 -0.12158843411E+02  0.34057166490E+02  0.13227950937E+03  0.22156278471E+03  0.17402433998E+03 0.  0.
        -24    2    3    3    0    0 -0.27998950125E+02  0.14269870990E+02  0.16036228913E+03  0.18344220546E+03  0.83351116015E+02 0.  0.
          6    2    1    2  501    0  0.12158843411E+02 -0.34057166490E+02  0.17122969851E+03  0.24693546397E+03  0.17421189870E+03 0.  0.
         24    2    5    5    0    0 -0.17819872167E+02 -0.43187790593E+02  0.21308046849E+02  0.93701383806E+02  0.78378462387E+02 0.  0.
          5    1    5    5  501    0  0.29978715578E+02  0.91306241037E+01  0.14992165167E+03  0.15323408016E+03  0.47000000000E+01 0. -1.
        -11    1    6    6    0    0  0.27295273316E+02 -0.14620895055E+02 -0.90709321666E+01  0.32265838405E+02  0.00000000000E+00 0.  1.
         12    1    6    6    0    0 -0.45115145483E+02 -0.28566895538E+02  0.30378979016E+02  0.61435545401E+02  0.00000000000E+00 0. -1.
         -5    1    3    3    0  503  0.15840106714E+02  0.19787295499E+02 -0.28082779758E+02  0.38120579256E+02  0.47000000000E+01 0.  1.
         11    1    4    4    0    0  0.90490937163E+01  0.13122119673E+02 -0.27467148392E+01  0.16174688999E+02  0.00000000000E+00 0. -1.
        -12    1    4    4    0    0 -0.37048043842E+02  0.11477513175E+01  0.16310900397E+03  0.16726751646E+03  0.00000000000E+00 0.  1.
<mgrwt>
<rscale>  2 0.17787966E+03</rscale>
<asrwt>0</asrwt>
<pdfrwt beam="1">  1       21 0.59385188E-01 0.17792558E+03</pdfrwt>
<pdfrwt beam="2">  1       21 0.12691465E-01 0.17792558E+03</pdfrwt>
<totfact> 0.14130295E+05</totfact>
</mgrwt>
</event>
<event>
12    1  0.1074575E-001  0.1752238E+03  0.7546771E-02  0.1172777E+00
         21   -1    0    0  501  502  0.00000000000E+00  0.00000000000E+00  0.70254661423E+03  0.70254661423E+03  0.00000000000E+00 0.  1.
         21   -1    0    0  502  503 -0.00000000000E+00 -0.00000000000E+00 -0.53270839770E+02  0.53270839770E+02  0.00000000000E+00 0.  1.
         -6    2    1    2    0  503 -0.19472656970E+02 -0.17869138186E+02  0.16145040161E+03  0.23747685774E+03  0.17213522392E+03 0.  0.
        -24    2    3    3    0    0  0.27693554713E+02  0.38312418749E+02  0.55285440199E+02  0.10834859633E+03  0.80300460932E+02 0.  0.
          6    2    1    2  501    0  0.19472656970E+02  0.17869138186E+02  0.48782537285E+03  0.51834059625E+03  0.17321919311E+03 0.  0.
         24    2    5    5    0    0  0.28211350668E+02 -0.21579074063E+02  0.46057734665E+03  0.46938070299E+03  0.83217878750E+02 0.  0.
          5    1    5    5  501    0 -0.87386936974E+01  0.39448212249E+02  0.27248026197E+02  0.48959893268E+02  0.47000000000E+01 0. -1.
        -11    1    6    6    0    0  0.56878677778E+02 -0.21462795507E+02  0.27828655568E+03  0.28484950877E+03  0.00000000000E+00 0.  1.
         12    1    6    6    0    0 -0.28667327111E+02 -0.11627855658E+00  0.18229079097E+03  0.18453119421E+03  0.00000000000E+00 0. -1.
         -5    1    3    3    0  503 -0.47166211683E+02 -0.56181556935E+02  0.10616496141E+03  0.12912826141E+03  0.47000000000E+01 0.  1.
         13    1    4    4    0    0  0.18834877551E+02 -0.17501839966E+02 -0.44762428238E+01  0.26097964755E+02  0.00000000000E+00 0. -1.
        -14    1    4    4    0    0  0.88586771620E+01  0.55814258715E+02  0.59761683023E+02  0.82250631576E+02  0.00000000000E+00 0.  1.
<mgrwt>
<rscale>  2 0.17495531E+03</rscale>
<asrwt>0</asrwt>
<pdfrwt beam="1">  1       21 0.10808409E+00 0.17522380E+03</pdfrwt>
<pdfrwt beam="2">  1       21 0.81955143E-02 0.17522380E+03</pdfrwt>
<totfact> 0.79027334E+04</totfact>
</mgrwt>
</event>
<event>
12    1  0.1074575E-001  0.1817845E+03  0.7546771E-02  0.1166103E+00
         21   -1    0    0  503  502  0.00000000000E+00  0.00000000000E+00  0.15485344688E+03  0.15485344688E+03  0.00000000000E+00 0. -1.
         21   -1    0    0  501  503 -0.00000000000E+00 -0.00000000000E+00 -0.42860270708E+03  0.42860270708E+03  0.00000000000E+00 0. -1.
          6    2    1    2  501    0  0.43153300445E+02 -0.35564425909E+02 -0.34364253655E+03  0.38876186515E+03  0.17296982148E+03 0.  0.
         24    2    3    3    0    0 -0.90685298882E+00  0.37481979350E+02 -0.22818852710E+03  0.24513459498E+03  0.81334153920E+02 0.  0.
         -6    2    1    2    0  502 -0.43153300445E+02  0.35564425909E+02  0.69893276342E+02  0.19469428880E+03  0.17289812112E+03 0.  0.
        -24    2    5    5    0    0  0.18860274618E+02  0.55413801648E+02  0.81534259354E+02  0.12838227108E+03  0.80048564679E+02 0.  0.
          5    1    3    3  501    0  0.44060153433E+02 -0.73046405259E+02 -0.11545400945E+03  0.14362727018E+03  0.47000000000E+01 0. -1.
        -13    1    4    4    0    0  0.33853318430E+02  0.42473164474E+02 -0.13208953169E+03  0.14282038108E+03  0.00000000000E+00 0.  1.
         14    1    4    4    0    0 -0.34760171419E+02 -0.49911851244E+01 -0.96098995413E+02  0.10231421390E+03  0.00000000000E+00 0. -1.
         -5    1    5    5    0  502 -0.62013575063E+02 -0.19849375738E+02 -0.11640983012E+02  0.66312017725E+02  0.47000000000E+01 0.  1.
         13    1    6    6    0    0  0.33479368433E+02  0.70958099883E+01  0.21292786252E+01  0.34289246966E+02  0.00000000000E+00 0. -1.
        -14    1    6    6    0    0 -0.14619093815E+02  0.48317991659E+02  0.79404980729E+02  0.94093024112E+02  0.00000000000E+00 0.  1.
<mgrwt>
<rscale>  2 0.18176742E+03</rscale>
<asrwt>0</asrwt>
<pdfrwt beam="1">  1       21 0.23823608E-01 0.18178447E+03</pdfrwt>
<pdfrwt beam="2">  1       21 0.65938877E-01 0.18178447E+03</pdfrwt>
<totfact> 0.35271913E+04</totfact>
</mgrwt>
</event>
<event>
12    1  0.1074575E-001  0.1832562E+03  0.7546771E-02  0.1165623E+00
         21   -1    0    0  501  502  0.00000000000E+00  0.00000000000E+00  0.83291784627E+03  0.83291784627E+03  0.00000000000E+00 0. -1.
         21   -1    0    0  502  503 -0.00000000000E+00 -0.00000000000E+00 -0.44995153355E+02  0.44995153355E+02  0.00000000000E+00 0. -1.
         -6    2    1    2    0  503  0.19945336690E+02  0.55332468733E+02  0.24379068567E+03  0.30498645978E+03  0.17356077804E+03 0.  0.
        -24    2    3    3    0    0 -0.17812867793E+02  0.96496895205E+02  0.17034345318E+03  0.21259177392E+03  0.80928494716E+02 0.  0.
          6    2    1    2  501    0 -0.19945336690E+02 -0.55332468733E+02  0.54413200724E+03  0.57292653985E+03  0.16942750723E+03 0.  0.
         24    2    5    5    0    0  0.35269995866E+02  0.23674460105E+01  0.17745398465E+03  0.19762282901E+03  0.79468789293E+02 0.  0.
          5    1    5    5  501    0 -0.55215332557E+02 -0.57699914744E+02  0.36667802259E+03  0.37530371083E+03  0.47000000000E+01 0. -1.
        -13    1    6    6    0    0  0.10082011962E+02  0.28427974802E+02  0.14764820235E+03  0.15069767209E+03  0.00000000000E+00 0.  1.
         14    1    6    6    0    0  0.25187983904E+02 -0.26060528792E+02  0.29805782301E+02  0.46925156927E+02  0.00000000000E+00 0. -1.
         -5    1    3    3    0  503  0.37758204483E+02 -0.41164426472E+02  0.73447232497E+02  0.92394685854E+02  0.47000000000E+01 0.  1.
         13    1    4    4    0    0 -0.23744127577E+01  0.57362694273E+02  0.15895918576E+03  0.16900928752E+03  0.00000000000E+00 0. -1.
        -14    1    4    4    0    0 -0.15438455035E+02  0.39134200933E+02  0.11384267414E+02  0.43582486403E+02  0.00000000000E+00 0.  1.
<mgrwt>
<rscale>  2 0.18227088E+03</rscale>
<asrwt>0</asrwt>
<pdfrwt beam="1">  1       21 0.12814120E+00 0.18325622E+03</pdfrwt>
<pdfrwt beam="2">  1       21 0.69223319E-02 0.18325622E+03</pdfrwt>
<totfact> 0.69436652E+04</totfact>
</mgrwt>
</event>
<event>
11    1  0.1074575E-001  0.1901988E+03  0.7546771E-02  0.1158413E+00
         21   -1    0    0  503  502  0.00000000000E+00  0.00000000000E+00  0.12824089558E+03  0.12824089558E+03  0.00000000000E+00 0. -1.
         21   -1    0    0  501  503 -0.00000000000E+00 -0.00000000000E+00 -0.29738210720E+03  0.29738210720E+03  0.00000000000E+00 0. -1.
          6    2    1    2  501    0 -0.54103872356E+02 -0.55532924877E+02 -0.35097063446E+02  0.19340989006E+03  0.17367914947E+03 0.  0.
         24    2    3    3    0    0  0.74063050724E+01  0.13635886865E+02 -0.52417591303E+02  0.99123532980E+02  0.82686638262E+02 0.  0.
         -6    2    1    2    0  502  0.54103872356E+02  0.55532924877E+02 -0.13404414817E+03  0.23221311272E+03  0.17304323538E+03 0.  0.
          5    1    3    3  501    0 -0.61510177429E+02 -0.69168811743E+02  0.17320527858E+02  0.94286357075E+02  0.47000000000E+01 0. -1.
        -13    1    4    4    0    0  0.22404438216E+02 -0.26450104481E+02 -0.43119988833E+02  0.55325403892E+02  0.00000000000E+00 0.  1.
         14    1    4    4    0    0 -0.14998133143E+02  0.40085991346E+02 -0.92976024699E+01  0.43798129088E+02  0.00000000000E+00 0. -1.
         -5    1    5    5    0  502  0.29828044318E+02 -0.52607545834E+02 -0.84330213404E+02  0.10387945417E+03  0.47000000000E+01 0.  1.
         11    1    5    5    0    0  0.26083788174E+02  0.46655922378E+02 -0.80856795475E+01  0.54060311802E+02  0.00000000000E+00 0. -1.
        -12    1    5    5    0    0 -0.18079601360E+01  0.61484548334E+02 -0.41628255221E+02  0.74273346743E+02  0.00000000000E+00 0.  1.
<mgrwt>
<rscale>  2 0.19005350E+03</rscale>
<asrwt>0</asrwt>
<pdfrwt beam="1">  1       21 0.19729369E-01 0.19019880E+03</pdfrwt>
<pdfrwt beam="2">  1       21 0.45751093E-01 0.19019880E+03</pdfrwt>
<totfact> 0.10854639E+05</totfact>
</mgrwt>
</event>
<event>
11    1  0.1074575E-001  0.2062552E+03  0.7546771E-02  0.1145227E+00
         21   -1    0    0  501  502  0.00000000000E+00  0.00000000000E+00  0.72986189012E+03  0.72986189012E+03  0.00000000000E+00 0. -1.
         21   -1    0    0  502  503 -0.00000000000E+00 -0.00000000000E+00 -0.11281590552E+03  0.11281590552E+03  0.00000000000E+00 0. -1.
         -6    2    1    2    0  503  0.10698221450E+03  0.98163431509E+01  0.14405081852E+02  0.20675764753E+03  0.17606721334E+03 0.  0.
        -24    2    3    3    0    0  0.14042998315E+03  0.26820370255E+02  0.30709901322E+02  0.16557722374E+03  0.77671143651E+02 0.  0.
          6    2    1    2  501    0 -0.10698221450E+03 -0.98163431509E+01  0.60264090276E+03  0.63592014812E+03  0.17226962092E+03 0.  0.
          5    1    5    5  501    0 -0.13082772024E+02  0.28450056259E+02  0.49653553767E+02  0.58890831431E+02  0.47000000000E+01 0. -1.
        -11    1    5    5    0    0 -0.18401240235E+02 -0.41951307486E+02  0.47757156454E+02  0.66176006487E+02  0.00000000000E+00 0.  1.
         12    1    5    5    0    0 -0.75498202244E+02  0.36849080759E+01  0.50523019254E+03  0.51085331020E+03  0.00000000000E+00 0. -1.
         -5    1    3    3    0  503 -0.33447768643E+02 -0.17004027104E+02 -0.16304819470E+02  0.41180423783E+02  0.47000000000E+01 0.  1.
         11    1    4    4    0    0  0.57089992343E+02  0.50205729617E+02  0.17534449312E+02  0.78021403632E+02  0.00000000000E+00 0. -1.
        -12    1    4    4    0    0  0.83339990803E+02 -0.23385359361E+02  0.13175452010E+02  0.87555820111E+02  0.00000000000E+00 0.  1.
<mgrwt>
<rscale>  2 0.20544240E+03</rscale>
<asrwt>0</asrwt>
<pdfrwt beam="1">  1       21 0.11228644E+00 0.20625523E+03</pdfrwt>
<pdfrwt beam="2">  1       21 0.17356294E-01 0.20625523E+03</pdfrwt>
<totfact> 0.18496170E+04</totfact>
</mgrwt>
</event>
<event>
12    1  0.1074575E-001  0.1777797E+03  0.7546771E-02  0.1170538E+00
         21   -1    0    0  501  502  0.00000000000E+00  0.00000000000E+00  0.85947938047E+03  0.85947938047E+03  0.00000000000E+00 0. -1.
         21   -1    0    0  502  503 -0.00000000000E+00 -0.00000000000E+00 -0.49435519536E+02  0.49435519536E+02  0.00000000000E+00 0. -1.
         -6    2    1    2    0  503  0.25835581404E+02 -0.11426026609E+01  0.17269349372E+03  0.24784804937E+03  0.17588868638E+03 0.  0.
        -24    2    3    3    0    0 -0.16314462386E+02  0.39503672824E+02  0.16585170345E+03  0.18870714985E+03  0.79226883184E+02 0.  0.
          6    2    1    2  501    0 -0.25835581404E+02  0.11426026609E+01  0.63735036721E+03  0.66106685063E+03  0.17356585958E+03 0.  0.
         24    2    5    5    0    0 -0.51550936612E+02 -0.15375154007E+02  0.20806850676E+03  0.23067270396E+03  0.83806314917E+02 0.  0.
          5    1    5    5  501    0  0.25715355208E+02  0.16517756668E+02  0.42928186045E+03  0.43039414667E+03  0.47000000000E+01 0. -1.
        -11    1    6    6    0    0 -0.12270395919E+02 -0.32905627403E+02  0.26276802083E+02  0.43861295677E+02  0.00000000000E+00 0.  1.
         12    1    6    6    0    0 -0.39280540693E+02  0.17530473396E+02  0.18179170468E+03  0.18681140828E+03  0.00000000000E+00 0. -1.
         -5    1    3    3    0  503  0.42150043789E+02 -0.40646275485E+02  0.68417902770E+01  0.59140899524E+02  0.47000000000E+01 0.  1.
         13    1    4    4    0    0 -0.22294900653E+02  0.50720810777E+02  0.58376438807E+02  0.80482742553E+02  0.00000000000E+00 0. -1.
        -14    1    4    4    0    0  0.59804382670E+01 -0.11217137953E+02  0.10747526464E+03  0.10822440730E+03  0.00000000000E+00 0.  1.
<mgrwt>
<rscale>  2 0.17720242E+03</rscale>
<asrwt>0</asrwt>
<pdfrwt beam="1">  1       21 0.13222759E+00 0.17777967E+03</pdfrwt>
<pdfrwt beam="2">  1       21 0.76054652E-02 0.17777967E+03</pdfrwt>
<totfact> 0.54683044E+04</totfact>
</mgrwt>
</event>
<event>
12    1  0.1074575E-001  0.2442085E+03  0.7546771E-02  0.1118693E+00
         21   -1    0    0  503  502  0.00000000000E+00  0.00000000000E+00  0.22756082425E+04  0.22756082425E+04  0.00000000000E+00 0. -1.
         21   -1    0    0  501  503 -0.00000000000E+00 -0.00000000000E+00 -0.27873481783E+02  0.27873481783E+02  0.00000000000E+00 0. -1.
          6    2    1    2  501    0  0.88780007732E+01  0.15694997998E+03  0.74203771142E+03  0.77810918200E+03  0.17355638515E+03 0.  0.
         24    2    3    3    0    0  0.52008276446E+02  0.11825974913E+03  0.66195779671E+03  0.67915445809E+03  0.79827465463E+02 0.  0.
         -6    2    1    2    0  502 -0.88780007732E+01 -0.15694997998E+03  0.15056970493E+04  0.15253725423E+04  0.18688411752E+03 0.  0.
        -24    2    5    5    0    0 -0.39123467569E+02 -0.18169113647E+03  0.11669559412E+04  0.11843526875E+04  0.79767190927E+02 0.  0.
          5    1    3    3  501    0 -0.43130275673E+02  0.38690230850E+02  0.80079914718E+02  0.98954723910E+02  0.47000000000E+01 0. -1.
        -13    1    4    4    0    0  0.72066277053E+00 -0.11911446362E+02  0.49117638175E+02  0.50546456742E+02  0.00000000000E+00 0.  1.
         14    1    4    4    0    0  0.51287613676E+02  0.13017119549E+03  0.61284015853E+03  0.62860800135E+03  0.00000000000E+00 0. -1.
         -5    1    5    5    0  502  0.30245466796E+02  0.24741156491E+02  0.33874110804E+03  0.34101985479E+03  0.47000000000E+01 0.  1.
         13    1    6    6    0    0 -0.14605484623E+02 -0.12524032292E+03  0.96569373933E+03  0.97389057745E+03  0.00000000000E+00 0. -1.
        -14    1    6    6    0    0 -0.24517982946E+02 -0.56450813553E+02  0.20126220191E+03  0.21046211002E+03  0.00000000000E+00 0.  1.
<mgrwt>
<rscale>  2 0.24165832E+03</rscale>
<asrwt>0</asrwt>
<pdfrwt beam="1">  1       21 0.35009343E+00 0.24420849E+03</pdfrwt>
<pdfrwt beam="2">  1       21 0.42882298E-02 0.24420849E+03</pdfrwt>
<totfact> 0.57473196E+03</totfact>
</mgrwt>
</event>
<event>
12    1  0.1074575E-001  0.2400720E+03  0.7546771E-02  0.1119902E+00
         21   -1    0    0  501  502  0.00000000000E+00  0.00000000000E+00  0.50214504391E+02  0.50214504391E+02  0.00000000000E+00 0.  1.
         21   -1    0    0  502  503 -0.00000000000E+00 -0.00000000000E+00 -0.11932951772E+04  0.11932951772E+04  0.00000000000E+00 0. -1.
         -6    2    1    2    0  503 -0.87327088648E+02  0.14220369815E+03 -0.69775554739E+03  0.73759563716E+03  0.17127932703E+03 0.  0.
        -24    2    3    3    0    0 -0.12674113935E+03  0.12653801954E+03 -0.55614040174E+03  0.58969086930E+03  0.79799674785E+02 0.  0.
          6    2    1    2  501    0  0.87327088648E+02 -0.14220369815E+03 -0.44532512540E+03  0.50591404440E+03  0.17258806690E+03 0.  0.
         24    2    5    5    0    0  0.18119697684E+02 -0.24900878998E+01 -0.18590305825E+03  0.20320716510E+03  0.79991755201E+02 0.  0.
          5    1    5    5  501    0  0.69207390963E+02 -0.13971361025E+03 -0.25942206714E+03  0.30270687930E+03  0.47000000000E+01 0. -1.
        -13    1    6    6    0    0 -0.29623877423E+01 -0.23396572510E+02 -0.11396192764E+02  0.26192528627E+02  0.00000000000E+00 0.  1.
         14    1    6    6    0    0  0.21082085427E+02  0.20906484610E+02 -0.17450686549E+03  0.17701463648E+03  0.00000000000E+00 0. -1.
         -5    1    3    3    0  503  0.39414050702E+02  0.15665678615E+02 -0.14161514565E+03  0.14790476786E+03  0.47000000000E+01 0.  1.
         11    1    4    4    0    0 -0.10481368644E+03  0.49625693149E+02 -0.31876921743E+03  0.33920853802E+03  0.00000000000E+00 0. -1.
        -12    1    4    4    0    0 -0.21927452907E+02  0.76912326390E+02 -0.23737118431E+03  0.25048233128E+03  0.00000000000E+00 0.  1.
<mgrwt>
<rscale>  2 0.23983685E+03</rscale>
<asrwt>0</asrwt>
<pdfrwt beam="1">  1       21 0.77253088E-02 0.24007197E+03</pdfrwt>
<pdfrwt beam="2">  1       21 0.18358386E+00 0.24007197E+03</pdfrwt>
<totfact> 0.21259521E+04</totfact>
</mgrwt>
</event>
<event>
12    1  0.1074575E-001  0.1844230E+03  0.7546771E-02  0.1164853E+00
         21   -1    0    0  501  502  0.00000000000E+00  0.00000000000E+00  0.27091552853E+03  0.27091552853E+03  0.00000000000E+00 0. -1.
         21   -1    0    0  502  503 -0.00000000000E+00 -0.00000000000E+00 -0.55742136866E+03  0.55742136866E+03  0.00000000000E+00 0. -1.
         -6    2    1    2    0  503  0.61629954439E+02 -0.27882845532E+02 -0.50976899487E+03  0.54210354604E+03  0.17156958395E+03 0.  0.
        -24    2    3    3    0    0 -0.15221177299E+02  0.30747311896E+02 -0.21803834895E+03  0.23473983383E+03  0.79906110837E+02 0.  0.
          6    2    1    2  501    0 -0.61629954439E+02  0.27882845532E+02  0.22326315474E+03  0.28623335116E+03  0.16585352181E+03 0.  0.
         24    2    5    5    0    0 -0.89120081522E+02  0.57712860863E+02  0.19679933242E+03  0.23757165377E+03  0.80231852740E+02 0.  0.
          5    1    5    5  501    0  0.27490127083E+02 -0.29830015331E+02  0.26463822322E+02  0.48661697397E+02  0.47000000000E+01 0. -1.
        -11    1    6    6    0    0  0.11873313263E+01 -0.15581370819E+02  0.34768638735E+02  0.38118855069E+02  0.00000000000E+00 0.  1.
         12    1    6    6    0    0 -0.90307412848E+02  0.73294231682E+02  0.16203069368E+03  0.19945279870E+03  0.00000000000E+00 0. -1.
         -5    1    3    3    0  503  0.76851131739E+02 -0.58630157428E+02 -0.29173064592E+03  0.30736371220E+03  0.47000000000E+01 0.  1.
         13    1    4    4    0    0  0.12875621411E+02  0.32545393436E+02 -0.19568614855E+03  0.19879148119E+03  0.00000000000E+00 0. -1.
        -14    1    4    4    0    0 -0.28096798710E+02 -0.17980815401E+01 -0.22352200398E+02  0.35948352641E+02  0.00000000000E+00 0.  1.
<mgrwt>
<rscale>  2 0.18308205E+03</rscale>
<asrwt>0</asrwt>
<pdfrwt beam="1">  1       21 0.41679313E-01 0.18442296E+03</pdfrwt>
<pdfrwt beam="2">  1       21 0.85757133E-01 0.18442296E+03</pdfrwt>
<totfact> 0.65476674E+03</totfact>
</mgrwt>
</event>
<event>
12    1  0.1074575E-001  0.2338398E+03  0.7546771E-02  0.1124053E+00
         21   -1    0    0  501  502  0.00000000000E+00  0.00000000000E+00  0.18528095498E+04  0.18528095498E+04  0.00000000000E+00 0. -1.
         21   -1    0    0  502  503 -0.00000000000E+00 -0.00000000000E+00 -0.30266373001E+02  0.30266373001E+02  0.00000000000E+00 0. -1.
         -6    2    1    2    0  503  0.50080868749E+02 -0.14829865196E+03  0.75554418147E+03  0.79075367848E+03  0.17304272968E+03 0.  0.
        -24    2    3    3    0    0  0.26937685028E+02 -0.11957065674E+03  0.30268144339E+03  0.33636655916E+03  0.80645056415E+02 0.  0.
          6    2    1    2  501    0 -0.50080868749E+02  0.14829865196E+03  0.10669989953E+04  0.10923222443E+04  0.17372520200E+03 0.  0.
         24    2    5    5    0    0 -0.43285592711E+01  0.85777996218E+02  0.33029501121E+03  0.35154092947E+03  0.84318619524E+02 0.  0.
          5    1    5    5  501    0 -0.45752309478E+02  0.62520655741E+02  0.73670398411E+03  0.74078131485E+03  0.47000000000E+01 0. -1.
        -13    1    6    6    0    0 -0.19083953937E+02 -0.11288430714E+02  0.62047552782E+02  0.65890247929E+02  0.00000000000E+00 0.  1.
         14    1    6    6    0    0  0.14755394666E+02  0.97066426932E+02  0.26824745843E+03  0.28565068154E+03  0.00000000000E+00 0. -1.
         -5    1    3    3    0  503  0.23143183721E+02 -0.28727995220E+02  0.45286273808E+03  0.45438711932E+03  0.47000000000E+01 0.  1.
         13    1    4    4    0    0  0.20641075339E+02 -0.11201178528E+03  0.30557530864E+03  0.32611188768E+03  0.00000000000E+00 0. -1.
        -14    1    4    4    0    0  0.62966096888E+01 -0.75588714546E+01 -0.28938652502E+01  0.10254671488E+02  0.00000000000E+00 0.  1.
<mgrwt>
<rscale>  2 0.23371300E+03</rscale>
<asrwt>0</asrwt>
<pdfrwt beam="1">  1       21 0.28504753E+00 0.23383975E+03</pdfrwt>
<pdfrwt beam="2">  1       21 0.46563665E-02 0.23383975E+03</pdfrwt>
<totfact> 0.12147309E+04</totfact>
</mgrwt>
</event>
<event>
12    1  0.1074575E-001  0.3275696E+03  0.7546771E-02  0.1072443E+00
         21   -1    0    0  503  502  0.00000000000E+00  0.00000000000E+00  0.31981542825E+04  0.31981542825E+04  0.00000000000E+00 0. -1.
         21   -1    0    0  501  503 -0.00000000000E+00 -0.00000000000E+00 -0.46580868988E+02  0.46580868988E+02  0.00000000000E+00 0.  1.
          6    2    1    2  501    0  0.27086170663E+03 -0.55612795231E+02  0.71446841347E+03  0.78598153447E+03  0.17562178560E+03 0.  0.
         24    2    3    3    0    0  0.27876807016E+03 -0.27348638516E+02  0.68361457291E+03  0.74313970192E+03  0.80424792854E+02 0.  0.
         -6    2    1    2    0  502 -0.27086170663E+03  0.55612795231E+02  0.24371050001E+04  0.24587536170E+04  0.17184213931E+03 0.  0.
        -24    2    5    5    0    0 -0.41551517553E+02  0.25374423302E+02  0.65449011209E+03  0.66118986273E+03  0.80276632910E+02 0.  0.
          5    1    3    3  501    0 -0.79063635378E+01 -0.28264156715E+02  0.30853840563E+02  0.42841832555E+02  0.47000000000E+01 0. -1.
        -11    1    4    4    0    0  0.16467458789E+02 -0.21479162656E+01  0.90034792913E+01  0.18890563322E+02  0.00000000000E+00 0.  1.
         12    1    4    4    0    0  0.26230061137E+03 -0.25200722250E+02  0.67461109362E+03  0.72424913860E+03  0.00000000000E+00 0. -1.
         -5    1    5    5    0  502 -0.22931018907E+03  0.30238371929E+02  0.17826148880E+04  0.17975637543E+04  0.47000000000E+01 0.  1.
         11    1    6    6    0    0 -0.62061750597E+02  0.19337909980E+02  0.58181424865E+03  0.58543439904E+03  0.00000000000E+00 0. -1.
        -12    1    6    6    0    0  0.20510233044E+02  0.60365133212E+01  0.72675863437E+02  0.75755463690E+02  0.00000000000E+00 0.  1.
<mgrwt>
<rscale>  2 0.32706577E+03</rscale>
<asrwt>0</asrwt>
<pdfrwt beam="1">  1       21 0.49202356E+00 0.32756962E+03</pdfrwt>
<pdfrwt beam="2">  1       21 0.71662901E-02 0.32756962E+03</pdfrwt>
<totfact> 0.26275717E+02</totfact>
</mgrwt>
</event>
<event>
12    1  0.1074575E-001  0.2124849E+03  0.7546771E-02  0.1139662E+00
         21   -1    0    0  501  502  0.00000000000E+00  0.00000000000E+00  0.15901241343E+03  0.15901241343E+03  0.00000000000E+00 0. -1.
         21   -1    0    0  502  503 -0.00000000000E+00 -0.00000000000E+00 -0.29649585333E+03  0.29649585333E+03  0.00000000000E+00 0.  1.
         -6    2    1    2    0  503  0.77222402923E+02 -0.95539686294E+02 -0.21294034255E+02  0.21354920589E+03  0.17337443950E+03 0.  0.
        -24    2    3    3    0    0  0.10933272184E+03 -0.95446176979E+02 -0.48578804204E+02  0.17115073898E+03  0.76609780531E+02 0.  0.
          6    2    1    2  501    0 -0.77222402923E+02  0.95539686294E+02 -0.11618940565E+03  0.24195906087E+03  0.17306957555E+03 0.  0.
         24    2    5    5    0    0 -0.81831961064E+02  0.98843135892E+02 -0.14603071649E+03  0.21122219964E+03  0.82603947224E+02 0.  0.
          5    1    5    5  501    0  0.46095581411E+01 -0.33034495974E+01  0.29841310841E+02  0.30736861229E+02  0.47000000000E+01 0. -1.
        -11    1    6    6    0    0 -0.56975287372E+02  0.11656440158E+02 -0.80715385979E+02  0.99483815276E+02  0.00000000000E+00 0.  1.
         12    1    6    6    0    0 -0.24856673692E+02  0.87186695734E+02 -0.65315330510E+02  0.11173838436E+03  0.00000000000E+00 0. -1.
         -5    1    3    3    0  503 -0.32110318913E+02 -0.93509314838E-01  0.27284769949E+02  0.42398466904E+02  0.47000000000E+01 0.  1.
         11    1    4    4    0    0  0.56415540880E+02 -0.34693357429E+02  0.15721513066E+02  0.68069877887E+02  0.00000000000E+00 0. -1.
        -12    1    4    4    0    0  0.52917180956E+02 -0.60752819550E+02 -0.64300317270E+02  0.10308086110E+03  0.00000000000E+00 0.  1.
<mgrwt>
<rscale>  2 0.21242269E+03</rscale>
<asrwt>0</asrwt>
<pdfrwt beam="1">  1       21 0.24463448E-01 0.21248489E+03</pdfrwt>
<pdfrwt beam="2">  1       21 0.45614746E-01 0.21248489E+03</pdfrwt>
<totfact> 0.72120815E+04</totfact>
</mgrwt>
</event>
<event>
12    1  0.1074575E-001  0.1758456E+03  0.7546771E-02  0.1171945E+00
         21   -1    0    0  501  502  0.00000000000E+00  0.00000000000E+00  0.10723207317E+03  0.10723207317E+03  0.00000000000E+00 0. -1.
         21   -1    0    0  502  503 -0.00000000000E+00 -0.00000000000E+00 -0.28837963605E+03  0.28837963605E+03  0.00000000000E+00 0. -1.
         -6    2    1    2    0  503 -0.22046945877E+02 -0.12743083194E+02 -0.83167212208E+02  0.19452111066E+03  0.17399202084E+03 0.  0.
        -24    2    3    3    0    0 -0.47825933060E+02  0.52036398441E+02 -0.53672422446E+02  0.11867277486E+03  0.78787003534E+02 0.  0.
          6    2    1    2  501    0  0.22046945877E+02  0.12743083194E+02 -0.97980350671E+02  0.20109059856E+03  0.17374931862E+03 0.  0.
         24    2    5    5    0    0 -0.48940008035E+02  0.30033900196E+02 -0.60964426471E+02  0.11905165280E+03  0.84613682056E+02 0.  0.
          5    1    5    5  501    0  0.70986953912E+02 -0.17290817003E+02 -0.37015924200E+02  0.82038945768E+02  0.47000000000E+01 0. -1.
        -11    1    6    6    0    0 -0.25135746199E+02 -0.10073241942E+02  0.14212704952E+02  0.30582297531E+02  0.00000000000E+00 0.  1.
         12    1    6    6    0    0 -0.23804261836E+02  0.40107142139E+02 -0.75177131423E+02  0.88469355266E+02  0.00000000000E+00 0. -1.
         -5    1    3    3    0  503  0.25778987184E+02 -0.64779481635E+02 -0.29494789762E+02  0.75848335804E+02  0.47000000000E+01 0.  1.
         11    1    4    4    0    0 -0.36183032775E+02 -0.11444140471E+02 -0.34649102203E+02  0.51388135745E+02  0.00000000000E+00 0. -1.
        -12    1    4    4    0    0 -0.11642900285E+02  0.63480538913E+02 -0.19023320243E+02  0.67284639114E+02  0.00000000000E+00 0.  1.
<mgrwt>
<rscale>  2 0.17578554E+03</rscale>
<asrwt>0</asrwt>
<pdfrwt beam="1">  1       21 0.16497242E-01 0.17584561E+03</pdfrwt>
<pdfrwt beam="2">  1       21 0.44366097E-01 0.17584561E+03</pdfrwt>
<totfact> 0.16168539E+05</totfact>
</mgrwt>
</event>
<event>
12    1  0.1074575E-001  0.1854935E+03  0.7546771E-02  0.1165884E+00
         21   -1    0    0  503  502  0.00000000000E+00  0.00000000000E+00  0.10082361053E+03  0.10082361053E+03  0.00000000000E+00 0. -1.
         21   -1    0    0  501  503 -0.00000000000E+00 -0.00000000000E+00 -0.44494558949E+03  0.44494558949E+03  0.00000000000E+00 0. -1.
          6    2    1    2  501    0  0.54915237618E+02 -0.40792491969E+02 -0.31382220386E+03  0.35781732295E+03  0.15769955689E+03 0.  0.
         24    2    3    3    0    0  0.72539586764E+02 -0.70310975940E+02 -0.20994726784E+03  0.24829996857E+03  0.85845175344E+02 0.  0.
         -6    2    1    2    0  502 -0.54915237618E+02  0.40792491969E+02 -0.30299775096E+02  0.18795187706E+03  0.17241844738E+03 0.  0.
        -24    2    5    5    0    0 -0.66139524933E+02 -0.10234816241E+02 -0.66656074934E+02  0.12412679307E+03  0.80530989130E+02 0.  0.
          5    1    3    3  501    0 -0.17624349146E+02  0.29518483971E+02 -0.10387493602E+03  0.10951735439E+03  0.47000000000E+01 0. -1.
        -13    1    4    4    0    0 -0.13058493405E+02  0.88898279486E+01 -0.29135951564E+02  0.33142977605E+02  0.00000000000E+00 0.  1.
         14    1    4    4    0    0  0.85598080169E+02 -0.79200803889E+02 -0.18081131628E+03  0.21515699096E+03  0.00000000000E+00 0. -1.
         -5    1    5    5    0  502  0.11224287315E+02  0.51027308210E+02  0.36356299838E+02  0.63825083994E+02  0.47000000000E+01 0.  1.
         11    1    6    6    0    0 -0.39806398252E+02  0.30510078038E+02 -0.54597214573E+02  0.74136833240E+02  0.00000000000E+00 0. -1.
        -12    1    6    6    0    0 -0.26333126681E+02 -0.40744894278E+02 -0.12058860361E+02  0.49989959829E+02  0.00000000000E+00 0.  1.
<mgrwt>
<rscale>  2 0.18199694E+03</rscale>
<asrwt>0</asrwt>
<pdfrwt beam="1">  1       21 0.15511325E-01 0.18549348E+03</pdfrwt>
<pdfrwt beam="2">  1       21 0.68453168E-01 0.18549348E+03</pdfrwt>
<totfact> 0.72043338E+04</totfact>
</mgrwt>
</event>
<event>
12    1  0.1074575E-001  0.2347066E+03  0.7546771E-02  0.1123621E+00
         21   -1    0    0  501  502  0.00000000000E+00  0.00000000000E+00  0.19916341748E+03  0.19916341748E+03  0.00000000000E+00 0.  1.
         21   -1    0    0  502  503 -0.00000000000E+00 -0.00000000000E+00 -0.27702094085E+03  0.27702094085E+03  0.00000000000E+00 0. -1.
         -6    2    1    2    0  503  0.14876679991E+03  0.54935797490E+02 -0.59759233254E+02  0.24078101304E+03  0.17104042703E+03 0.  0.
        -24    2    3    3    0    0  0.13123770762E+03  0.35391893177E+02 -0.10391279697E+03  0.18919748407E+03  0.80758260260E+02 0.  0.
          6    2    1    2  501    0 -0.14876679991E+03 -0.54935797490E+02 -0.18098290115E+02  0.23540334529E+03  0.17302509722E+03 0.  0.
         24    2    5    5    0    0 -0.13364685119E+03 -0.81527265682E+02  0.29962993668E+02  0.17823958029E+03  0.79770866311E+02 0.  0.
          5    1    5    5  501    0 -0.15119948724E+02  0.26591468192E+02 -0.48061283783E+02  0.57163764999E+02  0.47000000000E+01 0. -1.
        -13    1    6    6    0    0 -0.16795605918E+02 -0.31683636931E+02  0.36323642983E+02  0.51042651448E+02  0.00000000000E+00 0.  1.
         14    1    6    6    0    0 -0.11685124527E+03 -0.49843628751E+02 -0.63606493151E+01  0.12719692885E+03  0.00000000000E+00 0. -1.
         -5    1    3    3    0  503  0.17529092292E+02  0.19543904313E+02  0.44153563712E+02  0.51583528968E+02  0.47000000000E+01 0.  1.
         11    1    4    4    0    0  0.59017421045E+02 -0.14651521211E+02 -0.11882907941E+02  0.61959071666E+02  0.00000000000E+00 0. -1.
        -12    1    4    4    0    0  0.72220286575E+02  0.50043414388E+02 -0.92029889025E+02  0.12723841240E+03  0.00000000000E+00 0.  1.
<mgrwt>
<rscale>  2 0.23434093E+03</rscale>
<asrwt>0</asrwt>
<pdfrwt beam="1">  1       21 0.30640526E-01 0.23470660E+03</pdfrwt>
<pdfrwt beam="2">  1       21 0.42618606E-01 0.23470660E+03</pdfrwt>
<totfact> 0.53138499E+04</totfact>
</mgrwt>
</event>
<event>
12    1  0.1074575E-001  0.1921461E+03  0.7546771E-02  0.1156613E+00
         21   -1    0    0  503  502  0.00000000000E+00  0.00000000000E+00  0.22595236989E+04  0.22595236989E+04  0.00000000000E+00 0. -1.
         21   -1    0    0  501  503 -0.00000000000E+00 -0.00000000000E+00 -0.24198685753E+02  0.24198685753E+02  0.00000000000E+00 0. -1.
          6    2    1    2  501    0  0.21994556826E+02  0.79874145664E+02  0.46642178215E+03  0.50444961634E+03  0.17336809650E+03 0.  0.
         24    2    3    3    0    0  0.56760854324E+02  0.41729932837E+02  0.15290573168E+03  0.18667913263E+03  0.80658253766E+02 0.  0.
         -6    2    1    2    0  502 -0.21994556826E+02 -0.79874145664E+02  0.17689032310E+04  0.17792727683E+04  0.17300087793E+03 0.  0.
        -24    2    5    5    0    0 -0.69667989161E+01 -0.11154664674E+03  0.99352572372E+03  0.10030889308E+04  0.81257914762E+02 0.  0.
          5    1    3    3  501    0 -0.34766297498E+02  0.38144212827E+02  0.31351605047E+03  0.31777048371E+03  0.47000000000E+01 0. -1.
        -13    1    4    4    0    0  0.38900341093E+02 -0.19268907520E+02  0.57708789072E+02  0.72213791413E+02  0.00000000000E+00 0.  1.
         14    1    4    4    0    0  0.17860513231E+02  0.60998840357E+02  0.95196942612E+02  0.11446534122E+03  0.00000000000E+00 0. -1.
         -5    1    5    5    0  502 -0.15027757910E+02  0.31672501077E+02  0.77537750727E+03  0.77618383751E+03  0.47000000000E+01 0.  1.
         13    1    6    6    0    0 -0.26440377083E+02 -0.34770383541E+01  0.26425059255E+03  0.26559284441E+03  0.00000000000E+00 0. -1.
        -14    1    6    6    0    0  0.19473578167E+02 -0.10806960839E+03  0.72927513117E+03  0.73749608640E+03  0.00000000000E+00 0.  1.
<mgrwt>
<rscale>  2 0.19206326E+03</rscale>
<asrwt>0</asrwt>
<pdfrwt beam="1">  1       21 0.34761886E+00 0.19214613E+03</pdfrwt>
<pdfrwt beam="2">  1       21 0.37228765E-02 0.19214613E+03</pdfrwt>
<totfact> 0.79855261E+03</totfact>
</mgrwt>
</event>
<event>
12    1  0.1074575E-001  0.2101139E+03  0.7546771E-02  0.1141727E+00
         21   -1    0    0  503  502  0.00000000000E+00  0.00000000000E+00  0.34267336747E+03  0.34267336747E+03  0.00000000000E+00 0.  1.
         21   -1    0    0  501  503 -0.00000000000E+00 -0.00000000000E+00 -0.10274939309E+04  0.10274939309E+04  0.00000000000E+00 0.  1.
          6    2    1    2  501    0 -0.11419110823E+03 -0.32569938671E+02 -0.98350986253E+03  0.10057034927E+04  0.17334201865E+03 0.  0.
         24    2    3    3    0    0 -0.12288875353E+03 -0.79273782363E+01 -0.95670192651E+03  0.96797207009E+03  0.80789004253E+02 0.  0.
         -6    2    1    2    0  502  0.11419110823E+03  0.32569938671E+02  0.29868929905E+03  0.36446380572E+03  0.17180849285E+03 0.  0.
        -24    2    5    5    0    0  0.11761650847E+03  0.13666238756E+01  0.12998755386E+03  0.19280207717E+03  0.80251891429E+02 0.  0.
          5    1    3    3  501    0  0.86976453036E+01 -0.24642560434E+02 -0.26807936011E+02  0.37731422605E+02  0.47000000000E+01 0. -1.
        -11    1    4    4    0    0 -0.27206679288E+01 -0.18185930242E+02 -0.49810222663E+02  0.53096029743E+02  0.00000000000E+00 0.  1.
         12    1    4    4    0    0 -0.12016808560E+03  0.10258552006E+02 -0.90689170385E+03  0.91487604035E+03  0.00000000000E+00 0. -1.
         -5    1    5    5    0  502 -0.34254002398E+01  0.31203314795E+02  0.16870174518E+03  0.17166172855E+03  0.47000000000E+01 0.  1.
         13    1    6    6    0    0  0.13649594485E+02 -0.14085414209E+02 -0.63819782980E+01  0.20626196208E+02  0.00000000000E+00 0. -1.
        -14    1    6    6    0    0  0.10396691398E+03  0.15452038084E+02  0.13636953216E+03  0.17217588096E+03  0.00000000000E+00 0.  1.
<mgrwt>
<rscale>  2 0.20979738E+03</rscale>
<asrwt>0</asrwt>
<pdfrwt beam="1">  1       21 0.52718979E-01 0.21011393E+03</pdfrwt>
<pdfrwt beam="2">  1       21 0.15807599E+00 0.21011393E+03</pdfrwt>
<totfact> 0.87075598E+02</totfact>
</mgrwt>
</event>
<event>
12    1  0.1074575E-001  0.1785624E+03  0.7546771E-02  0.1169370E+00
         21   -1    0    0  503  502  0.00000000000E+00  0.00000000000E+00  0.70218802273E+03  0.70218802273E+03  0.00000000000E+00 0. -1.
         21   -1    0    0  501  503 -0.00000000000E+00 -0.00000000000E+00 -0.18967116250E+03  0.18967116250E+03  0.00000000000E+00 0. -1.
          6    2    1    2  501    0 -0.22231011780E+02 -0.37316962452E+02 -0.13299905360E+03  0.22210152613E+03  0.17249222035E+03 0.  0.
         24    2    3    3    0    0 -0.60640047843E+02  0.24216656412E+02 -0.60626831740E+02  0.11952731495E+03  0.79671227196E+02 0.  0.
         -6    2    1    2    0  502  0.22231011780E+02  0.37316962452E+02  0.64551591384E+03  0.66975765910E+03  0.17319859507E+03 0.  0.
        -24    2    5    5    0    0  0.46070599031E+02 -0.37554845062E+02  0.32546809632E+03  0.34017184482E+03  0.79085623221E+02 0.  0.
          5    1    3    3  501    0  0.38409036063E+02 -0.61533618863E+02 -0.72372221860E+02  0.10257421118E+03  0.47000000000E+01 0. -1.
        -13    1    4    4    0    0 -0.38639462404E+02 -0.26330356721E+02 -0.19096868573E+02  0.50507287882E+02  0.00000000000E+00 0.  1.
         14    1    4    4    0    0 -0.22000585439E+02  0.50547013132E+02 -0.41529963167E+02  0.69020027071E+02  0.00000000000E+00 0. -1.
         -5    1    5    5    0  502 -0.23839587251E+02  0.74871807513E+02  0.32004781752E+03  0.32958581428E+03  0.47000000000E+01 0.  1.
         11    1    6    6    0    0  0.16308548525E+02 -0.20391799659E+02  0.28859446064E+03  0.28977328545E+03  0.00000000000E+00 0. -1.
        -12    1    6    6    0    0  0.29762050506E+02 -0.17163045403E+02  0.36873635679E+02  0.50398559365E+02  0.00000000000E+00 0.  1.
<mgrwt>
<rscale>  2 0.17839087E+03</rscale>
<asrwt>0</asrwt>
<pdfrwt beam="1">  1       21 0.10802893E+00 0.17856239E+03</pdfrwt>
<pdfrwt beam="2">  1       21 0.29180179E-01 0.17856239E+03</pdfrwt>
<totfact> 0.77552886E+03</totfact>
</mgrwt>
</event>
<event>
12    1  0.1074575E-001  0.2943039E+03  0.7546771E-02  0.1088124E+00
         21   -1    0    0  501  502  0.00000000000E+00  0.00000000000E+00  0.51377943406E+03  0.51377943406E+03  0.00000000000E+00 0. -1.
         21   -1    0    0  502  503 -0.00000000000E+00 -0.00000000000E+00 -0.28020172628E+03  0.28020172628E+03  0.00000000000E+00 0.  1.
         -6    2    1    2    0  503 -0.21502542948E+03  0.10182733718E+03 -0.13377285274E+03  0.32327998204E+03  0.17323402882E+03 0.  0.
        -24    2    3    3    0    0 -0.70192490858E+02  0.88153757024E+02 -0.22366054573E+02  0.13998483322E+03  0.79984013936E+02 0.  0.
          6    2    1    2  501    0  0.21502542948E+03 -0.10182733718E+03  0.36735056052E+03  0.47070117829E+03  0.17322939419E+03 0.  0.
         24    2    5    5    0    0  0.18959154922E+03 -0.13469668332E+03  0.27321819993E+03  0.36769502560E+03  0.80394620755E+02 0.  0.
          5    1    5    5  501    0  0.25433880255E+02  0.32869346147E+02  0.94132360588E+02  0.10300615268E+03  0.47000000000E+01 0. -1.
        -13    1    6    6    0    0  0.15477436604E+03 -0.70848038007E+02  0.16321575771E+03  0.23582606395E+03  0.00000000000E+00 0.  1.
         14    1    6    6    0    0  0.34817183178E+02 -0.63848645318E+02  0.11000244222E+03  0.13186896165E+03  0.00000000000E+00 0. -1.
         -5    1    3    3    0  503 -0.14483293862E+03  0.13673580153E+02 -0.11140679817E+03  0.18329514882E+03  0.47000000000E+01 0.  1.
         11    1    4    4    0    0 -0.72629356779E+02  0.27788184500E+02 -0.13333630666E+02  0.78898620841E+02  0.00000000000E+00 0. -1.
        -12    1    4    4    0    0  0.24368659205E+01  0.60365572524E+02 -0.90324239068E+01  0.61086212383E+02  0.00000000000E+00 0.  1.
<mgrwt>
<rscale>  2 0.29430319E+03</rscale>
<asrwt>0</asrwt>
<pdfrwt beam="1">  1       21 0.79042990E-01 0.29430387E+03</pdfrwt>
<pdfrwt beam="2">  1       21 0.43107958E-01 0.29430387E+03</pdfrwt>
<totfact> 0.68728542E+03</totfact>
</mgrwt>
</event>
<event>
12    1  0.1074575E-001  0.2263171E+03  0.7546771E-02  0.1129262E+00
         21   -1    0    0  503  502  0.00000000000E+00  0.00000000000E+00  0.61326239579E+03  0.61326239579E+03  0.00000000000E+00 0. -1.
         21   -1    0    0  501  503 -0.00000000000E+00 -0.00000000000E+00 -0.10755792637E+03  0.10755792637E+03  0.00000000000E+00 0.  1.
          6    2    1    2  501    0  0.14531814451E+02 -0.14545891048E+03  0.82455324086E+02  0.24086990519E+03  0.17277141687E+03 0.  0.
         24    2    3    3    0    0 -0.39970612540E+02 -0.85777173919E+02 -0.56057717369E+00  0.12491235223E+03  0.81531638400E+02 0.  0.
         -6    2    1    2    0  502 -0.14531814451E+02  0.14545891048E+03  0.42324914533E+03  0.47995041697E+03  0.17275154257E+03 0.  0.
        -24    2    5    5    0    0 -0.18625494066E+02  0.15137897216E+03  0.43355775223E+03  0.46652794628E+03  0.80084317425E+02 0.  0.
          5    1    3    3  501    0  0.54502426991E+02 -0.59681736557E+02  0.83015901260E+02  0.11595755296E+03  0.47000000000E+01 0. -1.
        -13    1    4    4    0    0 -0.16552861534E+02 -0.13029545468E+02 -0.35186350373E+02  0.41010310077E+02  0.00000000000E+00 0.  1.
         14    1    4    4    0    0 -0.23417751007E+02 -0.72747628451E+02  0.34625773200E+02  0.83902042151E+02  0.00000000000E+00 0. -1.
         -5    1    5    5    0  502  0.40936796154E+01 -0.59200616858E+01 -0.10308606903E+02  0.13422470691E+02  0.47000000000E+01 0.  1.
         13    1    6    6    0    0 -0.14748994262E+01  0.14749267814E+02  0.15586393969E+03  0.15656718662E+03  0.00000000000E+00 0. -1.
        -14    1    6    6    0    0 -0.17150594640E+02  0.13662970435E+03  0.27769381254E+03  0.30996075966E+03  0.00000000000E+00 0.  1.
<mgrwt>
<rscale>  2 0.22631331E+03</rscale>
<asrwt>0</asrwt>
<pdfrwt beam="1">  1       21 0.94348059E-01 0.22631710E+03</pdfrwt>
<pdfrwt beam="2">  1       21 0.16547374E-01 0.22631710E+03</pdfrwt>
<totfact> 0.30301773E+04</totfact>
</mgrwt>
</event>
<event>
12    1  0.1074575E-001  0.1740619E+03  0.7546771E-02  0.1173916E+00
         21   -1    0    0  501  502  0.00000000000E+00  0.00000000000E+00  0.13136404669E+03  0.13136404669E+03  0.00000000000E+00 0. -1.
         21   -1    0    0  502  503 -0.00000000000E+00 -0.00000000000E+00 -0.39996183447E+03  0.39996183447E+03  0.00000000000E+00 0. -1.
         -6    2    1    2    0  503 -0.48233671822E+01 -0.69876701829E+01 -0.30757902066E+03  0.35295241626E+03  0.17291171675E+03 0.  0.
        -24    2    3    3    0    0  0.10668119425E+02  0.50383829906E+02 -0.25886866609E+03  0.27597018570E+03  0.80586711214E+02 0.  0.
          6    2    1    2  501    0  0.48233671822E+01  0.69876701829E+01  0.38981232875E+02  0.17837346491E+03  0.17385472114E+03 0.  0.
         24    2    5    5    0    0 -0.34207127956E+02  0.62367861307E+02  0.17146080226E+02  0.10703477266E+03  0.78118991065E+02 0.  0.
          5    1    5    5  501    0  0.39030495138E+02 -0.55380191124E+02  0.21835152649E+02  0.71338692243E+02  0.47000000000E+01 0. -1.
        -13    1    6    6    0    0 -0.43839819239E+02  0.41059776695E+02 -0.19856670288E+02  0.63262329771E+02  0.00000000000E+00 0.  1.
         14    1    6    6    0    0  0.96326912827E+01  0.21308084613E+02  0.37002750514E+02  0.43772442893E+02  0.00000000000E+00 0. -1.
         -5    1    3    3    0  503 -0.15491486607E+02 -0.57371500089E+02 -0.48710354561E+02  0.76982230555E+02  0.47000000000E+01 0.  1.
         13    1    4    4    0    0  0.26917035858E+02  0.53495012414E+02 -0.10237075711E+03  0.11860023223E+03  0.00000000000E+00 0. -1.
        -14    1    4    4    0    0 -0.16248916434E+02 -0.31111825077E+01 -0.15649790898E+03  0.15736995348E+03  0.00000000000E+00 0.  1.
<mgrwt>
<rscale>  2 0.17382598E+03</rscale>
<asrwt>0</asrwt>
<pdfrwt beam="1">  1       21 0.20209854E-01 0.17406193E+03</pdfrwt>
<pdfrwt beam="2">  1       21 0.61532589E-01 0.17406193E+03</pdfrwt>
<totfact> 0.56041811E+04</totfact>
</mgrwt>
</event>
<event>
12    1  0.1074575E-001  0.1738795E+03  0.7546771E-02  0.1174202E+00
         21   -1    0    0  503  502  0.00000000000E+00  0.00000000000E+00  0.15484080580E+03  0.15484080580E+03  0.00000000000E+00 0. -1.
         21   -1    0    0  501  503 -0.00000000000E+00 -0.00000000000E+00 -0.19568081433E+03  0.19568081433E+03  0.00000000000E+00 0. -1.
          6    2    1    2  501    0 -0.13840938029E+02 -0.76191876684E-01 -0.37714011122E+02  0.17661401764E+03  0.17198426446E+03 0.  0.
         24    2    3    3    0    0  0.51929993138E+02 -0.29225023420E+02 -0.39205549090E+02  0.10450448670E+03  0.76375954852E+02 0.  0.
         -6    2    1    2    0  502  0.13840938029E+02  0.76191876684E-01 -0.31259974054E+01  0.17390760248E+03  0.17332773861E+03 0.  0.
        -24    2    5    5    0    0 -0.20948085009E+01 -0.64694211729E+02  0.17196107606E+02  0.10402032787E+03  0.79591414359E+02 0.  0.
          5    1    3    3  501    0 -0.65770931167E+02  0.29148831543E+02  0.14915379684E+01  0.72109530941E+02  0.47000000000E+01 0. -1.
        -13    1    4    4    0    0 -0.15969945151E+01 -0.28271322976E+01  0.20103731177E+02  0.20364259764E+02  0.00000000000E+00 0.  1.
         14    1    4    4    0    0  0.53526987653E+02 -0.26397891122E+02 -0.59309280267E+02  0.84140226935E+02  0.00000000000E+00 0. -1.
         -5    1    5    5    0  502  0.15935746530E+02  0.64770403606E+02 -0.20322105011E+02  0.69887274613E+02  0.47000000000E+01 0.  1.
         13    1    6    6    0    0  0.31907249334E+02 -0.60409215320E+02  0.11527779209E+02  0.69283732211E+02  0.00000000000E+00 0. -1.
        -14    1    6    6    0    0 -0.34002057835E+02 -0.42849964095E+01  0.56683283963E+01  0.34736595660E+02  0.00000000000E+00 0.  1.
<mgrwt>
<rscale>  2 0.17354374E+03</rscale>
<asrwt>0</asrwt>
<pdfrwt beam="1">  1       21 0.23821662E-01 0.17387951E+03</pdfrwt>
<pdfrwt beam="2">  1       21 0.30104741E-01 0.17387951E+03</pdfrwt>
<totfact> 0.17675253E+05</totfact>
</mgrwt>
</event>
<event>
12    1  0.1074575E-001  0.1787741E+03  0.7546771E-02  0.1169021E+00
         21   -1    0    0  501  502  0.00000000000E+00  0.00000000000E+00  0.86119367830E+02  0.86119367830E+02  0.00000000000E+00 0.  1.
         21   -1    0    0  502  503 -0.00000000000E+00 -0.00000000000E+00 -0.89669846024E+03  0.89669846024E+03  0.00000000000E+00 0.  1.
         -6    2    1    2    0  503 -0.44792278999E+02  0.55707911628E+01 -0.78163810338E+03  0.80182187030E+03  0.17298209463E+03 0.  0.
        -24    2    3    3    0    0 -0.56494215933E+02 -0.47483833203E+02 -0.33685368623E+03  0.35370693389E+03  0.78688489020E+02 0.  0.
          6    2    1    2  501    0  0.44792278999E+02 -0.55707911628E+01 -0.28940989033E+02  0.18099595777E+03  0.17287155322E+03 0.  0.
         24    2    5    5    0    0  0.51056628448E+02  0.67457612990E+02 -0.18279444503E+02  0.10677905661E+03  0.62532551361E+02 0.  0.
          5    1    5    5  501    0 -0.62643494486E+01 -0.73028404153E+02 -0.10661544530E+02  0.74216901167E+02  0.47000000000E+01 0. -1.
        -13    1    6    6    0    0  0.13200112733E+02  0.73334539237E+01 -0.31109273727E+02  0.34580477649E+02  0.00000000000E+00 0.  1.
         14    1    6    6    0    0  0.37856515715E+02  0.60124159066E+02  0.12829829225E+02  0.72198578957E+02  0.00000000000E+00 0. -1.
         -5    1    3    3    0  503  0.11701936933E+02  0.53054624366E+02 -0.44478441715E+03  0.44811493641E+03  0.47000000000E+01 0.  1.
         13    1    4    4    0    0 -0.63400809687E+01  0.77095889818E+01 -0.14192202050E+01  0.10082091794E+02  0.00000000000E+00 0. -1.
        -14    1    4    4    0    0 -0.50154134964E+02 -0.55193422185E+02 -0.33543446602E+03  0.34362484209E+03  0.00000000000E+00 0.  1.
<mgrwt>
<rscale>  2 0.17874738E+03</rscale>
<asrwt>0</asrwt>
<pdfrwt beam="1">  1       21 0.13249133E-01 0.17877412E+03</pdfrwt>
<pdfrwt beam="2">  1       21 0.13795361E+00 0.17877412E+03</pdfrwt>
<totfact> 0.18428837E+04</totfact>
</mgrwt>
</event>
<event>
12    1  0.1074575E-001  0.2026899E+03  0.7546771E-02  0.1147722E+00
         21   -1    0    0  503  502  0.00000000000E+00  0.00000000000E+00  0.43180718398E+03  0.43180718398E+03  0.00000000000E+00 0.  1.
         21   -1    0    0  501  503 -0.00000000000E+00 -0.00000000000E+00 -0.33323568205E+03  0.33323568205E+03  0.00000000000E+00 0. -1.
          6    2    1    2  501    0  0.67361384773E+02  0.79832375882E+02 -0.27444447635E+03  0.34051475512E+03  0.17239420947E+03 0.  0.
         24    2    3    3    0    0  0.10674076527E+02 -0.40588618687E+01 -0.19540450706E+03  0.21198227894E+03  0.81382768054E+02 0.  0.
         -6    2    1    2    0  502 -0.67361384773E+02 -0.79832375882E+02  0.37301597828E+03  0.42452811091E+03  0.17370213730E+03 0.  0.
        -24    2    5    5    0    0  0.31316057051E+02 -0.27529604836E+02  0.18094811850E+03  0.20230081703E+03  0.80279663746E+02 0.  0.
          5    1    3    3  501    0  0.56687308246E+02  0.83891237751E+02 -0.79039969283E+02  0.12853247618E+03  0.47000000000E+01 0. -1.
        -11    1    4    4    0    0 -0.54576439226E+00  0.35804172024E+02 -0.55262279744E+02  0.65849496245E+02  0.00000000000E+00 0.  1.
         12    1    4    4    0    0  0.11219840919E+02 -0.39863033893E+02 -0.14014222732E+03  0.14613278270E+03  0.00000000000E+00 0. -1.
         -5    1    5    5    0  502 -0.98677441824E+02 -0.52302771047E+02  0.19206785979E+03  0.22222729388E+03  0.47000000000E+01 0.  1.
         11    1    6    6    0    0 -0.27230284374E+02 -0.97054343235E+01  0.49948697719E+02  0.57710971629E+02  0.00000000000E+00 0. -1.
        -12    1    6    6    0    0  0.58546341425E+02 -0.17824170512E+02  0.13099942078E+03  0.14458984540E+03  0.00000000000E+00 0.  1.
<mgrwt>
<rscale>  2 0.20240938E+03</rscale>
<asrwt>0</asrwt>
<pdfrwt beam="1">  1       21 0.66431874E-01 0.20268990E+03</pdfrwt>
<pdfrwt beam="2">  1       21 0.51267028E-01 0.20268990E+03</pdfrwt>
<totfact> 0.74614343E+03</totfact>
</mgrwt>
</event>
<event>
12    1  0.1074575E-001  0.1960866E+03  0.7546771E-02  0.1153097E+00
         21   -1    0    0  501  502  0.00000000000E+00  0.00000000000E+00  0.22470055830E+03  0.22470055830E+03  0.00000000000E+00 0.  1.
         21   -1    0    0  502  503 -0.00000000000E+00 -0.00000000000E+00 -0.34657651585E+03  0.34657651585E+03  0.00000000000E+00 0.  1.
         -6    2    1    2    0  503 -0.71861966364E+02 -0.54004814314E+02 -0.26420446808E+03  0.32898103554E+03  0.17419488688E+03 0.  0.
        -24    2    3    3    0    0  0.64983010356E+01 -0.32365473374E+02 -0.22012604795E+03  0.23638735485E+03  0.79584877720E+02 0.  0.
          6    2    1    2  501    0  0.71861966364E+02  0.54004814314E+02  0.14232851053E+03  0.24229603861E+03  0.17426790650E+03 0.  0.
         24    2    5    5    0    0  0.10054979989E+02  0.82671841690E+02  0.54507131171E+02  0.13104592986E+03  0.85242432824E+02 0.  0.
          5    1    5    5  501    0  0.61806986375E+02 -0.28667027376E+02  0.87821379359E+02  0.11125010875E+03  0.47000000000E+01 0. -1.
        -11    1    6    6    0    0 -0.33706302549E+01  0.41064566101E+02  0.72801950822E+02  0.83652757162E+02  0.00000000000E+00 0.  1.
         12    1    6    6    0    0  0.13425610244E+02  0.41607275590E+02 -0.18294819652E+02  0.47393172699E+02  0.00000000000E+00 0. -1.
         -5    1    3    3    0  503 -0.78360267399E+02 -0.21639340940E+02 -0.44078420125E+02  0.92593680691E+02  0.47000000000E+01 0.  1.
         11    1    4    4    0    0  0.27999416345E+02  0.10215281296E+02 -0.38997265372E+02  0.49082644531E+02  0.00000000000E+00 0. -1.
        -12    1    4    4    0    0 -0.21501115310E+02 -0.42580754670E+02 -0.18112878258E+03  0.18730471032E+03  0.00000000000E+00 0.  1.
<mgrwt>
<rscale>  2 0.19607040E+03</rscale>
<asrwt>0</asrwt>
<pdfrwt beam="1">  1       21 0.34569317E-01 0.19608663E+03</pdfrwt>
<pdfrwt beam="2">  1       21 0.53319464E-01 0.19608663E+03</pdfrwt>
<totfact> 0.26807563E+04</totfact>
</mgrwt>
</event>
<event>
12    1  0.1074575E-001  0.2070536E+03  0.7546771E-02  0.1144203E+00
         21   -1    0    0  501  502  0.00000000000E+00  0.00000000000E+00  0.43277577009E+03  0.43277577009E+03  0.00000000000E+00 0. -1.
         21   -1    0    0  502  503 -0.00000000000E+00 -0.00000000000E+00 -0.26681749588E+03  0.26681749588E+03  0.00000000000E+00 0. -1.
         -6    2    1    2    0  503  0.58950225178E+02 -0.93822373821E+02 -0.19503642547E+03  0.28343420395E+03  0.17325695897E+03 0.  0.
        -24    2    3    3    0    0  0.13148489529E+02 -0.11347134723E+03 -0.18582258770E+03  0.23253365434E+03  0.80580623480E+02 0.  0.
          6    2    1    2  501    0 -0.58950225178E+02  0.93822373821E+02  0.36099469967E+03  0.41615906202E+03  0.17490976196E+03 0.  0.
         24    2    5    5    0    0 -0.55982569255E+02  0.82378241921E+02  0.37570682039E+03  0.39670882725E+03  0.79385489435E+02 0.  0.
          5    1    5    5  501    0 -0.29676559234E+01  0.11444131900E+02 -0.14712120712E+02  0.19450234766E+02  0.47000000000E+01 0. -1.
        -13    1    6    6    0    0 -0.48292679752E+02  0.43423739987E+02  0.10762009004E+03  0.12569760496E+03  0.00000000000E+00 0.  1.
         14    1    6    6    0    0 -0.76898895024E+01  0.38954501933E+02  0.26808673034E+03  0.27101122229E+03  0.00000000000E+00 0. -1.
         -5    1    3    3    0  503  0.45801735649E+02  0.19648973412E+02 -0.92138377694E+01  0.50900549614E+02  0.47000000000E+01 0.  1.
         13    1    4    4    0    0  0.21776515669E+02 -0.60000686095E+02 -0.36135634116E+02  0.73349049207E+02  0.00000000000E+00 0. -1.
        -14    1    4    4    0    0 -0.86280261398E+01 -0.53470661137E+02 -0.14968695358E+03  0.15918460513E+03  0.00000000000E+00 0.  1.
<mgrwt>
<rscale>  2 0.20670413E+03</rscale>
<asrwt>0</asrwt>
<pdfrwt beam="1">  1       21 0.66580888E-01 0.20705360E+03</pdfrwt>
<pdfrwt beam="2">  1       21 0.41048845E-01 0.20705360E+03</pdfrwt>
<totfact> 0.11709206E+04</totfact>
</mgrwt>
</event>
<event>
12    1  0.1074575E-001  0.1798843E+03  0.7546771E-02  0.1168675E+00
         21   -1    0    0  503  502  0.00000000000E+00  0.00000000000E+00  0.39850346870E+03  0.39850346870E+03  0.00000000000E+00 0.  1.
         21   -1    0    0  501  503 -0.00000000000E+00 -0.00000000000E+00 -0.29383571304E+03  0.29383571304E+03  0.00000000000E+00 0.  1.
          6    2    1    2  501    0 -0.47428455041E+01  0.48813676962E+02 -0.24298472639E+03  0.30232422722E+03  0.17306961450E+03 0.  0.
         24    2    3    3    0    0 -0.20277133512E+02  0.89005903607E+02 -0.22453680124E+03  0.25521642395E+03  0.79908916404E+02 0.  0.
         -6    2    1    2    0  502  0.47428455041E+01 -0.48813676962E+02  0.34765248205E+03  0.39001495452E+03  0.16983564653E+03 0.  0.
        -24    2    5    5    0    0 -0.23229055398E+02 -0.93021049440E+02  0.25164765409E+03  0.28058124850E+03  0.78783186958E+02 0.  0.
          5    1    3    3  501    0  0.15534288008E+02 -0.40192226645E+02 -0.18447925144E+02  0.47107803268E+02  0.47000000000E+01 0. -1.
        -11    1    4    4    0    0 -0.50961179265E+02  0.63265611199E+02 -0.15311839052E+03  0.17333441917E+03  0.00000000000E+00 0.  1.
         12    1    4    4    0    0  0.30684045753E+02  0.25740292409E+02 -0.71418410724E+02  0.81882004784E+02  0.00000000000E+00 0. -1.
         -5    1    5    5    0  502  0.27971900902E+02  0.44207372478E+02  0.96004827956E+02  0.10943370602E+03  0.47000000000E+01 0.  1.
         11    1    6    6    0    0 -0.47649338964E+02 -0.64097923671E+02  0.12448237952E+03  0.14790154203E+03  0.00000000000E+00 0. -1.
        -12    1    6    6    0    0  0.24420283566E+02 -0.28923125769E+02  0.12716527457E+03  0.13267970648E+03  0.00000000000E+00 0.  1.
<mgrwt>
<rscale>  2 0.17910190E+03</rscale>
<asrwt>0</asrwt>
<pdfrwt beam="1">  1       21 0.61308226E-01 0.17988430E+03</pdfrwt>
<pdfrwt beam="2">  1       21 0.45205494E-01 0.17988430E+03</pdfrwt>
<totfact> 0.11712961E+04</totfact>
</mgrwt>
</event>
<event>
12    1  0.1074575E-001  0.1927900E+03  0.7546771E-02  0.1156705E+00
         21   -1    0    0  503  502  0.00000000000E+00  0.00000000000E+00  0.10954932018E+03  0.10954932018E+03  0.00000000000E+00 0.  1.
         21   -1    0    0  501  503 -0.00000000000E+00 -0.00000000000E+00 -0.54033399424E+03  0.54033399424E+03  0.00000000000E+00 0.  1.
          6    2    1    2  501    0  0.27931857386E+00  0.77192105792E+02 -0.41757284420E+03  0.45992939875E+03  0.17666146270E+03 0.  0.
         24    2    3    3    0    0 -0.75174597406E+01  0.12137854547E+03 -0.29123706676E+03  0.32578004220E+03  0.80773407342E+02 0.  0.
         -6    2    1    2    0  502 -0.27931857386E+00 -0.77192105792E+02 -0.13211829861E+02  0.18995391567E+03  0.17305848264E+03 0.  0.
        -24    2    5    5    0    0 -0.30234509664E+02 -0.10973276098E+03  0.10434705124E+02  0.13958074493E+03  0.80115522075E+02 0.  0.
          5    1    3    3  501    0  0.77967783144E+01 -0.44186439678E+02 -0.12633577744E+03  0.13414935656E+03  0.47000000000E+01 0. -1.
        -13    1    4    4    0    0 -0.35411590276E+02  0.28076803187E+02 -0.12750493538E+03  0.13527673913E+03  0.00000000000E+00 0.  1.
         14    1    4    4    0    0  0.27894130535E+02  0.93301742283E+02 -0.16373213138E+03  0.19050330307E+03  0.00000000000E+00 0. -1.
         -5    1    5    5    0  502  0.29955191090E+02  0.32540655189E+02 -0.23646534985E+02  0.50373170738E+02  0.47000000000E+01 0.  1.
         11    1    6    6    0    0 -0.24453860667E+02  0.91772817600E+00  0.14969551306E+02  0.28686599534E+02  0.00000000000E+00 0. -1.
        -12    1    6    6    0    0 -0.57806489977E+01 -0.11065048916E+03 -0.45348461815E+01  0.11089414540E+03  0.00000000000E+00 0.  1.
<mgrwt>
<rscale>  2 0.19196061E+03</rscale>
<asrwt>0</asrwt>
<pdfrwt beam="1">  1       21 0.16853741E-01 0.19278997E+03</pdfrwt>
<pdfrwt beam="2">  1       21 0.83128309E-01 0.19278997E+03</pdfrwt>
<totfact> 0.39960684E+04</totfact>
</mgrwt>
</event>
<event>
12    1  0.1074575E-001  0.1859655E+03  0.7546771E-02  0.1162417E+00
         21   -1    0    0  501  502  0.00000000000E+00  0.00000000000E+00  0.16171379597E+03  0.16171379597E+03  0.00000000000E+00 0. -1.
         21   -1    0    0  502  503 -0.00000000000E+00 -0.00000000000E+00 -0.21763558962E+03  0.21763558962E+03  0.00000000000E+00 0.  1.
         -6    2    1    2    0  503  0.55751174713E+02  0.30640658581E+02 -0.56894038730E+02  0.19338138736E+03  0.17352920761E+03 0.  0.
        -24    2    3    3    0    0  0.16173474353E+02 -0.49229656833E+02 -0.26783295318E+02  0.99177308257E+02  0.80210056605E+02 0.  0.
          6    2    1    2  501    0 -0.55751174713E+02 -0.30640658581E+02  0.97224508163E+00  0.18596799823E+03  0.17474583733E+03 0.  0.
         24    2    5    5    0    0 -0.23198425058E+02  0.37448381890E+02 -0.39937152386E+02  0.99994352598E+02  0.80394938768E+02 0.  0.
          5    1    5    5  501    0 -0.32552749655E+02 -0.68089040471E+02  0.40909397468E+02  0.85973645634E+02  0.47000000000E+01 0. -1.
        -13    1    6    6    0    0 -0.35895210834E+02  0.48845164604E+01  0.11321145440E+02  0.37953827159E+02  0.00000000000E+00 0.  1.
         14    1    6    6    0    0  0.12696785776E+02  0.32563865430E+02 -0.51258297826E+02  0.62040525440E+02  0.00000000000E+00 0. -1.
         -5    1    3    3    0  503  0.39577700360E+02  0.79870315415E+02 -0.30110743412E+02  0.94204079100E+02  0.47000000000E+01 0.  1.
         13    1    4    4    0    0 -0.29685819780E+01  0.13839966099E+02  0.15405329291E+02  0.20920834380E+02  0.00000000000E+00 0. -1.
        -14    1    4    4    0    0  0.19142056331E+02 -0.63069622932E+02 -0.42188624609E+02  0.78256473878E+02  0.00000000000E+00 0.  1.
<mgrwt>
<rscale>  2 0.18567911E+03</rscale>
<asrwt>0</asrwt>
<pdfrwt beam="1">  1       21 0.24879046E-01 0.18596546E+03</pdfrwt>
<pdfrwt beam="2">  1       21 0.33482398E-01 0.18596546E+03</pdfrwt>
<totfact> 0.13163448E+05</totfact>
</mgrwt>
</event>
<event>
12    1  0.1074575E-001  0.1888938E+03  0.7546771E-02  0.1159552E+00
         21   -1    0    0  501  502  0.00000000000E+00  0.00000000000E+00  0.69568629476E+02  0.69568629476E+02  0.00000000000E+00 0. -1.
         21   -1    0    0  502  503 -0.00000000000E+00 -0.00000000000E+00 -0.81947012167E+03  0.81947012167E+03  0.00000000000E+00 0.  1.
         -6    2    1    2    0  503  0.68752718222E+02  0.30989952940E+02 -0.64755627750E+03  0.67454429068E+03  0.17318647212E+03 0.  0.
        -24    2    3    3    0    0 -0.14876296874E+02 -0.25476224291E+02 -0.35317440157E+03  0.36331283307E+03  0.79960706192E+02 0.  0.
          6    2    1    2  501    0 -0.68752718222E+02 -0.30989952940E+02 -0.10234521470E+03  0.21449446046E+03  0.17275999870E+03 0.  0.
         24    2    5    5    0    0 -0.55536521063E+02  0.45729775066E+02 -0.41371713520E+02  0.11549727677E+03  0.80327359987E+02 0.  0.
          5    1    5    5  501    0 -0.13216197159E+02 -0.76719728006E+02 -0.60973501182E+02  0.98997183693E+02  0.47000000000E+01 0. -1.
        -11    1    6    6    0    0  0.17199200455E+02  0.16083152749E+02  0.52935291650E+01  0.24135073019E+02  0.00000000000E+00 0.  1.
         12    1    6    6    0    0 -0.72735721518E+02  0.29646622318E+02 -0.46665242685E+02  0.91362203752E+02  0.00000000000E+00 0. -1.
         -5    1    3    3    0  503  0.83629015096E+02  0.56466177231E+02 -0.29438187592E+03  0.31123145762E+03  0.47000000000E+01 0.  1.
         13    1    4    4    0    0 -0.21901091114E+02  0.22851692532E+02 -0.84446651533E+02  0.90183671463E+02  0.00000000000E+00 0. -1.
        -14    1    4    4    0    0  0.70247942401E+01 -0.48327916823E+02 -0.26872775004E+03  0.27312916161E+03  0.00000000000E+00 0.  1.
<mgrwt>
<rscale>  2 0.18879599E+03</rscale>
<asrwt>0</asrwt>
<pdfrwt beam="1">  1       21 0.10702867E-01 0.18889380E+03</pdfrwt>
<pdfrwt beam="2">  1       21 0.12607232E+00 0.18889380E+03</pdfrwt>
<totfact> 0.33667799E+04</totfact>
</mgrwt>
</event>
<event>
12    1  0.1074575E-001  0.2172544E+03  0.7546771E-02  0.1136094E+00
         21   -1    0    0  503  502  0.00000000000E+00  0.00000000000E+00  0.29058014102E+02  0.29058014102E+02  0.00000000000E+00 0. -1.
         21   -1    0    0  501  503 -0.00000000000E+00 -0.00000000000E+00 -0.16350851037E+04  0.16350851037E+04  0.00000000000E+00 0. -1.
          6    2    1    2  501    0 -0.42260571842E+02  0.12311759945E+03 -0.72070664708E+03  0.75274001220E+03  0.17394124181E+03 0.  0.
         24    2    3    3    0    0 -0.31117931065E+02  0.17291656129E+02 -0.17892835039E+03  0.20059048401E+03  0.83389811707E+02 0.  0.
         -6    2    1    2    0  502  0.42260571842E+02 -0.12311759945E+03 -0.88532044251E+03  0.91140310559E+03  0.17297235538E+03 0.  0.
        -24    2    5    5    0    0  0.47478447641E+01 -0.12484666440E+03 -0.83768720607E+03  0.85056553848E+03  0.78311227717E+02 0.  0.
          5    1    3    3  501    0 -0.11142640777E+02  0.10582594332E+03 -0.54177829669E+03  0.55214952819E+03  0.47000000000E+01 0. -1.
        -13    1    4    4    0    0 -0.25150551698E+02 -0.20361836666E+02 -0.14800800131E+03  0.15150420157E+03  0.00000000000E+00 0.  1.
         14    1    4    4    0    0 -0.59673793673E+01  0.37653492795E+02 -0.30920349086E+02  0.49086282440E+02  0.00000000000E+00 0. -1.
         -5    1    5    5    0  502  0.37512727078E+02  0.17290649566E+01 -0.47633236437E+02  0.60837567110E+02  0.47000000000E+01 0.  1.
         11    1    6    6    0    0 -0.20685121896E+02 -0.85625183717E+02 -0.36100503342E+03  0.37159679830E+03  0.00000000000E+00 0. -1.
        -12    1    6    6    0    0  0.25432966660E+02 -0.39221480688E+02 -0.47668217265E+03  0.47896874018E+03  0.00000000000E+00 0.  1.
<mgrwt>
<rscale>  2 0.21706036E+03</rscale>
<asrwt>0</asrwt>
<pdfrwt beam="1">  1       21 0.44704627E-02 0.21725436E+03</pdfrwt>
<pdfrwt beam="2">  1       21 0.25155161E+00 0.21725436E+03</pdfrwt>
<totfact> 0.20730686E+04</totfact>
</mgrwt>
</event>
<event>
12    1  0.1074575E-001  0.1939857E+03  0.7546771E-02  0.1155243E+00
         21   -1    0    0  501  502  0.00000000000E+00  0.00000000000E+00  0.19007653408E+03  0.19007653408E+03  0.00000000000E+00 0. -1.
         21   -1    0    0  502  503 -0.00000000000E+00 -0.00000000000E+00 -0.73207505055E+03  0.73207505055E+03  0.00000000000E+00 0.  1.
         -6    2    1    2    0  503  0.74485978589E+02  0.43622112572E+02 -0.66510402317E+03  0.69240082990E+03  0.17205957659E+03 0.  0.
        -24    2    3    3    0    0  0.87922257898E+02 -0.26154656665E+01 -0.29892475263E+03  0.32303949541E+03  0.85213518675E+02 0.  0.
          6    2    1    2  501    0 -0.74485978589E+02 -0.43622112572E+02  0.12310550670E+03  0.22975075474E+03  0.17372217420E+03 0.  0.
         24    2    5    5    0    0  0.63307775525E+01 -0.64192412454E+02  0.26604215747E+02  0.10212209625E+03  0.74568047356E+02 0.  0.
          5    1    5    5  501    0 -0.80816756142E+02  0.20570299882E+02  0.96501290953E+02  0.12762865848E+03  0.47000000000E+01 0. -1.
        -13    1    6    6    0    0  0.11781262576E+02 -0.52181155941E+02  0.51304692346E+02  0.74120460333E+02  0.00000000000E+00 0.  1.
         14    1    6    6    0    0 -0.54504850236E+01 -0.12011256512E+02 -0.24700476598E+02  0.28001635920E+02  0.00000000000E+00 0. -1.
         -5    1    3    3    0  503 -0.13436279309E+02  0.46237578238E+02 -0.36617927054E+03  0.36936133449E+03  0.47000000000E+01 0.  1.
         13    1    4    4    0    0  0.60382478529E+02  0.29036632971E+02 -0.10446583005E+03  0.12410592015E+03  0.00000000000E+00 0. -1.
        -14    1    4    4    0    0  0.27539779369E+02 -0.31652098637E+02 -0.19445892257E+03  0.19893357526E+03  0.00000000000E+00 0.  1.
<mgrwt>
<rscale>  2 0.19361273E+03</rscale>
<asrwt>0</asrwt>
<pdfrwt beam="1">  1       21 0.29242544E-01 0.19398568E+03</pdfrwt>
<pdfrwt beam="2">  1       21 0.11262693E+00 0.19398568E+03</pdfrwt>
<totfact> 0.69012197E+03</totfact>
</mgrwt>
</event>
<event>
12    1  0.1074575E-001  0.1733690E+03  0.7546771E-02  0.1174904E+00
         21   -1    0    0  503  502  0.00000000000E+00  0.00000000000E+00  0.39623725299E+02  0.39623725299E+02  0.00000000000E+00 0.  1.
         21   -1    0    0  501  503 -0.00000000000E+00 -0.00000000000E+00 -0.77854754338E+03  0.77854754338E+03  0.00000000000E+00 0.  1.
          6    2    1    2  501    0 -0.17789907489E+01 -0.14822314612E+02 -0.44620993757E+03  0.47796806180E+03  0.17066720217E+03 0.  0.
         24    2    3    3    0    0 -0.10609937162E+02 -0.38934679893E+02 -0.44147470789E+03  0.45143686932E+03  0.85245816397E+02 0.  0.
         -6    2    1    2    0  502  0.17789907489E+01  0.14822314612E+02 -0.29271388051E+03  0.34020320688E+03  0.17272504250E+03 0.  0.
        -24    2    5    5    0    0  0.44583323081E+02 -0.16352639783E+01 -0.78276283622E+02  0.12086639802E+03  0.80567752901E+02 0.  0.
          5    1    3    3  501    0  0.88309464129E+01  0.24112365281E+02 -0.47352296753E+01  0.26531192474E+02  0.47000000000E+01 0. -1.
        -13    1    4    4    0    0  0.21995982293E+02  0.16570224005E+02 -0.90122142987E+02  0.94235854202E+02  0.00000000000E+00 0.  1.
         14    1    4    4    0    0 -0.32605919454E+02 -0.55504903898E+02 -0.35135256490E+03  0.35720101512E+03  0.00000000000E+00 0. -1.
         -5    1    5    5    0  502 -0.42804332332E+02  0.16457578590E+02 -0.21443759689E+03  0.21933680886E+03  0.47000000000E+01 0.  1.
         11    1    6    6    0    0  0.33557479287E+02 -0.20089605257E+02  0.59711421224E+00  0.39115894479E+02  0.00000000000E+00 0. -1.
        -12    1    6    6    0    0  0.11025843794E+02  0.18454341279E+02 -0.78873397834E+02  0.81750503542E+02  0.00000000000E+00 0.  1.
<mgrwt>
<rscale>  2 0.17285417E+03</rscale>
<asrwt>0</asrwt>
<pdfrwt beam="1">  1       21 0.60959577E-02 0.17336899E+03</pdfrwt>
<pdfrwt beam="2">  1       21 0.11977655E+00 0.17336899E+03</pdfrwt>
<totfact> 0.10266603E+05</totfact>
</mgrwt>
</event>
<event>
12    1  0.1074575E-001  0.1808806E+03  0.7546771E-02  0.1167517E+00
         21   -1    0    0  501  502  0.00000000000E+00  0.00000000000E+00  0.30578475354E+03  0.30578475354E+03  0.00000000000E+00 0. -1.
         21   -1    0    0  502  503 -0.00000000000E+00 -0.00000000000E+00 -0.10569319121E+03  0.10569319121E+03  0.00000000000E+00 0. -1.
         -6    2    1    2    0  503  0.39948613592E+01  0.46298823255E+02  0.95393225001E+02  0.20449370145E+03  0.17480922917E+03 0.  0.
        -24    2    3    3    0    0  0.21154072663E+02  0.26767583138E+02 -0.21988887340E+02  0.84175131931E+02  0.73742412300E+02 0.  0.
          6    2    1    2  501    0 -0.39948613592E+01 -0.46298823255E+02  0.10469833733E+03  0.20698424331E+03  0.17239836190E+03 0.  0.
         24    2    5    5    0    0  0.29065965773E+02 -0.66756061518E+02  0.16154883799E+02  0.11016714745E+03  0.81084018098E+02 0.  0.
          5    1    5    5  501    0 -0.33060827132E+02  0.20457238263E+02  0.88543453529E+02  0.96817095860E+02  0.47000000000E+01 0. -1.
        -11    1    6    6    0    0 -0.47322827616E+01  0.17163012509E+02  0.73821539467E+01  0.19273289689E+02  0.00000000000E+00 0.  1.
         12    1    6    6    0    0  0.33798248534E+02 -0.83919074028E+02  0.87727298527E+01  0.90893857761E+02  0.00000000000E+00 0. -1.
         -5    1    3    3    0  503 -0.17159211303E+02  0.19531240117E+02  0.11738211234E+03  0.12031856952E+03  0.47000000000E+01 0.  1.
         13    1    4    4    0    0  0.39502675543E+02  0.76043257613E+01  0.11130480213E+02  0.41739366731E+02  0.00000000000E+00 0. -1.
        -14    1    4    4    0    0 -0.18348602881E+02  0.19163257377E+02 -0.33119367553E+02  0.42435765200E+02  0.00000000000E+00 0.  1.
<mgrwt>
<rscale>  2 0.18029559E+03</rscale>
<asrwt>0</asrwt>
<pdfrwt beam="1">  1       21 0.47043808E-01 0.18088064E+03</pdfrwt>
<pdfrwt beam="2">  1       21 0.16260491E-01 0.18088064E+03</pdfrwt>
<totfact> 0.14694955E+05</totfact>
</mgrwt>
</event>
<event>
12    1  0.1074575E-001  0.2110420E+03  0.7546771E-02  0.1142376E+00
         21   -1    0    0  503  502  0.00000000000E+00  0.00000000000E+00  0.10956992846E+04  0.10956992846E+04  0.00000000000E+00 0.  1.
         21   -1    0    0  501  503 -0.00000000000E+00 -0.00000000000E+00 -0.44734094259E+02  0.44734094259E+02  0.00000000000E+00 0.  1.
          6    2    1    2  501    0 -0.10808907444E+03 -0.17495838260E+01  0.33214584279E+03  0.39352201269E+03  0.18125232283E+03 0.  0.
         24    2    3    3    0    0 -0.62632661146E+02 -0.64176423381E+02  0.12478921045E+03  0.17220265343E+03  0.77717071767E+02 0.  0.
         -6    2    1    2    0  502  0.10808907444E+03  0.17495838260E+01  0.71881934752E+03  0.74691136614E+03  0.17172368923E+03 0.  0.
        -24    2    5    5    0    0  0.35573804318E+02 -0.60720455715E+02  0.38718668091E+03  0.40171101011E+03  0.80658170527E+02 0.  0.
          5    1    3    3  501    0 -0.45456413291E+02  0.62426839555E+02  0.20735663235E+03  0.22131935926E+03  0.47000000000E+01 0. -1.
        -11    1    4    4    0    0 -0.62149118382E+02 -0.41419470324E+02  0.12899396794E+03  0.14905545680E+03  0.00000000000E+00 0.  1.
         12    1    4    4    0    0 -0.48354276380E+00 -0.22756953058E+02 -0.42047574944E+01  0.23147196626E+02  0.00000000000E+00 0. -1.
         -5    1    5    5    0  502  0.72515270119E+02  0.62470039541E+02  0.33163266660E+03  0.34520035603E+03  0.47000000000E+01 0.  1.
         11    1    6    6    0    0  0.53331300187E+02 -0.50776688075E+02  0.36157685152E+03  0.36899907749E+03  0.00000000000E+00 0. -1.
        -12    1    6    6    0    0 -0.17757495869E+02 -0.99437676399E+01  0.25609829388E+02  0.32711932620E+02  0.00000000000E+00 0.  1.
<mgrwt>
<rscale>  2 0.20898074E+03</rscale>
<asrwt>0</asrwt>
<pdfrwt beam="1">  1       21 0.16856910E+00 0.21104197E+03</pdfrwt>
<pdfrwt beam="2">  1       21 0.68821692E-02 0.21104197E+03</pdfrwt>
<totfact> 0.33624140E+04</totfact>
</mgrwt>
</event>
<event>
12    1  0.1074575E-001  0.2130518E+03  0.7546771E-02  0.1139773E+00
         21   -1    0    0  501  502  0.00000000000E+00  0.00000000000E+00  0.82905149324E+02  0.82905149324E+02  0.00000000000E+00 0. -1.
         21   -1    0    0  502  503 -0.00000000000E+00 -0.00000000000E+00 -0.58344053573E+03  0.58344053573E+03  0.00000000000E+00 0.  1.
         -6    2    1    2    0  503 -0.28084929465E+02  0.12201157419E+03 -0.34322595167E+03  0.40397415476E+03  0.17238177490E+03 0.  0.
        -24    2    3    3    0    0 -0.55926623154E+01 -0.25594128624E+01 -0.16038950368E+03  0.18154418914E+03  0.84827302512E+02 0.  0.
          6    2    1    2  501    0  0.28084929465E+02 -0.12201157419E+03 -0.15730943474E+03  0.26237153029E+03  0.16857334946E+03 0.  0.
         24    2    5    5    0    0 -0.40017220222E+02 -0.87397377585E+02 -0.60845756053E+02  0.13923186688E+03  0.80272206912E+02 0.  0.
          5    1    5    5  501    0  0.68102149687E+02 -0.34614196609E+02 -0.96463678691E+02  0.12313966341E+03  0.47000000000E+01 0. -1.
        -13    1    6    6    0    0 -0.96605985547E+01  0.14573275748E+02 -0.18648536093E+01  0.17583663141E+02  0.00000000000E+00 0.  1.
         14    1    6    6    0    0 -0.30356621667E+02 -0.10197065333E+03 -0.58980902444E+02  0.12164820374E+03  0.00000000000E+00 0. -1.
         -5    1    3    3    0  503 -0.22492267150E+02  0.12457098706E+03 -0.18283644798E+03  0.22242996563E+03  0.47000000000E+01 0.  1.
         11    1    4    4    0    0  0.72059163507E+01  0.14438290381E+02  0.33059014812E+01  0.16471746847E+02  0.00000000000E+00 0. -1.
        -12    1    4    4    0    0 -0.12798578666E+02 -0.16997703244E+02 -0.16369540516E+03  0.16507244229E+03  0.00000000000E+00 0.  1.
<mgrwt>
<rscale>  2 0.21228023E+03</rscale>
<asrwt>0</asrwt>
<pdfrwt beam="1">  1       21 0.12754638E-01 0.21305179E+03</pdfrwt>
<pdfrwt beam="2">  1       21 0.89760082E-01 0.21305179E+03</pdfrwt>
<totfact> 0.55057035E+04</totfact>
</mgrwt>
</event>
<event>
12    1  0.1074575E-001  0.1825406E+03  0.7546771E-02  0.1165654E+00
         21   -1    0    0  503  502  0.00000000000E+00  0.00000000000E+00  0.64219030416E+03  0.64219030416E+03  0.00000000000E+00 0.  1.
         21   -1    0    0  501  503 -0.00000000000E+00 -0.00000000000E+00 -0.96518653515E+02  0.96518653515E+02  0.00000000000E+00 0.  1.
          6    2    1    2  501    0  0.25593248644E+02  0.48531001585E+02  0.20226009004E+02  0.18245882484E+03  0.17283477321E+03 0.  0.
         24    2    3    3    0    0  0.49576885562E+02  0.82705392282E+02  0.49640767316E+02  0.13117118670E+03  0.73780925363E+02 0.  0.
         -6    2    1    2    0  502 -0.25593248644E+02 -0.48531001585E+02  0.52544564164E+03  0.55625013283E+03  0.17410001569E+03 0.  0.
        -24    2    5    5    0    0 -0.70389209688E+02  0.11507482945E+02  0.31377895095E+03  0.33167013440E+03  0.80379008358E+02 0.  0.
          5    1    3    3  501    0 -0.23983636918E+02 -0.34174390697E+02 -0.29414758312E+02  0.51287638139E+02  0.47000000000E+01 0. -1.
        -13    1    4    4    0    0 -0.26102974673E+01  0.66291592408E+02  0.22134959601E+02  0.69938153489E+02  0.00000000000E+00 0.  1.
         14    1    4    4    0    0  0.52187183029E+02  0.16413799874E+02  0.27505807715E+02  0.61233033216E+02  0.00000000000E+00 0. -1.
         -5    1    5    5    0  502  0.44795961044E+02 -0.60038484530E+02  0.21166669069E+03  0.22457999844E+03  0.47000000000E+01 0.  1.
         11    1    6    6    0    0 -0.25558653933E+02  0.44314309424E+02  0.17008346557E+03  0.17761021387E+03  0.00000000000E+00 0. -1.
        -12    1    6    6    0    0 -0.44830555755E+02 -0.32806826479E+02  0.14369548538E+03  0.15405992052E+03  0.00000000000E+00 0.  1.
<mgrwt>
<rscale>  2 0.18223831E+03</rscale>
<asrwt>0</asrwt>
<pdfrwt beam="1">  1       21 0.98798506E-01 0.18254065E+03</pdfrwt>
<pdfrwt beam="2">  1       21 0.14849024E-01 0.18254065E+03</pdfrwt>
<totfact> 0.33941933E+04</totfact>
</mgrwt>
</event>
<event>
12    1  0.1074575E-001  0.1840009E+03  0.7546771E-02  0.1164187E+00
         21   -1    0    0  501  502  0.00000000000E+00  0.00000000000E+00  0.11648461912E+03  0.11648461912E+03  0.00000000000E+00 0. -1.
         21   -1    0    0  502  503 -0.00000000000E+00 -0.00000000000E+00 -0.33191372384E+03  0.33191372384E+03  0.00000000000E+00 0. -1.
         -6    2    1    2    0  503 -0.71294170738E+01 -0.60971205267E+02 -0.27166482668E+02  0.18515106208E+03  0.17255312675E+03 0.  0.
        -24    2    3    3    0    0 -0.28758984471E+01 -0.10532664224E+03 -0.53018219787E+00  0.13302544734E+03  0.81200469140E+02 0.  0.
          6    2    1    2  501    0  0.71294170738E+01  0.60971205267E+02 -0.18826262205E+03  0.26324728087E+03  0.17345892760E+03 0.  0.
         24    2    5    5    0    0 -0.38601529563E+01  0.10098443529E+03 -0.92495623056E+02  0.15877126772E+03  0.80250347152E+02 0.  0.
          5    1    5    5  501    0  0.10989570030E+02 -0.40013230026E+02 -0.95766998995E+02  0.10447601315E+03  0.47000000000E+01 0. -1.
        -11    1    6    6    0    0 -0.40051437211E+02  0.69693992208E+02 -0.49184272175E+02  0.94236207489E+02  0.00000000000E+00 0.  1.
         12    1    6    6    0    0  0.36191284255E+02  0.31290443085E+02 -0.43311350881E+02  0.64535060236E+02  0.00000000000E+00 0. -1.
         -5    1    3    3    0  503 -0.42535186267E+01  0.44355436974E+02 -0.26636300470E+02  0.52125614746E+02  0.47000000000E+01 0.  1.
         11    1    4    4    0    0 -0.25626659175E+02 -0.89506312363E+01  0.17604595470E+02  0.32353689769E+02  0.00000000000E+00 0. -1.
        -12    1    4    4    0    0  0.22750760728E+02 -0.96376011005E+02 -0.18134777668E+02  0.10067175757E+03  0.00000000000E+00 0.  1.
<mgrwt>
<rscale>  2 0.18378707E+03</rscale>
<asrwt>0</asrwt>
<pdfrwt beam="1">  1       21 0.17920711E-01 0.18400086E+03</pdfrwt>
<pdfrwt beam="2">  1       21 0.51063650E-01 0.18400086E+03</pdfrwt>
<totfact> 0.10355177E+05</totfact>
</mgrwt>
</event>
<event>
12    1  0.1074575E-001  0.1976279E+03  0.7546771E-02  0.1151861E+00
         21   -1    0    0  501  502  0.00000000000E+00  0.00000000000E+00  0.67054381778E+02  0.67054381778E+02  0.00000000000E+00 0.  1.
         21   -1    0    0  502  503 -0.00000000000E+00 -0.00000000000E+00 -0.58397517990E+03  0.58397517990E+03  0.00000000000E+00 0.  1.
         -6    2    1    2    0  503  0.94536007895E+02  0.96229330330E+01 -0.28131258598E+03  0.34351046100E+03  0.17272234412E+03 0.  0.
        -24    2    3    3    0    0  0.22251706068E+02 -0.55128400046E+02 -0.13977483853E+03  0.17183408121E+03  0.80347165871E+02 0.  0.
          6    2    1    2  501    0 -0.94536007895E+02 -0.96229330330E+01 -0.23560821214E+03  0.30751910067E+03  0.17328332298E+03 0.  0.
         24    2    5    5    0    0 -0.10761856015E+03  0.30927893342E+02 -0.22553697293E+03  0.26348453979E+03  0.77581489250E+02 0.  0.
          5    1    5    5  501    0  0.13082552254E+02 -0.40550826375E+02 -0.10071239210E+02  0.44034560886E+02  0.47000000000E+01 0. -1.
        -11    1    6    6    0    0 -0.42815598660E+02  0.46780697186E+02 -0.14911455282E+03  0.16203937478E+03  0.00000000000E+00 0.  1.
         12    1    6    6    0    0 -0.64802961489E+02 -0.15852803844E+02 -0.76422420114E+02  0.10144516501E+03  0.00000000000E+00 0. -1.
         -5    1    3    3    0  503  0.72284301826E+02  0.64751333080E+02 -0.14153774744E+03  0.17167637979E+03  0.47000000000E+01 0.  1.
         13    1    4    4    0    0  0.45457488687E+02 -0.26581849835E+02 -0.11766902141E+03  0.12891460980E+03  0.00000000000E+00 0. -1.
        -14    1    4    4    0    0 -0.23205782619E+02 -0.28546550211E+02 -0.22105817122E+02  0.42919471415E+02  0.00000000000E+00 0.  1.
<mgrwt>
<rscale>  2 0.19750481E+03</rscale>
<asrwt>0</asrwt>
<pdfrwt beam="1">  1       21 0.10316058E-01 0.19762785E+03</pdfrwt>
<pdfrwt beam="2">  1       21 0.89842338E-01 0.19762785E+03</pdfrwt>
<totfact> 0.80833221E+04</totfact>
</mgrwt>
</event>
<event>
12    1  0.1074575E-001  0.2019902E+03  0.7546771E-02  0.1148424E+00
         21   -1    0    0  503  502  0.00000000000E+00  0.00000000000E+00  0.13654833401E+04  0.13654833401E+04  0.00000000000E+00 0.  1.
         21   -1    0    0  501  503 -0.00000000000E+00 -0.00000000000E+00 -0.34055216872E+02  0.34055216872E+02  0.00000000000E+00 0.  1.
          6    2    1    2  501    0 -0.87339156661E+02 -0.61203053045E+02  0.41591012374E+03  0.46236485975E+03  0.17154034661E+03 0.  0.
         24    2    3    3    0    0 -0.10133669097E+03 -0.81261679749E+02  0.40962286363E+03  0.43667635821E+03  0.77606480920E+02 0.  0.
         -6    2    1    2    0  502  0.87339156661E+02  0.61203053045E+02  0.91551799949E+03  0.93717369722E+03  0.16955055112E+03 0.  0.
        -24    2    5    5    0    0  0.39265770907E+02  0.33640336756E+02  0.22888216604E+03  0.24828937346E+03  0.81160914364E+02 0.  0.
          5    1    3    3  501    0  0.13997534307E+02  0.20058626704E+02  0.62872601163E+01  0.25688501546E+02  0.47000000000E+01 0. -1.
        -13    1    4    4    0    0 -0.58054467752E+02 -0.79098236214E+02  0.20186328763E+03  0.22444518059E+03  0.00000000000E+00 0.  1.
         14    1    4    4    0    0 -0.43282223217E+02 -0.21634435352E+01  0.20775957599E+03  0.21223117761E+03  0.00000000000E+00 0. -1.
         -5    1    5    5    0  502  0.48073385754E+02  0.27562716289E+02  0.68663583345E+03  0.68888432376E+03  0.47000000000E+01 0.  1.
         11    1    6    6    0    0  0.86344653179E+01 -0.25216373230E+02  0.97859658138E+02  0.10142451460E+03  0.00000000000E+00 0. -1.
        -12    1    6    6    0    0  0.30631305589E+02  0.58856709986E+02  0.13102250791E+03  0.14686485887E+03  0.00000000000E+00 0.  1.
<mgrwt>
<rscale>  2 0.20156708E+03</rscale>
<asrwt>0</asrwt>
<pdfrwt beam="1">  1       21 0.21007432E+00 0.20199018E+03</pdfrwt>
<pdfrwt beam="2">  1       21 0.52392652E-02 0.20199018E+03</pdfrwt>
<totfact> 0.28604497E+04</totfact>
</mgrwt>
</event>
<event>
12    1  0.1074575E-001  0.1905161E+03  0.7546771E-02  0.1159245E+00
         21   -1    0    0  501  502  0.00000000000E+00  0.00000000000E+00  0.29623020057E+02  0.29623020057E+02  0.00000000000E+00 0. -1.
         21   -1    0    0  502  503 -0.00000000000E+00 -0.00000000000E+00 -0.17995745567E+04  0.17995745567E+04  0.00000000000E+00 0.  1.
         -6    2    1    2    0  503  0.40757191321E+02 -0.47901987262E+02 -0.14256183990E+04  0.14382921168E+04  0.17983504782E+03 0.  0.
        -24    2    3    3    0    0  0.59094073159E+02  0.27368853734E+02 -0.57956931027E+03  0.58869039163E+03  0.80091373759E+02 0.  0.
          6    2    1    2  501    0 -0.40757191321E+02  0.47901987262E+02 -0.34433313764E+03  0.39090546003E+03  0.17402879066E+03 0.  0.
         24    2    5    5    0    0  0.94524256762E+01  0.63461837289E+02 -0.11689972658E+03  0.15742920635E+03  0.83675897316E+02 0.  0.
          5    1    5    5  501    0 -0.50209616997E+02 -0.15559850027E+02 -0.22743341106E+03  0.23347625369E+03  0.47000000000E+01 0. -1.
        -13    1    6    6    0    0  0.25741209863E+02 -0.93253965313E+01 -0.51071963141E+02  0.57947548048E+02  0.00000000000E+00 0.  1.
         14    1    6    6    0    0 -0.16288784187E+02  0.72787233821E+02 -0.65827763444E+02  0.99481658297E+02  0.00000000000E+00 0. -1.
         -5    1    3    3    0  503 -0.18336881838E+02 -0.75270840996E+02 -0.84604908878E+03  0.84960172514E+03  0.47000000000E+01 0.  1.
         11    1    4    4    0    0 -0.25008604610E+01  0.16324349044E+02 -0.21435794414E+02  0.27059784864E+02  0.00000000000E+00 0. -1.
        -12    1    4    4    0    0  0.61594933620E+02  0.11044504690E+02 -0.55813351585E+03  0.56163060676E+03  0.00000000000E+00 0.  1.
<mgrwt>
<rscale>  2 0.18913344E+03</rscale>
<asrwt>0</asrwt>
<pdfrwt beam="1">  1       21 0.45573865E-02 0.19051612E+03</pdfrwt>
<pdfrwt beam="2">  1       21 0.27685770E+00 0.19051612E+03</pdfrwt>
<totfact> 0.14629685E+04</totfact>
</mgrwt>
</event>
<event>
12    1  0.1074575E-001  0.1936368E+03  0.7546771E-02  0.1155845E+00
         21   -1    0    0  503  502  0.00000000000E+00  0.00000000000E+00  0.50331716782E+02  0.50331716782E+02  0.00000000000E+00 0. -1.
         21   -1    0    0  501  503 -0.00000000000E+00 -0.00000000000E+00 -0.89586220581E+03  0.89586220581E+03  0.00000000000E+00 0. -1.
          6    2    1    2  501    0  0.58807649043E+02  0.63811386247E+02 -0.62627849044E+03  0.65553030041E+03  0.17310399928E+03 0.  0.
         24    2    3    3    0    0  0.57969509745E+02 -0.26261960782E+02 -0.26248733394E+03  0.28072367577E+03  0.76524682409E+02 0.  0.
         -6    2    1    2    0  502 -0.58807649043E+02 -0.63811386247E+02 -0.21925199859E+03  0.29066362218E+03  0.16995196314E+03 0.  0.
        -24    2    5    5    0    0 -0.75508829407E+02  0.10949829488E+02 -0.12536654414E+03  0.16940053068E+03  0.84606662388E+02 0.  0.
          5    1    3    3  501    0  0.83813929843E+00  0.90073347029E+02 -0.36379115651E+03  0.37480662464E+03  0.47000000000E+01 0. -1.
        -11    1    4    4    0    0  0.58223081917E+02  0.48335041691E+01 -0.10466356669E+03  0.11986555895E+03  0.00000000000E+00 0.  1.
         12    1    4    4    0    0 -0.25357217253E+00 -0.31095464951E+02 -0.15782376724E+03  0.16085811682E+03  0.00000000000E+00 0. -1.
         -5    1    5    5    0  502  0.16701180364E+02 -0.74761215735E+02 -0.93885454441E+02  0.12126309150E+03  0.47000000000E+01 0.  1.
         13    1    6    6    0    0  0.12379885783E+02 -0.17524028645E+02 -0.26275401536E+02  0.33922704459E+02  0.00000000000E+00 0. -1.
        -14    1    6    6    0    0 -0.87888715190E+02  0.28473858133E+02 -0.99091142608E+02  0.13547782622E+03  0.00000000000E+00 0.  1.
<mgrwt>
<rscale>  2 0.19292984E+03</rscale>
<asrwt>0</asrwt>
<pdfrwt beam="1">  1       21 0.77433415E-02 0.19363684E+03</pdfrwt>
<pdfrwt beam="2">  1       21 0.13782495E+00 0.19363684E+03</pdfrwt>
<totfact> 0.47294921E+04</totfact>
</mgrwt>
</event>
<event>
12    1  0.1074575E-001  0.1841137E+03  0.7546771E-02  0.1163898E+00
         21   -1    0    0  503  502  0.00000000000E+00  0.00000000000E+00  0.76943313397E+03  0.76943313397E+03  0.00000000000E+00 0. -1.
         21   -1    0    0  501  503 -0.00000000000E+00 -0.00000000000E+00 -0.48153851532E+02  0.48153851532E+02  0.00000000000E+00 0.  1.
          6    2    1    2  501    0 -0.59412245722E+02  0.27251938245E+02  0.24105151385E+03  0.30327523861E+03  0.17203939941E+03 0.  0.
         24    2    3    3    0    0 -0.94317205628E+02  0.41308597762E+02  0.22894122320E+03  0.26346701029E+03  0.79991538949E+02 0.  0.
         -6    2    1    2    0  502  0.59412245722E+02 -0.27251938245E+02  0.48022776859E+03  0.51431174689E+03  0.17212024919E+03 0.  0.
        -24    2    5    5    0    0  0.35039571490E+02  0.17348933074E+02  0.44201423697E+03  0.45054946203E+03  0.78035088276E+02 0.  0.
          5    1    3    3  501    0  0.34904959906E+02 -0.14056659517E+02  0.12110290649E+02  0.39808228326E+02  0.47000000000E+01 0. -1.
        -13    1    4    4    0    0 -0.77785810976E+02  0.49568156348E+02  0.22683077625E+03  0.24486697525E+03  0.00000000000E+00 0.  1.
         14    1    4    4    0    0 -0.16531394652E+02 -0.82595585860E+01  0.21104469502E+01  0.18600035041E+02  0.00000000000E+00 0. -1.
         -5    1    5    5    0  502  0.24372674233E+02 -0.44600871319E+02  0.38213531624E+02  0.63762284862E+02  0.47000000000E+01 0.  1.
         11    1    6    6    0    0  0.11376229991E+02  0.40795933411E+02  0.12915729609E+03  0.13592400054E+03  0.00000000000E+00 0. -1.
        -12    1    6    6    0    0  0.23663341498E+02 -0.23447000337E+02  0.31285694088E+03  0.31462546148E+03  0.00000000000E+00 0.  1.
<mgrwt>
<rscale>  2 0.18409483E+03</rscale>
<asrwt>0</asrwt>
<pdfrwt beam="1">  1       21 0.11837432E+00 0.18411372E+03</pdfrwt>
<pdfrwt beam="2">  1       21 0.74082854E-02 0.18411372E+03</pdfrwt>
<totfact> 0.75206677E+04</totfact>
</mgrwt>
</event>
<event>
11    1  0.1074575E-001  0.2006780E+03  0.7546771E-02  0.1149241E+00
         21   -1    0    0  501  502  0.00000000000E+00  0.00000000000E+00  0.39852006948E+02  0.39852006948E+02  0.00000000000E+00 0.  1.
         21   -1    0    0  502  503 -0.00000000000E+00 -0.00000000000E+00 -0.11969465476E+04  0.11969465476E+04  0.00000000000E+00 0.  1.
         -6    2    1    2    0  503 -0.10134175254E+03 -0.12784321145E+02 -0.82331334938E+03  0.84733542371E+03  0.17233356994E+03 0.  0.
        -24    2    3    3    0    0 -0.82334706743E+02 -0.20896511999E+02 -0.27081652764E+03  0.29443226450E+03  0.78314102098E+02 0.  0.
          6    2    1    2  501    0  0.10134175254E+03  0.12784321145E+02 -0.33378119125E+03  0.38946313081E+03  0.17273695887E+03 0.  0.
          5    1    5    5  501    0 -0.27752617150E+02 -0.60309504936E+01 -0.18333586585E+03  0.18558208380E+03  0.47000000000E+01 0. -1.
        -13    1    5    5    0    0  0.28514266885E+02 -0.89705545259E+01 -0.54342956602E+02  0.62021699402E+02  0.00000000000E+00 0.  1.
         14    1    5    5    0    0  0.10058010280E+03  0.27785826164E+02 -0.96102368795E+02  0.14185934761E+03  0.00000000000E+00 0. -1.
         -5    1    3    3    0  503 -0.19007045795E+02  0.81121908545E+01 -0.55249682174E+03  0.55290315920E+03  0.47000000000E+01 0.  1.
         13    1    4    4    0    0 -0.30266865624E+02 -0.23360265715E+02 -0.21374987474E+03  0.21714233609E+03  0.00000000000E+00 0. -1.
        -14    1    4    4    0    0 -0.52067841119E+02  0.24637537163E+01 -0.57066652899E+02  0.77289928414E+02  0.00000000000E+00 0.  1.
<mgrwt>
<rscale>  2 0.20059113E+03</rscale>
<asrwt>0</asrwt>
<pdfrwt beam="1">  1       21 0.61310772E-02 0.20067797E+03</pdfrwt>
<pdfrwt beam="2">  1       21 0.18414565E+00 0.20067797E+03</pdfrwt>
<totfact> 0.32239971E+04</totfact>
</mgrwt>
</event>
<event>
12    1  0.1074575E-001  0.1961948E+03  0.7546771E-02  0.1153327E+00
         21   -1    0    0  503  502  0.00000000000E+00  0.00000000000E+00  0.20434084990E+04  0.20434084990E+04  0.00000000000E+00 0. -1.
         21   -1    0    0  501  503 -0.00000000000E+00 -0.00000000000E+00 -0.23777254090E+02  0.23777254090E+02  0.00000000000E+00 0. -1.
          6    2    1    2  501    0 -0.77188573831E+02  0.49463415801E+02  0.53481882217E+03  0.56966969138E+03  0.17345800440E+03 0.  0.
         24    2    3    3    0    0 -0.33225763672E+02 -0.32856796860E+02  0.35622358452E+03  0.36810656230E+03  0.80147854440E+02 0.  0.
         -6    2    1    2    0  502  0.77188573831E+02 -0.49463415801E+02  0.14848124228E+04  0.14975160618E+04  0.17170241392E+03 0.  0.
        -24    2    5    5    0    0 -0.10274595126E+02 -0.62658449492E+02  0.94467584217E+03  0.95016468416E+03  0.79804960108E+02 0.  0.
          5    1    3    3  501    0 -0.43962810160E+02  0.82320212660E+02  0.17859523765E+03  0.20156312907E+03  0.47000000000E+01 0. -1.
        -13    1    4    4    0    0 -0.28316930847E+01 -0.45559363430E+02  0.10188173261E+03  0.11164032211E+03  0.00000000000E+00 0.  1.
         14    1    4    4    0    0 -0.30394070587E+02  0.12702566571E+02  0.25434185191E+03  0.25646624019E+03  0.00000000000E+00 0. -1.
         -5    1    5    5    0  502  0.87463168957E+02  0.13195033691E+02  0.54013658061E+03  0.54735137760E+03  0.47000000000E+01 0.  1.
         13    1    6    6    0    0  0.19150154581E+02 -0.39820767677E+02  0.78333086160E+03  0.78457610255E+03  0.00000000000E+00 0. -1.
        -14    1    6    6    0    0 -0.29424749707E+02 -0.22837681815E+02  0.16134498057E+03  0.16558858161E+03  0.00000000000E+00 0.  1.
<mgrwt>
<rscale>  2 0.19580601E+03</rscale>
<asrwt>0</asrwt>
<pdfrwt beam="1">  1       21 0.31437040E+00 0.19619476E+03</pdfrwt>
<pdfrwt beam="2">  1       21 0.36580407E-02 0.19619476E+03</pdfrwt>
<totfact> 0.12787122E+04</totfact>
</mgrwt>
</event>
<event>
12    1  0.1074575E-001  0.2096244E+03  0.7546771E-02  0.1142940E+00
         21   -1    0    0  501  502  0.00000000000E+00  0.00000000000E+00  0.52192242573E+03  0.52192242573E+03  0.00000000000E+00 0.  1.
         21   -1    0    0  502  503 -0.00000000000E+00 -0.00000000000E+00 -0.93212481679E+02  0.93212481679E+02  0.00000000000E+00 0. -1.
         -6    2    1    2    0  503 -0.11858273349E+03  0.17804429650E+01  0.10553523555E+03  0.22992812593E+03  0.16632565193E+03 0.  0.
        -24    2    3    3    0    0 -0.13396082080E+03  0.31189839110E+01  0.38508448118E+02  0.16098642959E+03  0.80489131971E+02 0.  0.
          6    2    1    2  501    0  0.11858273349E+03 -0.17804429650E+01  0.32317470850E+03  0.38520678148E+03  0.17285062228E+03 0.  0.
         24    2    5    5    0    0  0.11941858226E+03 -0.53949033934E+02  0.20364133713E+03  0.25469786455E+03  0.78929791380E+02 0.  0.
          5    1    5    5  501    0 -0.83584876439E+00  0.52168590969E+02  0.11953337136E+03  0.13050891692E+03  0.47000000000E+01 0. -1.
        -13    1    6    6    0    0  0.58896059849E+02  0.15427194977E+02  0.83372130716E+02  0.10323592587E+03  0.00000000000E+00 0.  1.
         14    1    6    6    0    0  0.60522522410E+02 -0.69376228911E+02  0.12026920642E+03  0.15146193868E+03  0.00000000000E+00 0. -1.
         -5    1    3    3    0  503  0.15378087303E+02 -0.13385409460E+01  0.67026787433E+02  0.68941696342E+02  0.47000000000E+01 0.  1.
         11    1    4    4    0    0 -0.70453343957E+02  0.37621168990E+02  0.38610507235E+02  0.88711878009E+02  0.00000000000E+00 0. -1.
        -12    1    4    4    0    0 -0.63507476840E+02 -0.34502185079E+02 -0.10205911691E+00  0.72274551579E+02  0.00000000000E+00 0.  1.
<mgrwt>
<rscale>  2 0.20827464E+03</rscale>
<asrwt>0</asrwt>
<pdfrwt beam="1">  1       21 0.80295756E-01 0.20962436E+03</pdfrwt>
<pdfrwt beam="2">  1       21 0.14340382E-01 0.20962436E+03</pdfrwt>
<totfact> 0.57591758E+04</totfact>
</mgrwt>
</event>
<event>
11    1  0.1074575E-001  0.1879812E+03  0.7546771E-02  0.1160392E+00
         21   -1    0    0  501  502  0.00000000000E+00  0.00000000000E+00  0.15904624028E+03  0.15904624028E+03  0.00000000000E+00 0.  1.
         21   -1    0    0  502  503 -0.00000000000E+00 -0.00000000000E+00 -0.25280521295E+03  0.25280521295E+03  0.00000000000E+00 0.  1.
         -6    2    1    2    0  503  0.62554578934E+02 -0.38511132813E+02 -0.11918535416E+03  0.22258053055E+03  0.17303398867E+03 0.  0.
          6    2    1    2  501    0 -0.62554578934E+02  0.38511132813E+02  0.25426381497E+02  0.18927092269E+03  0.17257114070E+03 0.  0.
         24    2    4    4    0    0 -0.94017026459E+02  0.29266790766E+02 -0.23990453588E+02  0.12977758647E+03  0.81061296443E+02 0.  0.
          5    1    4    4  501    0  0.31462447525E+02  0.92443420467E+01  0.49416835085E+02  0.59493336215E+02  0.47000000000E+01 0. -1.
        -11    1    5    5    0    0 -0.44213321960E+02  0.39102320620E+01  0.28791091375E+02  0.52905904170E+02  0.00000000000E+00 0.  1.
         12    1    5    5    0    0 -0.49803704499E+02  0.25356558704E+02 -0.52781544963E+02  0.76871682301E+02  0.00000000000E+00 0. -1.
         -5    1    3    3    0  503  0.88829120006E+02 -0.63003578286E+00 -0.12912678208E+03  0.15680186656E+03  0.47000000000E+01 0.  1.
         11    1    3    3    0    0 -0.39158142398E+02 -0.24522585295E+02  0.97403883238E+01  0.47218560654E+02  0.00000000000E+00 0. -1.
        -12    1    3    3    0    0  0.12883601326E+02 -0.13358511735E+02  0.20103959175E+00  0.18560103335E+02  0.00000000000E+00 0.  1.
<mgrwt>
<rscale>  2 0.18787465E+03</rscale>
<asrwt>0</asrwt>
<pdfrwt beam="1">  1       21 0.24468652E-01 0.18798123E+03</pdfrwt>
<pdfrwt beam="2">  1       21 0.38893110E-01 0.18798123E+03</pdfrwt>
<totfact> 0.10076171E+05</totfact>
</mgrwt>
</event>
<event>
12    1  0.1074575E-001  0.1970145E+03  0.7546771E-02  0.1153052E+00
         21   -1    0    0  503  502  0.00000000000E+00  0.00000000000E+00  0.19533985065E+03  0.19533985065E+03  0.00000000000E+00 0. -1.
         21   -1    0    0  501  503 -0.00000000000E+00 -0.00000000000E+00 -0.19516265896E+03  0.19516265896E+03  0.00000000000E+00 0. -1.
          6    2    1    2  501    0 -0.19182321519E+02 -0.83858409803E+02  0.17861698939E+01  0.19702257249E+03  0.17724138714E+03 0.  0.
         24    2    3    3    0    0 -0.20740080804E+02 -0.99767130891E+02 -0.49000861346E+02  0.14357234739E+03  0.88477698690E+02 0.  0.
         -6    2    1    2    0  502  0.19182321519E+02  0.83858409803E+02 -0.16089782037E+01  0.19347993713E+03  0.17329657500E+03 0.  0.
        -24    2    5    5    0    0  0.37863187601E+02  0.11207840327E+03  0.31222362695E+02  0.14609502672E+03  0.79835652732E+02 0.  0.
          5    1    3    3  501    0  0.15577592847E+01  0.15908721089E+02  0.50787031240E+02  0.53450225096E+02  0.47000000000E+01 0. -1.
        -11    1    4    4    0    0  0.39901122673E+01  0.15731488764E+02 -0.10539860378E+02  0.19351728384E+02  0.00000000000E+00 0.  1.
         12    1    4    4    0    0 -0.24730193071E+02 -0.11549861966E+03 -0.38461000968E+02  0.12422061901E+03  0.00000000000E+00 0. -1.
         -5    1    5    5    0  502 -0.18680866082E+02 -0.28219993464E+02 -0.32831340899E+02  0.47384910403E+02  0.47000000000E+01 0.  1.
         13    1    6    6    0    0  0.28966958673E+02  0.75366212700E+02  0.58324401903E+02  0.99603647367E+02  0.00000000000E+00 0. -1.
        -14    1    6    6    0    0  0.88962289283E+01  0.36712190566E+02 -0.27102039208E+02  0.46491379357E+02  0.00000000000E+00 0.  1.
<mgrwt>
<rscale>  2 0.19612314E+03</rscale>
<asrwt>0</asrwt>
<pdfrwt beam="1">  1       21 0.30052285E-01 0.19701448E+03</pdfrwt>
<pdfrwt beam="2">  1       21 0.30025024E-01 0.19701448E+03</pdfrwt>
<totfact> 0.11279815E+05</totfact>
</mgrwt>
</event>
<event>
12    1  0.1074575E-001  0.2705944E+03  0.7546771E-02  0.1101008E+00
         21   -1    0    0  503  502  0.00000000000E+00  0.00000000000E+00  0.21582168935E+03  0.21582168935E+03  0.00000000000E+00 0.  1.
         21   -1    0    0  501  503 -0.00000000000E+00 -0.00000000000E+00 -0.39298838403E+03  0.39298838403E+03  0.00000000000E+00 0.  1.
          6    2    1    2  501    0 -0.20671161349E+03 -0.21699296233E+02 -0.20169013985E+03  0.33710669940E+03  0.17251511138E+03 0.  0.
         24    2    3    3    0    0 -0.22230596828E+03  0.56021147935E+01 -0.16199779110E+03  0.28625275663E+03  0.79031823565E+02 0.  0.
         -6    2    1    2    0  502  0.20671161349E+03  0.21699296233E+02  0.24523445171E+02  0.27170337398E+03  0.17326503819E+03 0.  0.
        -24    2    5    5    0    0  0.13292794395E+03  0.75699858144E+02  0.39813874181E+02  0.17888108249E+03  0.83743598502E+02 0.  0.
          5    1    3    3  501    0  0.15594354787E+02 -0.27301411027E+02 -0.39692348754E+02  0.50853942766E+02  0.47000000000E+01 0. -1.
        -11    1    4    4    0    0 -0.13825171495E+03 -0.33778539359E+02 -0.10987660394E+03  0.17979820495E+03  0.00000000000E+00 0.  1.
         12    1    4    4    0    0 -0.84054253324E+02  0.39380654152E+02 -0.52121187154E+02  0.10645455168E+03  0.00000000000E+00 0. -1.
         -5    1    5    5    0  502  0.73783669538E+02 -0.54000561910E+02 -0.15290429010E+02  0.92822291484E+02  0.47000000000E+01 0.  1.
         11    1    6    6    0    0 -0.25085831904E+01  0.25068278777E+02  0.21527281409E+02  0.33138126612E+02  0.00000000000E+00 0. -1.
        -12    1    6    6    0    0  0.13543652714E+03  0.50631579367E+02  0.18286592772E+02  0.14574295588E+03  0.00000000000E+00 0.  1.
<mgrwt>
<rscale>  2 0.27047442E+03</rscale>
<asrwt>0</asrwt>
<pdfrwt beam="1">  1       21 0.33203337E-01 0.27059439E+03</pdfrwt>
<pdfrwt beam="2">  1       21 0.60459751E-01 0.27059439E+03</pdfrwt>
<totfact> 0.21385442E+04</totfact>
</mgrwt>
</event>
<event>
12    1  0.1074575E-001  0.2917678E+03  0.7546771E-02  0.1089570E+00
         21   -1    0    0  503  502  0.00000000000E+00  0.00000000000E+00  0.15576434485E+03  0.15576434485E+03  0.00000000000E+00 0.  1.
         21   -1    0    0  501  503 -0.00000000000E+00 -0.00000000000E+00 -0.54456466095E+03  0.54456466095E+03  0.00000000000E+00 0. -1.
          6    2    1    2  501    0 -0.21632002286E+03 -0.89458035600E+02 -0.19038660497E+03  0.34748843861E+03  0.17234866750E+03 0.  0.
         24    2    3    3    0    0 -0.18467970097E+03 -0.12454341741E+03 -0.18292562509E+03  0.29942753759E+03  0.81101240294E+02 0.  0.
         -6    2    1    2    0  502  0.21632002286E+03  0.89458035600E+02 -0.19841371114E+03  0.35284056720E+03  0.17415904417E+03 0.  0.
        -24    2    5    5    0    0  0.13802916624E+03  0.31160051185E+02 -0.19676218646E+03  0.25510147189E+03  0.79614090560E+02 0.  0.
          5    1    3    3  501    0 -0.31640321891E+02  0.35085381811E+02 -0.74609798761E+01  0.48060901021E+02  0.47000000000E+01 0. -1.
        -11    1    4    4    0    0 -0.16048019401E+03 -0.66621883483E+02 -0.12541652530E+03  0.21429342698E+03  0.00000000000E+00 0.  1.
         12    1    4    4    0    0 -0.24199506965E+02 -0.57921533928E+02 -0.57509099795E+02  0.85134110609E+02  0.00000000000E+00 0. -1.
         -5    1    5    5    0  502  0.78290856620E+02  0.58297984414E+02 -0.16515246725E+01  0.97739095304E+02  0.47000000000E+01 0.  1.
         11    1    6    6    0    0  0.25551811075E+02  0.63536112000E+01 -0.10379696361E+03  0.10708442034E+03  0.00000000000E+00 0. -1.
        -12    1    6    6    0    0  0.11247735517E+03  0.24806439985E+02 -0.92965222853E+02  0.14801705155E+03  0.00000000000E+00 0.  1.
<mgrwt>
<rscale>  2 0.29149820E+03</rscale>
<asrwt>0</asrwt>
<pdfrwt beam="1">  1       21 0.23963745E-01 0.29176783E+03</pdfrwt>
<pdfrwt beam="2">  1       21 0.83779179E-01 0.29176783E+03</pdfrwt>
<totfact> 0.19327587E+04</totfact>
</mgrwt>
</event>
<event>
11    1  0.1074575E-001  0.2655679E+03  0.7546771E-02  0.1103857E+00
         21   -1    0    0  503  502  0.00000000000E+00  0.00000000000E+00  0.27904760400E+03  0.27904760400E+03  0.00000000000E+00 0. -1.
         21   -1    0    0  501  503 -0.00000000000E+00 -0.00000000000E+00 -0.63718274875E+03  0.63718274875E+03  0.00000000000E+00 0.  1.
          6    2    1    2  501    0  0.42406864756E+02 -0.19721915899E+03 -0.53496274905E+03  0.59725323697E+03  0.17272101015E+03 0.  0.
         24    2    3    3    0    0 -0.37495700935E+01 -0.19435194482E+03 -0.48508266178E+03  0.52907149087E+03  0.82611839092E+02 0.  0.
         -6    2    1    2    0  502 -0.42406864756E+02  0.19721915899E+03  0.17682760430E+03  0.31897711578E+03  0.17258232789E+03 0.  0.
          5    1    3    3  501    0  0.46156434850E+02 -0.28672141654E+01 -0.49880087264E+02  0.68181746095E+02  0.47000000000E+01 0. -1.
        -11    1    4    4    0    0  0.29557484157E+01 -0.13937349882E+03 -0.42535277625E+03  0.44761444669E+03  0.00000000000E+00 0.  1.
         12    1    4    4    0    0 -0.67053185092E+01 -0.54978445997E+02 -0.59729885530E+02  0.81457044177E+02  0.00000000000E+00 0. -1.
         -5    1    5    5    0  502  0.38255150678E+02  0.16775570842E+03  0.10692562474E+03  0.20263418637E+03  0.47000000000E+01 0.  1.
         13    1    5    5    0    0 -0.70491516428E+02  0.34022479551E+02  0.48136301897E+02  0.91889534570E+02  0.00000000000E+00 0. -1.
        -14    1    5    5    0    0 -0.10170499006E+02 -0.45590289807E+01  0.21765677659E+02  0.24453394841E+02  0.00000000000E+00 0.  1.
<mgrwt>
<rscale>  2 0.26554531E+03</rscale>
<asrwt>0</asrwt>
<pdfrwt beam="1">  1       21 0.42930401E-01 0.26556786E+03</pdfrwt>
<pdfrwt beam="2">  1       21 0.98028114E-01 0.26556786E+03</pdfrwt>
<totfact> 0.42650756E+03</totfact>
</mgrwt>
</event>
<event>
12    1  0.1074575E-001  0.2062817E+03  0.7546771E-02  0.1144707E+00
         21   -1    0    0  501  502  0.00000000000E+00  0.00000000000E+00  0.50654203050E+02  0.50654203050E+02  0.00000000000E+00 0.  1.
         21   -1    0    0  502  503 -0.00000000000E+00 -0.00000000000E+00 -0.14820431050E+04  0.14820431050E+04  0.00000000000E+00 0. -1.
         -6    2    1    2    0  503 -0.26387272737E+02 -0.10881565750E+03 -0.12221387772E+04  0.12394254000E+04  0.17324836494E+03 0.  0.
        -24    2    3    3    0    0  0.38648743984E+02 -0.15531007018E+02 -0.61680965231E+03  0.62348940582E+03  0.80931788562E+02 0.  0.
          6    2    1    2  501    0  0.26387272737E+02  0.10881565750E+03 -0.20925012468E+03  0.29327190797E+03  0.17229527518E+03 0.  0.
         24    2    5    5    0    0 -0.36981938810E+02  0.11393562781E+02 -0.88833961554E+02  0.12585367763E+03  0.80313127047E+02 0.  0.
          5    1    5    5  501    0  0.63369211547E+02  0.97422094717E+02 -0.12041616312E+03  0.16741823035E+03  0.47000000000E+01 0. -1.
        -11    1    6    6    0    0  0.24882891700E+02  0.89723365241E+01 -0.19253333565E+02  0.32716234127E+02  0.00000000000E+00 0.  1.
         12    1    6    6    0    0 -0.61864830510E+02  0.24212262568E+01 -0.69580627989E+02  0.93137443501E+02  0.00000000000E+00 0. -1.
         -5    1    3    3    0  503 -0.65036016721E+02 -0.93284650480E+02 -0.60532912494E+03  0.61593599422E+03  0.47000000000E+01 0.  1.
         11    1    4    4    0    0  0.33226080824E+02 -0.47303893796E+02 -0.35028842622E+03  0.35502621362E+03  0.00000000000E+00 0. -1.
        -12    1    4    4    0    0  0.54226631605E+01  0.31772886778E+02 -0.26652122609E+03  0.26846319220E+03  0.00000000000E+00 0.  1.
<mgrwt>
<rscale>  2 0.20608144E+03</rscale>
<asrwt>0</asrwt>
<pdfrwt beam="1">  1       21 0.77929544E-02 0.20628168E+03</pdfrwt>
<pdfrwt beam="2">  1       21 0.22800663E+00 0.20628168E+03</pdfrwt>
<totfact> 0.11159568E+04</totfact>
</mgrwt>
</event>
<event>
12    1  0.1074575E-001  0.2027220E+03  0.7546771E-02  0.1147612E+00
         21   -1    0    0  501  502  0.00000000000E+00  0.00000000000E+00  0.25989948650E+03  0.25989948650E+03  0.00000000000E+00 0.  1.
         21   -1    0    0  502  503 -0.00000000000E+00 -0.00000000000E+00 -0.16246857160E+03  0.16246857160E+03  0.00000000000E+00 0.  1.
         -6    2    1    2    0  503  0.10149359904E+03  0.31045138002E+02  0.85492802312E+02  0.22001187067E+03  0.17271784143E+03 0.  0.
        -24    2    3    3    0    0  0.12648597856E+03  0.58202544764E+02  0.86679642817E+02  0.18278765320E+03  0.80695270576E+02 0.  0.
          6    2    1    2  501    0 -0.10149359904E+03 -0.31045138002E+02  0.11938112589E+02  0.20235618743E+03  0.17187424711E+03 0.  0.
         24    2    5    5    0    0 -0.11046798237E+03  0.34037611904E+01  0.53690577501E+02  0.14728691707E+03  0.81215744218E+02 0.  0.
          5    1    5    5  501    0  0.89743833323E+01 -0.34448899192E+02 -0.41752464912E+02  0.55069270360E+02  0.47000000000E+01 0. -1.
        -13    1    6    6    0    0 -0.95400923476E+02 -0.30407514296E+02  0.38577893629E+02  0.10730427299E+03  0.00000000000E+00 0.  1.
         14    1    6    6    0    0 -0.15067058896E+02  0.33811275486E+02  0.15112683873E+02  0.39982644080E+02  0.00000000000E+00 0. -1.
         -5    1    3    3    0  503 -0.24992379519E+02 -0.27157406762E+02 -0.11868405048E+01  0.37224217472E+02  0.47000000000E+01 0.  1.
         11    1    4    4    0    0  0.35379698482E+02  0.56513282864E+01  0.66724747858E+02  0.75735411485E+02  0.00000000000E+00 0. -1.
        -12    1    4    4    0    0  0.91106280076E+02  0.52551216477E+02  0.19954894958E+02  0.10705224171E+03  0.00000000000E+00 0.  1.
<mgrwt>
<rscale>  2 0.20254218E+03</rscale>
<asrwt>0</asrwt>
<pdfrwt beam="1">  1       21 0.39984536E-01 0.20272199E+03</pdfrwt>
<pdfrwt beam="2">  1       21 0.24995165E-01 0.20272199E+03</pdfrwt>
<totfact> 0.90961278E+04</totfact>
</mgrwt>
</event>
<event>
12    1  0.1074575E-001  0.2058115E+03  0.7546771E-02  0.1146634E+00
         21   -1    0    0  501  502  0.00000000000E+00  0.00000000000E+00  0.39192438159E+03  0.39192438159E+03  0.00000000000E+00 0.  1.
         21   -1    0    0  502  503 -0.00000000000E+00 -0.00000000000E+00 -0.11526905431E+03  0.11526905431E+03  0.00000000000E+00 0.  1.
         -6    2    1    2    0  503 -0.97114128255E+01  0.94439901807E+02  0.60898488179E+02  0.21463220291E+03  0.18260654444E+03 0.  0.
        -24    2    3    3    0    0  0.34094873137E+02  0.11950388189E+03  0.18709429200E+02  0.14868373451E+03  0.79455471841E+02 0.  0.
          6    2    1    2  501    0  0.97114128255E+01 -0.94439901807E+02  0.21575683910E+03  0.29256123299E+03  0.17328547210E+03 0.  0.
         24    2    5    5    0    0 -0.55809594602E+02 -0.80961130411E+02  0.11631367682E+03  0.17262078019E+03  0.81238210550E+02 0.  0.
          5    1    5    5  501    0  0.65521007427E+02 -0.13478771396E+02  0.99443162280E+02  0.11994045280E+03  0.47000000000E+01 0. -1.
        -11    1    6    6    0    0 -0.52534259269E+02 -0.61649330242E+02  0.33718865073E+02  0.87735113712E+02  0.00000000000E+00 0.  1.
         12    1    6    6    0    0 -0.32753353326E+01 -0.19311800169E+02  0.82594811742E+02  0.84885666482E+02  0.00000000000E+00 0. -1.
         -5    1    3    3    0  503 -0.43806285962E+02 -0.25063980080E+02  0.42189058978E+02  0.65948468403E+02  0.47000000000E+01 0.  1.
         13    1    4    4    0    0  0.19179931667E+02  0.86371994848E+02 -0.24908098216E+02  0.91915203473E+02  0.00000000000E+00 0. -1.
        -14    1    4    4    0    0  0.14914941470E+02  0.33131887039E+02  0.43617527416E+02  0.56768531033E+02  0.00000000000E+00 0.  1.
<mgrwt>
<rscale>  2 0.20372408E+03</rscale>
<asrwt>0</asrwt>
<pdfrwt beam="1">  1       21 0.60296058E-01 0.20581146E+03</pdfrwt>
<pdfrwt beam="2">  1       21 0.17733701E-01 0.20581146E+03</pdfrwt>
<totfact> 0.73563492E+04</totfact>
</mgrwt>
</event>
<event>
12    1  0.1074575E-001  0.1919253E+03  0.7546771E-02  0.1156776E+00
         21   -1    0    0  503  502  0.00000000000E+00  0.00000000000E+00  0.22387012211E+03  0.22387012211E+03  0.00000000000E+00 0.  1.
         21   -1    0    0  501  503 -0.00000000000E+00 -0.00000000000E+00 -0.66070107264E+03  0.66070107264E+03  0.00000000000E+00 0.  1.
          6    2    1    2  501    0 -0.66194734904E+02 -0.51146928962E+02 -0.60177647387E+03  0.63164090945E+03  0.17273552826E+03 0.  0.
         24    2    3    3    0    0 -0.65292460789E+02 -0.46687311577E+02 -0.61063339916E+03  0.62063012331E+03  0.76588454057E+02 0.  0.
         -6    2    1    2    0  502  0.66194734904E+02  0.51146928962E+02  0.16494552334E+03  0.25293028530E+03  0.17253681427E+03 0.  0.
        -24    2    5    5    0    0  0.20419224661E+02  0.30822319454E+02  0.18009726863E+03  0.20039313202E+03  0.79720894873E+02 0.  0.
          5    1    3    3  501    0 -0.90227411491E+00 -0.44596173857E+01  0.88569252924E+01  0.11010786141E+02  0.47000000000E+01 0. -1.
        -13    1    4    4    0    0  0.19648433761E+00 -0.69014335165E+01 -0.31970605934E+03  0.31978060099E+03  0.00000000000E+00 0.  1.
         14    1    4    4    0    0 -0.65488945127E+02 -0.39785878060E+02 -0.29092733981E+03  0.30084952232E+03  0.00000000000E+00 0. -1.
         -5    1    5    5    0  502  0.45775510243E+02  0.20324609509E+02 -0.15151745286E+02  0.52537153282E+02  0.47000000000E+01 0.  1.
         11    1    6    6    0    0  0.36841513002E+02  0.71756324596E+01  0.31405025104E+02  0.48939374570E+02  0.00000000000E+00 0. -1.
        -12    1    6    6    0    0 -0.16422288341E+02  0.23646686994E+02  0.14869224353E+03  0.15145375745E+03  0.00000000000E+00 0.  1.
<mgrwt>
<rscale>  2 0.19188056E+03</rscale>
<asrwt>0</asrwt>
<pdfrwt beam="1">  1       21 0.34441558E-01 0.19192528E+03</pdfrwt>
<pdfrwt beam="2">  1       21 0.10164632E+00 0.19192528E+03</pdfrwt>
<totfact> 0.64193060E+03</totfact>
</mgrwt>
</event>
<event>
12    1  0.1074575E-001  0.1878587E+03  0.7546771E-02  0.1163016E+00
         21   -1    0    0  501  502  0.00000000000E+00  0.00000000000E+00  0.10059254702E+03  0.10059254702E+03  0.00000000000E+00 0.  1.
         21   -1    0    0  502  503 -0.00000000000E+00 -0.00000000000E+00 -0.35178610055E+03  0.35178610055E+03  0.00000000000E+00 0.  1.
         -6    2    1    2    0  503 -0.32084800255E+02  0.57150550335E+02 -0.18475963445E+03  0.26349004463E+03  0.17605471106E+03 0.  0.
        -24    2    3    3    0    0  0.42067360196E+02  0.22714866722E+02 -0.14328706296E+03  0.17169449249E+03  0.81622229677E+02 0.  0.
          6    2    1    2  501    0  0.32084800255E+02 -0.57150550335E+02 -0.66433919082E+02  0.18888860294E+03  0.16422490343E+03 0.  0.
         24    2    5    5    0    0  0.32101979761E+01 -0.15197337736E+02  0.24602108356E+02  0.84468954430E+02  0.79299912242E+02 0.  0.
          5    1    5    5  501    0  0.28874602279E+02 -0.41953212599E+02 -0.91036027438E+02  0.10441964851E+03  0.47000000000E+01 0. -1.
        -11    1    6    6    0    0  0.34012268250E+02 -0.30988753610E+02  0.11240397313E+02  0.47365428041E+02  0.00000000000E+00 0.  1.
         12    1    6    6    0    0 -0.30802070274E+02  0.15791415874E+02  0.13361711044E+02  0.37103526389E+02  0.00000000000E+00 0. -1.
         -5    1    3    3    0  503 -0.74152160451E+02  0.34435683612E+02 -0.41472571489E+02  0.91795552132E+02  0.47000000000E+01 0.  1.
         11    1    4    4    0    0  0.19638092022E+02  0.37695333910E+02 -0.22815342774E+02  0.48240364041E+02  0.00000000000E+00 0. -1.
        -12    1    4    4    0    0  0.22429268174E+02 -0.14980467188E+02 -0.12047172018E+03  0.12345412845E+03  0.00000000000E+00 0.  1.
<mgrwt>
<rscale>  2 0.18503612E+03</rscale>
<asrwt>0</asrwt>
<pdfrwt beam="1">  1       21 0.15475776E-01 0.18785867E+03</pdfrwt>
<pdfrwt beam="2">  1       21 0.54120939E-01 0.18785867E+03</pdfrwt>
<totfact> 0.11979670E+05</totfact>
</mgrwt>
</event>
<event>
12    1  0.1074575E-001  0.2169419E+03  0.7546771E-02  0.1136409E+00
         21   -1    0    0  503  502  0.00000000000E+00  0.00000000000E+00  0.70549909803E+03  0.70549909803E+03  0.00000000000E+00 0. -1.
         21   -1    0    0  501  503 -0.00000000000E+00 -0.00000000000E+00 -0.71117825287E+02  0.71117825287E+02  0.00000000000E+00 0. -1.
          6    2    1    2  501    0 -0.97882419028E+02 -0.83846573462E+02  0.21742017834E+03  0.30714055231E+03  0.17450664483E+03 0.  0.
         24    2    3    3    0    0 -0.46383712952E+02 -0.22246416362E+02  0.28724293614E+02  0.10201882505E+03  0.83285075213E+02 0.  0.
         -6    2    1    2    0  502  0.97882419028E+02  0.83846573462E+02  0.41696109440E+03  0.46947637100E+03  0.17303263521E+03 0.  0.
        -24    2    5    5    0    0  0.52850412000E+02 -0.18687152765E+02  0.24953723653E+03  0.26799712925E+03  0.80070301271E+02 0.  0.
          5    1    3    3  501    0 -0.51498706076E+02 -0.61600157100E+02  0.18869588472E+03  0.20512172726E+03  0.47000000000E+01 0. -1.
        -13    1    4    4    0    0 -0.41924488240E+02  0.89018943378E+01  0.48602039883E+02  0.64800190723E+02  0.00000000000E+00 0.  1.
         14    1    4    4    0    0 -0.44592247122E+01 -0.31148310700E+02 -0.19877746270E+02  0.37218634328E+02  0.00000000000E+00 0. -1.
         -5    1    5    5    0  502  0.45032007027E+02  0.10253372623E+03  0.16742385787E+03  0.20147924175E+03  0.47000000000E+01 0.  1.
         11    1    6    6    0    0  0.37341679351E+02  0.10529875875E+02  0.22079003862E+03  0.22417296995E+03  0.00000000000E+00 0. -1.
        -12    1    6    6    0    0  0.15508732649E+02 -0.29217028640E+02  0.28747197912E+02  0.43824159304E+02  0.00000000000E+00 0.  1.
<mgrwt>
<rscale>  2 0.21664531E+03</rscale>
<asrwt>0</asrwt>
<pdfrwt beam="1">  1       21 0.10853832E+00 0.21694189E+03</pdfrwt>
<pdfrwt beam="2">  1       21 0.10941204E-01 0.21694189E+03</pdfrwt>
<totfact> 0.46089599E+04</totfact>
</mgrwt>
</event>
<event>
12    1  0.1074575E-001  0.1924092E+03  0.7546771E-02  0.1156735E+00
         21   -1    0    0  501  502  0.00000000000E+00  0.00000000000E+00  0.38909910832E+03  0.38909910832E+03  0.00000000000E+00 0. -1.
         21   -1    0    0  502  503 -0.00000000000E+00 -0.00000000000E+00 -0.25266062274E+03  0.25266062274E+03  0.00000000000E+00 0. -1.
         -6    2    1    2    0  503  0.81283822652E+02 -0.90969554629E+01 -0.18577039293E+03  0.26745452128E+03  0.17415931683E+03 0.  0.
        -24    2    3    3    0    0 -0.47865850346E+01 -0.31755985712E+02 -0.38460573992E+02  0.95280715238E+02  0.81042241576E+02 0.  0.
          6    2    1    2  501    0 -0.81283822652E+02  0.90969554629E+01  0.32220887850E+03  0.37430520978E+03  0.17203492163E+03 0.  0.
         24    2    5    5    0    0 -0.38283659658E+02  0.71978092659E+02  0.19318410787E+03  0.22439679484E+03  0.79920820705E+02 0.  0.
          5    1    5    5  501    0 -0.43000162994E+02 -0.62881137196E+02  0.12902477064E+03  0.14990841494E+03  0.47000000000E+01 0. -1.
        -11    1    6    6    0    0 -0.20566373525E+02  0.11771009701E+02  0.27118424469E+01  0.23851341237E+02  0.00000000000E+00 0.  1.
         12    1    6    6    0    0 -0.17717286133E+02  0.60207082957E+02  0.19047226542E+03  0.20054545360E+03  0.00000000000E+00 0. -1.
         -5    1    3    3    0  503  0.86070407686E+02  0.22659030249E+02 -0.14730981894E+03  0.17217380604E+03  0.47000000000E+01 0.  1.
         11    1    4    4    0    0  0.29201654034E+02 -0.36388345262E+02 -0.42747752632E+01  0.46852128797E+02  0.00000000000E+00 0. -1.
        -12    1    4    4    0    0 -0.33988239068E+02  0.46323595509E+01 -0.34185798729E+02  0.48428586442E+02  0.00000000000E+00 0.  1.
<mgrwt>
<rscale>  2 0.19192716E+03</rscale>
<asrwt>0</asrwt>
<pdfrwt beam="1">  1       21 0.59861401E-01 0.19240915E+03</pdfrwt>
<pdfrwt beam="2">  1       21 0.38870865E-01 0.19240915E+03</pdfrwt>
<totfact> 0.16621492E+04</totfact>
</mgrwt>
</event>
<event>
12    1  0.1074575E-001  0.3347519E+03  0.7546771E-02  0.1069182E+00
         21   -1    0    0  501  502  0.00000000000E+00  0.00000000000E+00  0.22044777305E+03  0.22044777305E+03  0.00000000000E+00 0.  1.
         21   -1    0    0  502  503 -0.00000000000E+00 -0.00000000000E+00 -0.80635995415E+03  0.80635995415E+03  0.00000000000E+00 0. -1.
         -6    2    1    2    0  503  0.71563681948E+02 -0.27599698655E+03 -0.60569075854E+03  0.69147202424E+03  0.17313742565E+03 0.  0.
        -24    2    3    3    0    0  0.55032932482E+02 -0.20515256068E+03 -0.56133460765E+03  0.60613881571E+03  0.84802861757E+02 0.  0.
          6    2    1    2  501    0 -0.71563681948E+02  0.27599698655E+03  0.19778577449E+02  0.33533570297E+03  0.17539425418E+03 0.  0.
         24    2    5    5    0    0 -0.62689676715E+02  0.74190493939E+02 -0.23513008390E+02  0.12869383926E+03  0.81086483112E+02 0.  0.
          5    1    5    5  501    0 -0.88740052327E+01  0.20180649261E+03  0.43291585839E+02  0.20664186370E+03  0.47000000000E+01 0. -1.
        -13    1    6    6    0    0 -0.51830132097E+02  0.86179349100E+02 -0.50170218239E+00  0.10056587150E+03  0.00000000000E+00 0.  1.
         14    1    6    6    0    0 -0.10859544619E+02 -0.11988855162E+02 -0.23011306208E+02  0.28127967769E+02  0.00000000000E+00 0. -1.
         -5    1    3    3    0  503  0.16530749466E+02 -0.70844425867E+02 -0.44356150895E+02  0.85333208522E+02  0.47000000000E+01 0.  1.
         13    1    4    4    0    0  0.26204781907E+02 -0.12660185615E+02 -0.12528239116E+03  0.12861822744E+03  0.00000000000E+00 0. -1.
        -14    1    4    4    0    0  0.28828150575E+02 -0.19249237507E+03 -0.43605221648E+03  0.47752058827E+03  0.00000000000E+00 0.  1.
<mgrwt>
<rscale>  2 0.33445729E+03</rscale>
<asrwt>0</asrwt>
<pdfrwt beam="1">  1       21 0.33915042E-01 0.33475191E+03</pdfrwt>
<pdfrwt beam="2">  1       21 0.12405538E+00 0.33475191E+03</pdfrwt>
<totfact> 0.37152872E+03</totfact>
</mgrwt>
</event>
<event>
12    1  0.1074575E-001  0.1893281E+03  0.7546771E-02  0.1159288E+00
         21   -1    0    0  501  502  0.00000000000E+00  0.00000000000E+00  0.65391610424E+03  0.65391610424E+03  0.00000000000E+00 0.  1.
         21   -1    0    0  502  503 -0.00000000000E+00 -0.00000000000E+00 -0.56092882916E+02  0.56092882916E+02  0.00000000000E+00 0.  1.
         -6    2    1    2    0  503  0.46673081310E+02  0.57988455593E+02  0.35729092019E+03  0.40390295006E+03  0.17303107787E+03 0.  0.
        -24    2    3    3    0    0 -0.40507723626E+02  0.29914593901E+02  0.24522312100E+03  0.25909301920E+03  0.66776155327E+02 0.  0.
          6    2    1    2  501    0 -0.46673081310E+02 -0.57988455593E+02  0.24053230113E+03  0.30610603710E+03  0.17408067257E+03 0.  0.
         24    2    5    5    0    0 -0.24730175247E+02 -0.23839432231E+02  0.30414723653E+02  0.92051994187E+02  0.79803597175E+02 0.  0.
          5    1    5    5  501    0 -0.21942906064E+02 -0.34149023362E+02  0.21011757747E+03  0.21405404291E+03  0.47000000000E+01 0. -1.
        -11    1    6    6    0    0 -0.10385991952E+02 -0.46059832854E+02  0.41985552113E+02  0.63183570789E+02  0.00000000000E+00 0.  1.
         12    1    6    6    0    0 -0.14344183295E+02  0.22220400623E+02 -0.11570828460E+02  0.28868423398E+02  0.00000000000E+00 0. -1.
         -5    1    3    3    0  503  0.87180804937E+02  0.28073861692E+02  0.11206779919E+03  0.14480993086E+03  0.47000000000E+01 0.  1.
         11    1    4    4    0    0  0.37151746743E+01  0.18999519236E+02  0.15228155059E+02  0.24630894433E+02  0.00000000000E+00 0. -1.
        -12    1    4    4    0    0 -0.44222898301E+02  0.10915074665E+02  0.22999496595E+03  0.23446212477E+03  0.00000000000E+00 0.  1.
<mgrwt>
<rscale>  2 0.18908645E+03</rscale>
<asrwt>0</asrwt>
<pdfrwt beam="1">  1       21 0.10060247E+00 0.18932807E+03</pdfrwt>
<pdfrwt beam="2">  1       21 0.86296748E-02 0.18932807E+03</pdfrwt>
<totfact> 0.85216799E+04</totfact>
</mgrwt>
</event>
<event>
12    1  0.1074575E-001  0.2265437E+03  0.7546771E-02  0.1129154E+00
         21   -1    0    0  501  502  0.00000000000E+00  0.00000000000E+00  0.65088109656E+03  0.65088109656E+03  0.00000000000E+00 0.  1.
         21   -1    0    0  502  503 -0.00000000000E+00 -0.00000000000E+00 -0.11307701617E+03  0.11307701617E+03  0.00000000000E+00 0. -1.
         -6    2    1    2    0  503 -0.70095454765E+02  0.12845390475E+03  0.58272645718E+02  0.23360688301E+03  0.17251868341E+03 0.  0.
        -24    2    3    3    0    0 -0.82544833666E+01  0.13755211239E+03  0.60375053555E+02  0.17088851852E+03  0.81049482106E+02 0.  0.
          6    2    1    2  501    0  0.70095454765E+02 -0.12845390475E+03  0.47953143467E+03  0.53035122972E+03  0.17294002314E+03 0.  0.
         24    2    5    5    0    0  0.10132038461E+03 -0.13898134910E+03  0.36855236971E+03  0.41448809414E+03  0.79924309349E+02 0.  0.
          5    1    5    5  501    0 -0.31224929845E+02  0.10527444345E+02  0.11097906496E+03  0.11586313558E+03  0.47000000000E+01 0. -1.
        -13    1    6    6    0    0  0.25368641503E+02 -0.48881676531E+02  0.20901078894E+03  0.21614461864E+03  0.00000000000E+00 0.  1.
         14    1    6    6    0    0  0.75951743107E+02 -0.90099672566E+02  0.15954158077E+03  0.19834347550E+03  0.00000000000E+00 0. -1.
         -5    1    3    3    0  503 -0.61840971398E+02 -0.90982076416E+01 -0.21024078368E+01  0.62718364491E+02  0.47000000000E+01 0.  1.
         11    1    4    4    0    0  0.32138334083E+02  0.36405224687E+02  0.53249472891E+01  0.48852512379E+02  0.00000000000E+00 0. -1.
        -12    1    4    4    0    0 -0.40392817450E+02  0.10114688771E+03  0.55050106266E+02  0.12203600614E+03  0.00000000000E+00 0.  1.
<mgrwt>
<rscale>  2 0.22646325E+03</rscale>
<asrwt>0</asrwt>
<pdfrwt beam="1">  1       21 0.10013555E+00 0.22654366E+03</pdfrwt>
<pdfrwt beam="2">  1       21 0.17396464E-01 0.22654366E+03</pdfrwt>
<totfact> 0.23997037E+04</totfact>
</mgrwt>
</event>
<event>
12    1  0.1074575E-001  0.1993833E+03  0.7546771E-02  0.1150709E+00
         21   -1    0    0  503  502  0.00000000000E+00  0.00000000000E+00  0.81403627100E+03  0.81403627100E+03  0.00000000000E+00 0.  1.
         21   -1    0    0  501  503 -0.00000000000E+00 -0.00000000000E+00 -0.81196291458E+02  0.81196291458E+02  0.00000000000E+00 0. -1.
          6    2    1    2  501    0 -0.15090698330E+02 -0.96930720103E+02  0.82757963471E+02  0.21587633121E+03  0.17358115157E+03 0.  0.
         24    2    3    3    0    0  0.31162320031E+02 -0.14827763706E+02  0.82399067114E+02  0.12152350421E+03  0.82385696859E+02 0.  0.
         -6    2    1    2    0  502  0.15090698330E+02  0.96930720103E+02  0.65008201607E+03  0.67935623125E+03  0.17115772739E+03 0.  0.
        -24    2    5    5    0    0  0.20412607107E+02  0.39141042291E+02  0.58395935717E+03  0.59125251058E+03  0.81377544376E+02 0.  0.
          5    1    3    3  501    0 -0.46253018361E+02 -0.82102956397E+02  0.35889635682E+00  0.94352827002E+02  0.47000000000E+01 0. -1.
        -11    1    4    4    0    0 -0.75166560254E+01 -0.63351114909E+00  0.79890673317E+02  0.80246003871E+02  0.00000000000E+00 0.  1.
         12    1    4    4    0    0  0.38678976056E+02 -0.14194252557E+02  0.25083937967E+01  0.41277500335E+02  0.00000000000E+00 0. -1.
         -5    1    5    5    0  502 -0.53219087773E+01  0.57789677812E+02  0.66122658902E+02  0.88103720665E+02  0.47000000000E+01 0.  1.
         11    1    6    6    0    0  0.18355542272E+02  0.19577619736E+02  0.48482521224E+02  0.55414474561E+02  0.00000000000E+00 0. -1.
        -12    1    6    6    0    0  0.20570648346E+01  0.19563422556E+02  0.53547683594E+03  0.53583803602E+03  0.00000000000E+00 0.  1.
<mgrwt>
<rscale>  2 0.19885467E+03</rscale>
<asrwt>0</asrwt>
<pdfrwt beam="1">  1       21 0.12523634E+00 0.19938332E+03</pdfrwt>
<pdfrwt beam="2">  1       21 0.12491738E-01 0.19938332E+03</pdfrwt>
<totfact> 0.25819305E+04</totfact>
</mgrwt>
</event>
<event>
12    1  0.1074575E-001  0.2317536E+03  0.7546771E-02  0.1125815E+00
         21   -1    0    0  501  502  0.00000000000E+00  0.00000000000E+00  0.29256943503E+03  0.29256943503E+03  0.00000000000E+00 0.  1.
         21   -1    0    0  502  503 -0.00000000000E+00 -0.00000000000E+00 -0.26587375534E+03  0.26587375534E+03  0.00000000000E+00 0. -1.
         -6    2    1    2    0  503 -0.35824911353E+02  0.14759966163E+03 -0.14374732711E+03  0.27076186408E+03  0.17198723383E+03 0.  0.
        -24    2    3    3    0    0  0.16516667616E+02  0.37383194880E+02 -0.11230716577E+03  0.14467505201E+03  0.81533230170E+02 0.  0.
          6    2    1    2  501    0  0.35824911353E+02 -0.14759966163E+03  0.17044300681E+03  0.28768132630E+03  0.17504468728E+03 0.  0.
         24    2    5    5    0    0  0.52515232415E+02 -0.16565695176E+03  0.10646304654E+03  0.21897792129E+03  0.80105395782E+02 0.  0.
          5    1    5    5  501    0 -0.16690321063E+02  0.18057290130E+02  0.63979960262E+02  0.68703405004E+02  0.47000000000E+01 0. -1.
        -13    1    6    6    0    0  0.39429878761E+02 -0.10336473894E+03  0.10895889060E+03  0.15527725022E+03  0.00000000000E+00 0.  1.
         14    1    6    6    0    0  0.13085353654E+02 -0.62292212816E+02 -0.24958440528E+01  0.63700671075E+02  0.00000000000E+00 0. -1.
         -5    1    3    3    0  503 -0.52341578969E+02  0.11021646675E+03 -0.31440161338E+02  0.12608681206E+03  0.47000000000E+01 0.  1.
         11    1    4    4    0    0  0.16818099538E+02  0.61951871494E+02 -0.94862379856E+02  0.11454149451E+03  0.00000000000E+00 0. -1.
        -12    1    4    4    0    0 -0.30143192160E+00 -0.24568676614E+02 -0.17444785919E+02  0.30133557499E+02  0.00000000000E+00 0.  1.
<mgrwt>
<rscale>  2 0.23117630E+03</rscale>
<asrwt>0</asrwt>
<pdfrwt beam="1">  1       21 0.45010682E-01 0.23175359E+03</pdfrwt>
<pdfrwt beam="2">  1       21 0.40903655E-01 0.23175359E+03</pdfrwt>
<totfact> 0.26704822E+04</totfact>
</mgrwt>
</event>
<event>
12    1  0.1074575E-001  0.2136502E+03  0.7546771E-02  0.1138806E+00
         21   -1    0    0  501  502  0.00000000000E+00  0.00000000000E+00  0.11952061817E+03  0.11952061817E+03  0.00000000000E+00 0.  1.
         21   -1    0    0  502  503 -0.00000000000E+00 -0.00000000000E+00 -0.40788488842E+03  0.40788488842E+03  0.00000000000E+00 0. -1.
         -6    2    1    2    0  503 -0.73190607915E+02  0.10048713774E+03 -0.21203658087E+03  0.30100816255E+03  0.17375808573E+03 0.  0.
        -24    2    3    3    0    0 -0.54100530843E+02  0.64401351395E+02 -0.22959381819E+03  0.25632078624E+03  0.76893579775E+02 0.  0.
          6    2    1    2  501    0  0.73190607915E+02 -0.10048713774E+03 -0.76327689377E+02  0.22639734405E+03  0.17313379591E+03 0.  0.
         24    2    5    5    0    0  0.98689913119E+02 -0.10554351467E+03 -0.97340716392E+02  0.19264206568E+03  0.82198649379E+02 0.  0.
          5    1    5    5  501    0 -0.25499305204E+02  0.50563769302E+01  0.21013027015E+02  0.33755278371E+02  0.47000000000E+01 0. -1.
        -13    1    6    6    0    0  0.64383460582E+02 -0.44541701669E+02 -0.73406295298E+01  0.78632550677E+02  0.00000000000E+00 0.  1.
         14    1    6    6    0    0  0.34306452538E+02 -0.61001812999E+02 -0.90000086862E+02  0.11400951500E+03  0.00000000000E+00 0. -1.
         -5    1    3    3    0  503 -0.19090077072E+02  0.36085786343E+02  0.17557237320E+02  0.44687376304E+02  0.47000000000E+01 0.  1.
         11    1    4    4    0    0  0.16097516445E+02  0.11084682270E+02 -0.82953166372E+02  0.85224574084E+02  0.00000000000E+00 0. -1.
        -12    1    4    4    0    0 -0.70198047288E+02  0.53316669125E+02 -0.14664065182E+03  0.17109621216E+03  0.00000000000E+00 0.  1.
<mgrwt>
<rscale>  2 0.21352322E+03</rscale>
<asrwt>0</asrwt>
<pdfrwt beam="1">  1       21 0.18387787E-01 0.21365019E+03</pdfrwt>
<pdfrwt beam="2">  1       21 0.62751521E-01 0.21365019E+03</pdfrwt>
<totfact> 0.62886940E+04</totfact>
</mgrwt>
</event>
<event>
12    1  0.1074575E-001  0.2057659E+03  0.7546771E-02  0.1145293E+00
         21   -1    0    0  501  502  0.00000000000E+00  0.00000000000E+00  0.76178183608E+03  0.76178183608E+03  0.00000000000E+00 0. -1.
         21   -1    0    0  502  503 -0.00000000000E+00 -0.00000000000E+00 -0.61163293528E+02  0.61163293528E+02  0.00000000000E+00 0. -1.
         -6    2    1    2    0  503 -0.60680350565E+02  0.92771992363E+02  0.21998765772E+03  0.30012045875E+03  0.17143212272E+03 0.  0.
        -24    2    3    3    0    0  0.68858803709E+00  0.33776722089E+02  0.18962703445E+03  0.20961937596E+03  0.82707493473E+02 0.  0.
          6    2    1    2  501    0  0.60680350565E+02 -0.92771992363E+02  0.48063088484E+03  0.52282467086E+03  0.17335178536E+03 0.  0.
         24    2    5    5    0    0  0.88126320442E+02 -0.57361424655E+02  0.44855112578E+03  0.46752195385E+03  0.79511530586E+02 0.  0.
          5    1    5    5  501    0 -0.27445969877E+02 -0.35410567708E+02  0.32079759055E+02  0.55302717012E+02  0.47000000000E+01 0. -1.
        -11    1    6    6    0    0  0.10054468481E+03 -0.38093417105E+02  0.39261155779E+03  0.40706777983E+03  0.00000000000E+00 0.  1.
         12    1    6    6    0    0 -0.12418364364E+02 -0.19268007550E+02  0.55939567992E+02  0.60454174012E+02  0.00000000000E+00 0. -1.
         -5    1    3    3    0  503 -0.61368938602E+02  0.58995270274E+02  0.30360623265E+02  0.90501082783E+02  0.47000000000E+01 0.  1.
         13    1    4    4    0    0 -0.19458625583E+02  0.23155902852E+02  0.15457708507E+02  0.33967259218E+02  0.00000000000E+00 0. -1.
        -14    1    4    4    0    0  0.20147213620E+02  0.10620819237E+02  0.17416932594E+03  0.17565211675E+03  0.00000000000E+00 0.  1.
<mgrwt>
<rscale>  2 0.20536101E+03</rscale>
<asrwt>0</asrwt>
<pdfrwt beam="1">  1       21 0.11719720E+00 0.20576586E+03</pdfrwt>
<pdfrwt beam="2">  1       21 0.94097380E-02 0.20576586E+03</pdfrwt>
<totfact> 0.50218668E+04</totfact>
</mgrwt>
</event>
<event>
12    1  0.1074575E-001  0.2464585E+03  0.7546771E-02  0.1115594E+00
         21   -1    0    0  503  502  0.00000000000E+00  0.00000000000E+00  0.33172064000E+03  0.33172064000E+03  0.00000000000E+00 0. -1.
         21   -1    0    0  501  503 -0.00000000000E+00 -0.00000000000E+00 -0.24957883168E+03  0.24957883168E+03  0.00000000000E+00 0. -1.
          6    2    1    2  501    0  0.11113120235E+03  0.13547312429E+03 -0.10909237764E+03  0.26935023952E+03  0.17304708357E+03 0.  0.
         24    2    3    3    0    0  0.43918903134E+02  0.37870198744E+01 -0.10175177224E+02  0.91402421893E+02  0.79420758774E+02 0.  0.
         -6    2    1    2    0  502 -0.11113120235E+03 -0.13547312429E+03  0.19123418597E+03  0.31194923216E+03  0.17331675632E+03 0.  0.
        -24    2    5    5    0    0 -0.68872898963E+02 -0.14154814603E+01  0.82090044620E+02  0.13392746552E+03  0.80326277117E+02 0.  0.
          5    1    3    3  501    0  0.67212299213E+02  0.13168610442E+03 -0.98917200413E+02  0.17794781763E+03  0.47000000000E+01 0. -1.
        -11    1    4    4    0    0  0.25179905929E+02  0.27159214499E+02  0.25389036437E+02  0.44902714461E+02  0.00000000000E+00 0.  1.
         12    1    4    4    0    0  0.18738997205E+02 -0.23372194624E+02 -0.35564213662E+02  0.46499707431E+02  0.00000000000E+00 0. -1.
         -5    1    5    5    0  502 -0.42258303384E+02 -0.13405764283E+03  0.10914414135E+03  0.17802176664E+03  0.47000000000E+01 0.  1.
         13    1    6    6    0    0  0.14783165742E+02 -0.14970117725E+02  0.14999036861E+02  0.25838295626E+02  0.00000000000E+00 0. -1.
        -14    1    6    6    0    0 -0.83656064705E+02  0.13554636265E+02  0.67091007759E+02  0.10808916989E+03  0.00000000000E+00 0.  1.
<mgrwt>
<rscale>  2 0.24641113E+03</rscale>
<asrwt>0</asrwt>
<pdfrwt beam="1">  1       21 0.51033945E-01 0.24645854E+03</pdfrwt>
<pdfrwt beam="2">  1       21 0.38396743E-01 0.24645854E+03</pdfrwt>
<totfact> 0.23205779E+04</totfact>
</mgrwt>
</event>
<event>
12    1  0.1074575E-001  0.1785136E+03  0.7546771E-02  0.1169296E+00
         21   -1    0    0  503  502  0.00000000000E+00  0.00000000000E+00  0.12558303043E+03  0.12558303043E+03  0.00000000000E+00 0. -1.
         21   -1    0    0  501  503 -0.00000000000E+00 -0.00000000000E+00 -0.46381039064E+03  0.46381039064E+03  0.00000000000E+00 0. -1.
          6    2    1    2  501    0  0.42668295898E+02  0.32602364074E+01 -0.36761560728E+03  0.40866652381E+03  0.17330862746E+03 0.  0.
         24    2    3    3    0    0  0.63682795519E+02 -0.60129806038E+02 -0.25294421902E+03  0.27588277495E+03  0.66779005394E+02 0.  0.
         -6    2    1    2    0  502 -0.42668295898E+02 -0.32602364074E+01  0.29388247067E+02  0.18072689726E+03  0.17311074407E+03 0.  0.
        -24    2    5    5    0    0  0.37760726073E+02  0.15870954443E+02  0.39966799740E+02  0.97247403879E+02  0.78625395714E+02 0.  0.
          5    1    3    3  501    0 -0.21014499621E+02  0.63390042445E+02 -0.11467138826E+03  0.13278374886E+03  0.47000000000E+01 0. -1.
        -13    1    4    4    0    0  0.41731230288E+02 -0.68467229738E+02 -0.22770259752E+03  0.24140780859E+03  0.00000000000E+00 0.  1.
         14    1    4    4    0    0  0.21951565231E+02  0.83374237000E+01 -0.25241621498E+02  0.34474966365E+02  0.00000000000E+00 0. -1.
         -5    1    5    5    0  502 -0.80429021971E+02 -0.19131190850E+02 -0.10578552673E+02  0.83479493382E+02  0.47000000000E+01 0.  1.
         11    1    6    6    0    0  0.37403442188E+02 -0.25352526061E+02  0.31713596879E+02  0.55204350301E+02  0.00000000000E+00 0. -1.
        -12    1    6    6    0    0  0.35728388495E+00  0.41223480504E+02  0.82532028611E+01  0.42043053578E+02  0.00000000000E+00 0.  1.
<mgrwt>
<rscale>  2 0.17846552E+03</rscale>
<asrwt>0</asrwt>
<pdfrwt beam="1">  1       21 0.19320466E-01 0.17851357E+03</pdfrwt>
<pdfrwt beam="2">  1       21 0.71355445E-01 0.17851357E+03</pdfrwt>
<totfact> 0.44035548E+04</totfact>
</mgrwt>
</event>
<event>
12    1  0.1074575E-001  0.1947142E+03  0.7546771E-02  0.1154607E+00
         21   -1    0    0  503  502  0.00000000000E+00  0.00000000000E+00  0.52033805260E+03  0.52033805260E+03  0.00000000000E+00 0.  1.
         21   -1    0    0  501  503 -0.00000000000E+00 -0.00000000000E+00 -0.73990121307E+02  0.73990121307E+02  0.00000000000E+00 0.  1.
          6    2    1    2  501    0  0.28175483556E+02 -0.75841758636E+02  0.26721560538E+03  0.32974925357E+03  0.17545529416E+03 0.  0.
         24    2    3    3    0    0  0.25035581133E+02 -0.11157755979E+03  0.25604826029E+03  0.29188494231E+03  0.80992442730E+02 0.  0.
         -6    2    1    2    0  502 -0.28175483556E+02  0.75841758636E+02  0.17913232591E+03  0.26457892033E+03  0.17710952733E+03 0.  0.
        -24    2    5    5    0    0 -0.28048693298E+02  0.23563139721E+02  0.19090039547E+03  0.21078628578E+03  0.81522674962E+02 0.  0.
          5    1    3    3  501    0  0.31399024228E+01  0.35735801151E+02  0.11167345090E+02  0.37864311264E+02  0.47000000000E+01 0. -1.
        -11    1    4    4    0    0 -0.66742214283E+01 -0.96078360248E+02  0.13525426936E+03  0.16604009733E+03  0.00000000000E+00 0.  1.
         12    1    4    4    0    0  0.31709802562E+02 -0.15499199540E+02  0.12079399093E+03  0.12584484498E+03  0.00000000000E+00 0. -1.
         -5    1    5    5    0  502 -0.12679025857E+00  0.52278618915E+02 -0.11768069553E+02  0.53792634555E+02  0.47000000000E+01 0.  1.
         13    1    6    6    0    0 -0.34191151763E+02 -0.78894244058E+01  0.28361274291E+02  0.45118064627E+02  0.00000000000E+00 0. -1.
        -14    1    6    6    0    0  0.61424584652E+01  0.31452564127E+02  0.16253912118E+03  0.16566822115E+03  0.00000000000E+00 0.  1.
<mgrwt>
<rscale>  2 0.19433723E+03</rscale>
<asrwt>0</asrwt>
<pdfrwt beam="1">  1       21 0.80052006E-01 0.19471419E+03</pdfrwt>
<pdfrwt beam="2">  1       21 0.11383096E-01 0.19471419E+03</pdfrwt>
<totfact> 0.88479815E+04</totfact>
</mgrwt>
</event>
<event>
12    1  0.1074575E-001  0.2215953E+03  0.7546771E-02  0.1132937E+00
         21   -1    0    0  503  502  0.00000000000E+00  0.00000000000E+00  0.12960522531E+03  0.12960522531E+03  0.00000000000E+00 0. -1.
         21   -1    0    0  501  503 -0.00000000000E+00 -0.00000000000E+00 -0.48265807955E+03  0.48265807955E+03  0.00000000000E+00 0.  1.
          6    2    1    2  501    0 -0.11550244962E+03  0.70454899941E+02 -0.32037371617E+03  0.38954307355E+03  0.17549865910E+03 0.  0.
         24    2    3    3    0    0 -0.58786069807E+01  0.19300247862E+01 -0.69852641469E+02  0.10759282216E+03  0.81599882627E+02 0.  0.
         -6    2    1    2    0  502  0.11550244962E+03 -0.70454899941E+02 -0.32679138069E+02  0.22272023131E+03  0.17387255843E+03 0.  0.
        -24    2    5    5    0    0  0.48378665465E+02 -0.10505470625E+03  0.49868799246E+00  0.14010299861E+03  0.79067154694E+02 0.  0.
          5    1    3    3  501    0 -0.10962384264E+03  0.68524875155E+02 -0.25052107470E+03  0.28195025139E+03  0.47000000000E+01 0. -1.
        -11    1    4    4    0    0 -0.20988436383E+01  0.28419249989E+02 -0.75100750659E+02  0.80325473320E+02  0.00000000000E+00 0.  1.
         12    1    4    4    0    0 -0.37797633424E+01 -0.26489225202E+02  0.52481091901E+01  0.27267348841E+02  0.00000000000E+00 0. -1.
         -5    1    5    5    0  502  0.67123784160E+02  0.34599806312E+02 -0.33177826062E+02  0.82617232700E+02  0.47000000000E+01 0.  1.
         11    1    6    6    0    0  0.58640437335E+02 -0.92088559058E+02  0.23597772742E+02  0.11169538253E+03  0.00000000000E+00 0. -1.
        -12    1    6    6    0    0 -0.10261771870E+02 -0.12966147196E+02 -0.23099084750E+02  0.28407616079E+02  0.00000000000E+00 0.  1.
<mgrwt>
<rscale>  2 0.22127322E+03</rscale>
<asrwt>0</asrwt>
<pdfrwt beam="1">  1       21 0.19939265E-01 0.22159533E+03</pdfrwt>
<pdfrwt beam="2">  1       21 0.74255089E-01 0.22159533E+03</pdfrwt>
<totfact> 0.37182414E+04</totfact>
</mgrwt>
</event>
<event>
12    1  0.1074575E-001  0.1759534E+03  0.7546771E-02  0.1173181E+00
         21   -1    0    0  501  502  0.00000000000E+00  0.00000000000E+00  0.39746347998E+03  0.39746347998E+03  0.00000000000E+00 0.  1.
         21   -1    0    0  502  503 -0.00000000000E+00 -0.00000000000E+00 -0.13076934910E+03  0.13076934910E+03  0.00000000000E+00 0.  1.
         -6    2    1    2    0  503  0.16768823512E+02  0.31376302319E+02  0.30386874295E+03  0.34839522406E+03  0.16666539359E+03 0.  0.
        -24    2    3    3    0    0 -0.52365903282E+02  0.77290679277E+01  0.15495977858E+03  0.18245917671E+03  0.80479139339E+02 0.  0.
          6    2    1    2  501    0 -0.16768823512E+02 -0.31376302319E+02 -0.37174612064E+02  0.17983760502E+03  0.17231931583E+03 0.  0.
         24    2    5    5    0    0  0.55123204797E+02 -0.53509039599E+01 -0.37070525137E+02  0.10323547758E+03  0.78842501967E+02 0.  0.
          5    1    5    5  501    0 -0.71892028309E+02 -0.26025398360E+02 -0.10408692672E+00  0.76602127440E+02  0.47000000000E+01 0. -1.
        -13    1    6    6    0    0  0.33499249057E+02 -0.38264175184E+02 -0.38566750385E+02  0.63825864861E+02  0.00000000000E+00 0.  1.
         14    1    6    6    0    0  0.21623955740E+02  0.32913271224E+02  0.14962252479E+01  0.39409612717E+02  0.00000000000E+00 0. -1.
         -5    1    3    3    0  503  0.69134726794E+02  0.23647234392E+02  0.14890896437E+03  0.16593604736E+03  0.47000000000E+01 0.  1.
         13    1    4    4    0    0  0.16639642751E+02 -0.14383824012E+02  0.52910946645E+02  0.57300439605E+02  0.00000000000E+00 0. -1.
        -14    1    4    4    0    0 -0.69005546032E+02  0.22112891940E+02  0.10204883194E+03  0.12515873710E+03  0.00000000000E+00 0.  1.
<mgrwt>
<rscale>  2 0.17455349E+03</rscale>
<asrwt>0</asrwt>
<pdfrwt beam="1">  1       21 0.61148227E-01 0.17595344E+03</pdfrwt>
<pdfrwt beam="2">  1       21 0.20118362E-01 0.17595344E+03</pdfrwt>
<totfact> 0.57232377E+04</totfact>
</mgrwt>
</event>
<event>
11    1  0.1074575E-001  0.1758584E+03  0.7546771E-02  0.1172066E+00
         21   -1    0    0  501  502  0.00000000000E+00  0.00000000000E+00  0.49435854531E+03  0.49435854531E+03  0.00000000000E+00 0.  1.
         21   -1    0    0  502  503 -0.00000000000E+00 -0.00000000000E+00 -0.69748664718E+02  0.69748664718E+02  0.00000000000E+00 0.  1.
         -6    2    1    2    0  503 -0.19428169013E+02  0.20461707941E+02  0.12044955250E+03  0.21315319571E+03  0.17358011090E+03 0.  0.
        -24    2    3    3    0    0 -0.36393541866E+01 -0.46374821489E+02  0.10962390017E+03  0.14347039232E+03  0.80015529854E+02 0.  0.
          6    2    1    2  501    0  0.19428169013E+02 -0.20461707941E+02  0.30416032809E+03  0.35095401431E+03  0.17279780015E+03 0.  0.
          5    1    5    5  501    0  0.67093451568E+02  0.46046131428E+02  0.18366513301E+03  0.20093966394E+03  0.47000000000E+01 0. -1.
        -11    1    5    5    0    0 -0.20328514331E+02 -0.45197821524E+02  0.94434315567E+02  0.10664863582E+03  0.00000000000E+00 0.  1.
         12    1    5    5    0    0 -0.27336768224E+02 -0.21310017845E+02  0.26060879515E+02  0.43365714552E+02  0.00000000000E+00 0. -1.
         -5    1    3    3    0  503 -0.15788814826E+02  0.66836529430E+02  0.10825652331E+02  0.69682803390E+02  0.47000000000E+01 0.  1.
         13    1    4    4    0    0 -0.15700670179E+02 -0.51388902500E+02  0.11679968899E+03  0.12856709413E+03  0.00000000000E+00 0. -1.
        -14    1    4    4    0    0  0.12061315992E+02  0.50140810111E+01 -0.71757888216E+01  0.14903298194E+02  0.00000000000E+00 0.  1.
<mgrwt>
<rscale>  2 0.17566509E+03</rscale>
<asrwt>0</asrwt>
<pdfrwt beam="1">  1       21 0.76055159E-01 0.17585844E+03</pdfrwt>
<pdfrwt beam="2">  1       21 0.10730564E-01 0.17585844E+03</pdfrwt>
<totfact> 0.11107756E+05</totfact>
</mgrwt>
</event>
<event>
12    1  0.1074575E-001  0.2265920E+03  0.7546771E-02  0.1129185E+00
         21   -1    0    0  503  502  0.00000000000E+00  0.00000000000E+00  0.57716703840E+02  0.57716703840E+02  0.00000000000E+00 0. -1.
         21   -1    0    0  501  503 -0.00000000000E+00 -0.00000000000E+00 -0.98610204110E+03  0.98610204110E+03  0.00000000000E+00 0.  1.
          6    2    1    2  501    0  0.85226046411E+02  0.11860184281E+03 -0.62909650009E+03  0.66842861368E+03  0.17235001903E+03 0.  0.
         24    2    3    3    0    0  0.35019672482E+02  0.14422630749E+03 -0.44322437727E+03  0.47414060784E+03  0.79585565031E+02 0.  0.
         -6    2    1    2    0  502 -0.85226046411E+02 -0.11860184281E+03 -0.29928883717E+03  0.37539013126E+03  0.17324568244E+03 0.  0.
        -24    2    5    5    0    0  0.12581200885E+02 -0.28375124028E+02 -0.17332863149E+03  0.19210024659E+03  0.76787082029E+02 0.  0.
          5    1    3    3  501    0  0.50206373929E+02 -0.25624464681E+02 -0.18587212282E+03  0.19428800584E+03  0.47000000000E+01 0. -1.
        -11    1    4    4    0    0 -0.71897925711E+01  0.40610860853E+02 -0.22667107247E+03  0.23039251340E+03  0.00000000000E+00 0.  1.
         12    1    4    4    0    0  0.42209465053E+02  0.10361544664E+03 -0.21655330480E+03  0.24374809444E+03  0.00000000000E+00 0. -1.
         -5    1    5    5    0  502 -0.97807247296E+02 -0.90226718784E+02 -0.12596020568E+03  0.18328988467E+03  0.47000000000E+01 0.  1.
         13    1    6    6    0    0 -0.19407522312E+01 -0.67728177323E+01  0.69828881811E+01  0.99195920585E+01  0.00000000000E+00 0. -1.
        -14    1    6    6    0    0  0.14521953116E+02 -0.21602306296E+02 -0.18031151967E+03  0.18218065453E+03  0.00000000000E+00 0.  1.
<mgrwt>
<rscale>  2 0.22642081E+03</rscale>
<asrwt>0</asrwt>
<pdfrwt beam="1">  1       21 0.88794933E-02 0.22659202E+03</pdfrwt>
<pdfrwt beam="2">  1       21 0.15170800E+00 0.22659202E+03</pdfrwt>
<totfact> 0.28423647E+04</totfact>
</mgrwt>
</event>
<event>
12    1  0.1074575E-001  0.1860087E+03  0.7546771E-02  0.1162837E+00
         21   -1    0    0  503  502  0.00000000000E+00  0.00000000000E+00  0.12985694309E+03  0.12985694309E+03  0.00000000000E+00 0. -1.
         21   -1    0    0  501  503 -0.00000000000E+00 -0.00000000000E+00 -0.31257262546E+03  0.31257262546E+03  0.00000000000E+00 0.  1.
          6    2    1    2  501    0 -0.89053404986E+01 -0.64707821798E+02 -0.17967920339E+03  0.25639613221E+03  0.17084482196E+03 0.  0.
         24    2    3    3    0    0  0.53722717080E+02 -0.15448508808E+02 -0.13646556177E+03  0.16563125831E+03  0.75406083475E+02 0.  0.
         -6    2    1    2    0  502  0.89053404986E+01  0.64707821798E+02 -0.30364789891E+01  0.18603343634E+03  0.17416317619E+03 0.  0.
        -24    2    5    5    0    0  0.52531401089E+01  0.10696850565E+03  0.23476908434E+02  0.13579048978E+03  0.80112640716E+02 0.  0.
          5    1    3    3  501    0 -0.62628057579E+02 -0.49259312990E+02 -0.43213641624E+02  0.90764873903E+02  0.47000000000E+01 0. -1.
        -11    1    4    4    0    0 -0.91975107762E+01 -0.28201821220E+02 -0.43720213719E+02  0.52833644700E+02  0.00000000000E+00 0.  1.
         12    1    4    4    0    0  0.62920227856E+02  0.12753312412E+02 -0.92745348047E+02  0.11279761361E+03  0.00000000000E+00 0. -1.
         -5    1    5    5    0  502  0.36522003897E+01 -0.42260683849E+02 -0.26513387423E+02  0.50242946566E+02  0.47000000000E+01 0.  1.
         11    1    6    6    0    0  0.39544981020E+02  0.42915226750E+02 -0.30697752102E+01  0.58437537000E+02  0.00000000000E+00 0. -1.
        -12    1    6    6    0    0 -0.34291840911E+02  0.64053278897E+02  0.26546683644E+02  0.77352952775E+02  0.00000000000E+00 0.  1.
<mgrwt>
<rscale>  2 0.18522792E+03</rscale>
<asrwt>0</asrwt>
<pdfrwt beam="1">  1       21 0.19977991E-01 0.18600865E+03</pdfrwt>
<pdfrwt beam="2">  1       21 0.48088096E-01 0.18600865E+03</pdfrwt>
<totfact> 0.95822706E+04</totfact>
</mgrwt>
</event>
<event>
12    1  0.1074575E-001  0.1806850E+03  0.7546771E-02  0.1167320E+00
         21   -1    0    0  501  502  0.00000000000E+00  0.00000000000E+00  0.34083349378E+03  0.34083349378E+03  0.00000000000E+00 0. -1.
         21   -1    0    0  502  503 -0.00000000000E+00 -0.00000000000E+00 -0.12989172809E+03  0.12989172809E+03  0.00000000000E+00 0. -1.
         -6    2    1    2    0  503  0.36328899036E+02 -0.38012313746E+02 -0.15664196298E+02  0.18136268299E+03  0.17286506539E+03 0.  0.
        -24    2    3    3    0    0  0.24574441228E+02 -0.92011795144E+02 -0.71846767598E+01  0.12525471990E+03  0.81037347383E+02 0.  0.
          6    2    1    2  501    0 -0.36328899036E+02  0.38012313746E+02  0.22660596199E+03  0.28936253889E+03  0.17209210326E+03 0.  0.
         24    2    5    5    0    0  0.12122099219E+02 -0.35110272433E+02  0.14207444225E+03  0.16745240941E+03  0.80470402980E+02 0.  0.
          5    1    5    5  501    0 -0.48450998255E+02  0.73122586179E+02  0.84531519734E+02  0.12191012948E+03  0.47000000000E+01 0. -1.
        -11    1    6    6    0    0 -0.34146138892E+02 -0.82703089993E+01  0.55343271386E+02  0.65553295110E+02  0.00000000000E+00 0.  1.
         12    1    6    6    0    0  0.46268238111E+02 -0.26839963434E+02  0.86731170867E+02  0.10189911430E+03  0.00000000000E+00 0. -1.
         -5    1    3    3    0  503  0.11754457808E+02  0.53999481398E+02 -0.84795195380E+01  0.56107963082E+02  0.47000000000E+01 0.  1.
         11    1    4    4    0    0 -0.18816577679E+02 -0.55744044376E+02 -0.27788085718E+02  0.65066425957E+02  0.00000000000E+00 0. -1.
        -12    1    4    4    0    0  0.43391018907E+02 -0.36267750768E+02  0.20603408958E+02  0.60188293947E+02  0.00000000000E+00 0.  1.
<mgrwt>
<rscale>  2 0.18049984E+03</rscale>
<asrwt>0</asrwt>
<pdfrwt beam="1">  1       21 0.52435922E-01 0.18068496E+03</pdfrwt>
<pdfrwt beam="2">  1       21 0.19983343E-01 0.18068496E+03</pdfrwt>
<totfact> 0.80137539E+04</totfact>
</mgrwt>
</event>
<event>
12    1  0.1074575E-001  0.2008133E+03  0.7546771E-02  0.1149134E+00
         21   -1    0    0  503  502  0.00000000000E+00  0.00000000000E+00  0.30050153823E+03  0.30050153823E+03  0.00000000000E+00 0. -1.
         21   -1    0    0  501  503 -0.00000000000E+00 -0.00000000000E+00 -0.13434460980E+03  0.13434460980E+03  0.00000000000E+00 0. -1.
          6    2    1    2  501    0  0.10332229345E+03 -0.27459581792E+02  0.71270637961E+02  0.21308558748E+03  0.16998952556E+03 0.  0.
         24    2    3    3    0    0  0.83889763582E+02  0.41200474559E+02  0.67309015901E+02  0.14146428475E+03  0.82138107485E+02 0.  0.
         -6    2    1    2    0  502 -0.10332229345E+03  0.27459581792E+02  0.94886290469E+02  0.22176056055E+03  0.16954295368E+03 0.  0.
        -24    2    5    5    0    0 -0.39348939715E+02  0.33400060526E+02 -0.12036848538E+02  0.96930568441E+02  0.81158772019E+02 0.  0.
          5    1    3    3  501    0  0.19432529869E+02 -0.68660056351E+02  0.39616220596E+01  0.71621302729E+02  0.47000000000E+01 0. -1.
        -13    1    4    4    0    0 -0.53867645666E+01  0.37668546533E+01 -0.13725214737E+02  0.15218013867E+02  0.00000000000E+00 0.  1.
         14    1    4    4    0    0  0.89276528149E+02  0.37433619906E+02  0.81034230638E+02  0.12624627089E+03  0.00000000000E+00 0. -1.
         -5    1    5    5    0  502 -0.63973353736E+02 -0.59404787343E+01  0.10692313901E+03  0.12482999211E+03  0.47000000000E+01 0.  1.
         11    1    6    6    0    0 -0.52328287350E+02  0.37333056958E+02  0.15598970266E+02  0.66146312612E+02  0.00000000000E+00 0. -1.
        -12    1    6    6    0    0  0.12979347635E+02 -0.39329964320E+01 -0.27635818803E+02  0.30784255828E+02  0.00000000000E+00 0.  1.
<mgrwt>
<rscale>  2 0.20071872E+03</rscale>
<asrwt>0</asrwt>
<pdfrwt beam="1">  1       21 0.46231006E-01 0.20081326E+03</pdfrwt>
<pdfrwt beam="2">  1       21 0.20668401E-01 0.20081326E+03</pdfrwt>
<totfact> 0.96978790E+04</totfact>
</mgrwt>
</event>
<event>
12    1  0.1074575E-001  0.2369717E+03  0.7546771E-02  0.1121954E+00
         21   -1    0    0  503  502  0.00000000000E+00  0.00000000000E+00  0.72516916452E+03  0.72516916452E+03  0.00000000000E+00 0.  1.
         21   -1    0    0  501  503 -0.00000000000E+00 -0.00000000000E+00 -0.96130689944E+02  0.96130689944E+02  0.00000000000E+00 0.  1.
          6    2    1    2  501    0  0.10059969406E+03 -0.12505521715E+03  0.13185210950E+03  0.27052777248E+03  0.17332394849E+03 0.  0.
         24    2    3    3    0    0 -0.46729028260E+00 -0.30876027774E+02  0.94253833642E+02  0.12727982177E+03  0.79767289169E+02 0.  0.
         -6    2    1    2    0  502 -0.10059969406E+03  0.12505521715E+03  0.49718636507E+03  0.55077208199E+03  0.17434591737E+03 0.  0.
        -24    2    5    5    0    0 -0.75166542075E+01 -0.48585635952E+01  0.24743275044E+03  0.25422360238E+03  0.57676410145E+02 0.  0.
          5    1    3    3  501    0  0.10106698434E+03 -0.94179189373E+02  0.37598275862E+02  0.14324795071E+03  0.47000000000E+01 0. -1.
        -13    1    4    4    0    0 -0.41129544238E+01 -0.44995566458E+02  0.16392799702E+02  0.48064969334E+02  0.00000000000E+00 0.  1.
         14    1    4    4    0    0  0.36456641412E+01  0.14119538685E+02  0.77861033940E+02  0.79214852432E+02  0.00000000000E+00 0. -1.
         -5    1    5    5    0  502 -0.93083039851E+02  0.12991378074E+03  0.24975361463E+03  0.29654847960E+03  0.47000000000E+01 0.  1.
         13    1    6    6    0    0 -0.10616818173E+02 -0.81879375702E+01  0.99472122481E+01  0.16694495538E+02  0.00000000000E+00 0. -1.
        -14    1    6    6    0    0  0.31001639657E+01  0.33293739750E+01  0.23748553819E+03  0.23752910685E+03  0.00000000000E+00 0.  1.
<mgrwt>
<rscale>  2 0.23678380E+03</rscale>
<asrwt>0</asrwt>
<pdfrwt beam="1">  1       21 0.11156448E+00 0.23697174E+03</pdfrwt>
<pdfrwt beam="2">  1       21 0.14789337E-01 0.23697174E+03</pdfrwt>
<totfact> 0.24774189E+04</totfact>
</mgrwt>
</event>
<event>
12    1  0.1074575E-001  0.2055300E+03  0.7546771E-02  0.1145160E+00
         21   -1    0    0  501  502  0.00000000000E+00  0.00000000000E+00  0.38356614157E+03  0.38356614157E+03  0.00000000000E+00 0.  1.
         21   -1    0    0  502  503 -0.00000000000E+00 -0.00000000000E+00 -0.51125890444E+03  0.51125890444E+03  0.00000000000E+00 0. -1.
         -6    2    1    2    0  503  0.10649871903E+03  0.28059362878E+02 -0.46015715066E+03  0.50397141705E+03  0.17353178642E+03 0.  0.
        -24    2    3    3    0    0  0.12227867354E+03  0.68628214219E+02 -0.34809353232E+03  0.38365856146E+03  0.79767654805E+02 0.  0.
          6    2    1    2  501    0 -0.10649871903E+03 -0.28059362878E+02  0.33246438780E+03  0.39085362895E+03  0.17350701747E+03 0.  0.
         24    2    5    5    0    0 -0.73646123159E+02 -0.75921518291E+02  0.15450719974E+03  0.20360798879E+03  0.79974433000E+02 0.  0.
          5    1    5    5  501    0 -0.32852595875E+02  0.47862155413E+02  0.17795718806E+03  0.18724564016E+03  0.47000000000E+01 0. -1.
        -13    1    6    6    0    0 -0.67145882331E+02 -0.77537364092E+02  0.83431419660E+02  0.13221729891E+03  0.00000000000E+00 0.  1.
         14    1    6    6    0    0 -0.65002408277E+01  0.16158458015E+01  0.71075780077E+02  0.71390689883E+02  0.00000000000E+00 0. -1.
         -5    1    3    3    0  503 -0.15779954506E+02 -0.40568851341E+02 -0.11206361835E+03  0.12031285559E+03  0.47000000000E+01 0.  1.
         11    1    4    4    0    0  0.29057416854E+02  0.61014268776E+02 -0.15574613310E+03  0.16977612448E+03  0.00000000000E+00 0. -1.
        -12    1    4    4    0    0  0.93221256686E+02  0.76139454425E+01 -0.19234739922E+03  0.21388243698E+03  0.00000000000E+00 0.  1.
<mgrwt>
<rscale>  2 0.20552478E+03</rscale>
<asrwt>0</asrwt>
<pdfrwt beam="1">  1       21 0.59010175E-01 0.20553001E+03</pdfrwt>
<pdfrwt beam="2">  1       21 0.78655217E-01 0.20553001E+03</pdfrwt>
<totfact> 0.37973719E+03</totfact>
</mgrwt>
</event>
<event>
12    1  0.1074575E-001  0.1983183E+03  0.7546771E-02  0.1153391E+00
         21   -1    0    0  501  502  0.00000000000E+00  0.00000000000E+00  0.25319950282E+02  0.25319950282E+02  0.00000000000E+00 0. -1.
         21   -1    0    0  502  503 -0.00000000000E+00 -0.00000000000E+00 -0.19918020664E+04  0.19918020664E+04  0.00000000000E+00 0. -1.
         -6    2    1    2    0  503 -0.73774985740E+02 -0.16472160726E+02 -0.14778009479E+04  0.14897327739E+04  0.17231951607E+03 0.  0.
        -24    2    3    3    0    0 -0.83147560324E+02  0.86161773766E+00 -0.57242578697E+03  0.58413099776E+03  0.81384776156E+02 0.  0.
          6    2    1    2  501    0  0.73774985740E+02  0.16472160726E+02 -0.48868116823E+03  0.52738924273E+03  0.18334679861E+03 0.  0.
         24    2    5    5    0    0 -0.28737740152E+02 -0.24942801943E+02 -0.21824617225E+03  0.23518856656E+03  0.78957387621E+02 0.  0.
          5    1    5    5  501    0  0.10251272589E+03  0.41414962669E+02 -0.27043499599E+03  0.29220067617E+03  0.47000000000E+01 0. -1.
        -13    1    6    6    0    0 -0.12881642734E+01  0.12596350117E+02 -0.65031248551E+00  0.12678734550E+02  0.00000000000E+00 0.  1.
         14    1    6    6    0    0 -0.27449575878E+02 -0.37539152061E+02 -0.21759585976E+03  0.22250983201E+03  0.00000000000E+00 0. -1.
         -5    1    3    3    0  503  0.93725745845E+01 -0.17333778463E+02 -0.90537516091E+03  0.90560177618E+03  0.47000000000E+01 0.  1.
         13    1    4    4    0    0 -0.28170278099E+02  0.21368952026E+02 -0.40836126824E+03  0.40988915828E+03  0.00000000000E+00 0. -1.
        -14    1    4    4    0    0 -0.54977282225E+02 -0.20507334288E+02 -0.16406451872E+03  0.17424183948E+03  0.00000000000E+00 0.  1.
<mgrwt>
<rscale>  2 0.19573110E+03</rscale>
<asrwt>0</asrwt>
<pdfrwt beam="1">  1       21 0.38953765E-02 0.19831825E+03</pdfrwt>
<pdfrwt beam="2">  1       21 0.30643112E+00 0.19831825E+03</pdfrwt>
<totfact> 0.12763979E+04</totfact>
</mgrwt>
</event>
<event>
12    1  0.1074575E-001  0.1827624E+03  0.7546771E-02  0.1166064E+00
         21   -1    0    0  501  502  0.00000000000E+00  0.00000000000E+00  0.19865654111E+04  0.19865654111E+04  0.00000000000E+00 0.  1.
         21   -1    0    0  502  503 -0.00000000000E+00 -0.00000000000E+00 -0.47780162971E+02  0.47780162971E+02  0.00000000000E+00 0.  1.
         -6    2    1    2    0  503  0.91069121340E+01 -0.44000050631E+02  0.14247331683E+03  0.22876017467E+03  0.17324442618E+03 0.  0.
        -24    2    3    3    0    0 -0.60857764954E+02 -0.20964910450E+02  0.70680425683E+02  0.12579424369E+03  0.81763525763E+02 0.  0.
          6    2    1    2  501    0 -0.91069121340E+01  0.44000050631E+02  0.17963119313E+04  0.18055853994E+04  0.17715287100E+03 0.  0.
         24    2    5    5    0    0 -0.71877877986E+02  0.33143669544E+01  0.10814170642E+04  0.10867722944E+04  0.80210589209E+02 0.  0.
          5    1    5    5  501    0  0.62770965852E+02  0.40685683676E+02  0.71489486708E+03  0.71881310505E+03  0.47000000000E+01 0. -1.
        -13    1    6    6    0    0 -0.26047601229E+02 -0.37320747741E+02  0.53526383700E+03  0.53719520748E+03  0.00000000000E+00 0.  1.
         14    1    6    6    0    0 -0.45830276757E+02  0.40635114695E+02  0.54615322724E+03  0.54957708690E+03  0.00000000000E+00 0. -1.
         -5    1    3    3    0  503  0.69964677088E+02 -0.23035140180E+02  0.71792891143E+02  0.10296593098E+03  0.47000000000E+01 0.  1.
         11    1    4    4    0    0 -0.45013516062E+02  0.27028977341E+02  0.27246120123E+02  0.59153472477E+02  0.00000000000E+00 0. -1.
        -12    1    4    4    0    0 -0.15844248893E+02 -0.47993887791E+02  0.43434305559E+02  0.66640771212E+02  0.00000000000E+00 0.  1.
<mgrwt>
<rscale>  2 0.18180844E+03</rscale>
<asrwt>0</asrwt>
<pdfrwt beam="1">  1       21 0.30562538E+00 0.18276236E+03</pdfrwt>
<pdfrwt beam="2">  1       21 0.73507959E-02 0.18276236E+03</pdfrwt>
<totfact> 0.44572562E+03</totfact>
</mgrwt>
</event>
<event>
12    1  0.1074575E-001  0.1958391E+03  0.7546771E-02  0.1153508E+00
         21   -1    0    0  503  502  0.00000000000E+00  0.00000000000E+00  0.16547268123E+03  0.16547268123E+03  0.00000000000E+00 0.  1.
         21   -1    0    0  501  503 -0.00000000000E+00 -0.00000000000E+00 -0.38922451804E+03  0.38922451804E+03  0.00000000000E+00 0.  1.
          6    2    1    2  501    0  0.90968287106E+02  0.14232600101E+02 -0.28874755423E+03  0.34835431661E+03  0.17174918824E+03 0.  0.
         24    2    3    3    0    0  0.83278955356E+02  0.23786109431E+02 -0.77665277003E+02  0.13686386027E+03  0.72101716963E+02 0.  0.
         -6    2    1    2    0  502 -0.90968287106E+02 -0.14232600101E+02  0.64995717417E+02  0.20634288266E+03  0.17284428187E+03 0.  0.
        -24    2    5    5    0    0 -0.46642653595E+02  0.15467382888E+02 -0.27324040277E+02  0.99610139621E+02  0.82224082059E+02 0.  0.
          5    1    3    3  501    0  0.76893317498E+01 -0.95535093301E+01 -0.21108227723E+03  0.21149045634E+03  0.47000000000E+01 0. -1.
        -13    1    4    4    0    0  0.44319902869E+02 -0.20678686371E+01 -0.78419286218E+02  0.90100578921E+02  0.00000000000E+00 0.  1.
         14    1    4    4    0    0  0.38959052487E+02  0.25853978068E+02  0.75400921460E+00  0.46763281349E+02  0.00000000000E+00 0. -1.
         -5    1    5    5    0  502 -0.44325633511E+02 -0.29699982990E+02  0.92319757694E+02  0.10673274304E+03  0.47000000000E+01 0.  1.
         11    1    6    6    0    0  0.26236060280E+01  0.25797370533E+02 -0.40029058109E+02  0.47693952741E+02  0.00000000000E+00 0. -1.
        -12    1    6    6    0    0 -0.49266259623E+02 -0.10329987645E+02  0.12705017831E+02  0.51916186880E+02  0.00000000000E+00 0.  1.
<mgrwt>
<rscale>  2 0.19559717E+03</rscale>
<asrwt>0</asrwt>
<pdfrwt beam="1">  1       21 0.25457336E-01 0.19583907E+03</pdfrwt>
<pdfrwt beam="2">  1       21 0.59880695E-01 0.19583907E+03</pdfrwt>
<totfact> 0.38011915E+04</totfact>
</mgrwt>
</event>
<event>
12    1  0.1074575E-001  0.1839130E+03  0.7546771E-02  0.1164111E+00
         21   -1    0    0  503  502  0.00000000000E+00  0.00000000000E+00  0.89842917387E+02  0.89842917387E+02  0.00000000000E+00 0. -1.
         21   -1    0    0  501  503 -0.00000000000E+00 -0.00000000000E+00 -0.65054467594E+03  0.65054467594E+03  0.00000000000E+00 0. -1.
          6    2    1    2  501    0  0.59755333018E+02  0.11144174231E+02 -0.39828777937E+02  0.18799946768E+03  0.17338562759E+03 0.  0.
         24    2    3    3    0    0  0.36520487530E+02  0.73971783471E+02 -0.10897326327E+02  0.11488117025E+03  0.79204550356E+02 0.  0.
         -6    2    1    2    0  502 -0.59755333018E+02 -0.11144174231E+02 -0.52087298062E+03  0.55238812565E+03  0.17357732275E+03 0.  0.
        -24    2    5    5    0    0 -0.71726518038E+02  0.37793104135E+02 -0.24477697762E+03  0.27169388032E+03  0.85608315732E+02 0.  0.
          5    1    3    3  501    0  0.23234845488E+02 -0.62827609240E+02 -0.28931451610E+02  0.73118297436E+02  0.47000000000E+01 0. -1.
        -13    1    4    4    0    0  0.49600950559E+01 -0.13318148493E+02  0.12753478864E+02  0.19095204775E+02  0.00000000000E+00 0.  1.
         14    1    4    4    0    0  0.31560392474E+02  0.87289931964E+02 -0.23650805191E+02  0.95785965473E+02  0.00000000000E+00 0. -1.
         -5    1    5    5    0  502  0.11971185021E+02 -0.48937278367E+02 -0.27609600300E+03  0.28069424532E+03  0.47000000000E+01 0.  1.
         11    1    6    6    0    0 -0.15607600425E+02 -0.13388108113E+01  0.18311786567E+01  0.15771582695E+02  0.00000000000E+00 0. -1.
        -12    1    6    6    0    0 -0.56118917613E+02  0.39131914947E+02 -0.24660815628E+03  0.25592229763E+03  0.00000000000E+00 0.  1.
<mgrwt>
<rscale>  2 0.18386772E+03</rscale>
<asrwt>0</asrwt>
<pdfrwt beam="1">  1       21 0.13821988E-01 0.18391297E+03</pdfrwt>
<pdfrwt beam="2">  1       21 0.10008379E+00 0.18391297E+03</pdfrwt>
<totfact> 0.37459183E+04</totfact>
</mgrwt>
</event>
<event>
12    1  0.1074575E-001  0.2051072E+03  0.7546771E-02  0.1145799E+00
         21   -1    0    0  503  502  0.00000000000E+00  0.00000000000E+00  0.21826030468E+03  0.21826030468E+03  0.00000000000E+00 0. -1.
         21   -1    0    0  501  503 -0.00000000000E+00 -0.00000000000E+00 -0.75715107430E+03  0.75715107430E+03  0.00000000000E+00 0.  1.
          6    2    1    2  501    0 -0.40626116644E+02  0.10281037028E+03 -0.69127421199E+03  0.72106103201E+03  0.17276724842E+03 0.  0.
         24    2    3    3    0    0 -0.88031963008E+02  0.64983221216E+02 -0.40005499574E+03  0.42355652887E+03  0.85928388664E+02 0.  0.
         -6    2    1    2    0  502  0.40626116644E+02 -0.10281037028E+03  0.15238344238E+03  0.25435034697E+03  0.17103488504E+03 0.  0.
        -24    2    5    5    0    0 -0.60155544703E+00  0.12489199824E+02  0.79750867962E+02  0.11190283847E+03  0.77496466595E+02 0.  0.
          5    1    3    3  501    0  0.47405846364E+02  0.37827149068E+02 -0.29121921625E+03  0.29750450314E+03  0.47000000000E+01 0. -1.
        -13    1    4    4    0    0 -0.21780979136E+02  0.39463541891E+02 -0.28365092024E+03  0.28721007424E+03  0.00000000000E+00 0.  1.
         14    1    4    4    0    0 -0.66250983872E+02  0.25519679325E+02 -0.11640407550E+03  0.13634645463E+03  0.00000000000E+00 0. -1.
         -5    1    5    5    0  502  0.41227672091E+02 -0.11529957011E+03  0.72632574417E+02  0.14244750851E+03  0.47000000000E+01 0.  1.
         11    1    6    6    0    0 -0.28863912339E+02  0.10818826041E+02  0.77613445297E+02  0.83510594079E+02  0.00000000000E+00 0. -1.
        -12    1    6    6    0    0  0.28262356892E+02  0.16703737829E+01  0.21374226647E+01  0.28392244387E+02  0.00000000000E+00 0.  1.
<mgrwt>
<rscale>  2 0.20474199E+03</rscale>
<asrwt>0</asrwt>
<pdfrwt beam="1">  1       21 0.33578508E-01 0.20510723E+03</pdfrwt>
<pdfrwt beam="2">  1       21 0.11648478E+00 0.20510723E+03</pdfrwt>
<totfact> 0.48054533E+03</totfact>
</mgrwt>
</event>
<event>
12    1  0.1074575E-001  0.2214072E+03  0.7546771E-02  0.1133170E+00
         21   -1    0    0  501  502  0.00000000000E+00  0.00000000000E+00  0.17284383527E+04  0.17284383527E+04  0.00000000000E+00 0. -1.
         21   -1    0    0  502  503 -0.00000000000E+00 -0.00000000000E+00 -0.45320081633E+02  0.45320081633E+02  0.00000000000E+00 0. -1.
         -6    2    1    2    0  503 -0.29857282662E+01  0.13838203902E+03  0.29751924197E+03  0.37086228729E+03  0.17280808284E+03 0.  0.
        -24    2    3    3    0    0 -0.14094568673E+02  0.16093277000E+03  0.29132265141E+03  0.34454823140E+03  0.88014676105E+02 0.  0.
          6    2    1    2  501    0  0.29857282662E+01 -0.13838203902E+03  0.13855990291E+04  0.14028961471E+04  0.17051224780E+03 0.  0.
         24    2    5    5    0    0  0.49793659319E+01 -0.73283061969E+02  0.12163670579E+04  0.12215031994E+04  0.84415905891E+02 0.  0.
          5    1    5    5  501    0 -0.19936376656E+01 -0.65098977055E+02  0.16923197119E+03  0.18139294771E+03  0.47000000000E+01 0. -1.
        -13    1    6    6    0    0  0.42916919556E+02 -0.54304017658E+02  0.79409410952E+03  0.79710491347E+03  0.00000000000E+00 0.  1.
         14    1    6    6    0    0 -0.37937553624E+02 -0.18979044311E+02  0.42227294843E+03  0.42439828590E+03  0.00000000000E+00 0. -1.
         -5    1    3    3    0  503  0.11108840406E+02 -0.22550730977E+02  0.61965905553E+01  0.26314055888E+02  0.47000000000E+01 0.  1.
         11    1    4    4    0    0  0.13027518790E+02  0.39748407253E+02  0.20437142725E+02  0.46554580094E+02  0.00000000000E+00 0. -1.
        -12    1    4    4    0    0 -0.27122087463E+02  0.12118436275E+03  0.27088550869E+03  0.29799365131E+03  0.00000000000E+00 0.  1.
<mgrwt>
<rscale>  2 0.22095901E+03</rscale>
<asrwt>0</asrwt>
<pdfrwt beam="1">  1       21 0.26591354E+00 0.22140717E+03</pdfrwt>
<pdfrwt beam="2">  1       21 0.69723216E-02 0.22140717E+03</pdfrwt>
<totfact> 0.79520692E+03</totfact>
</mgrwt>
</event>
<event>
12    1  0.1074575E-001  0.2549148E+03  0.7546771E-02  0.1112065E+00
         21   -1    0    0  501  502  0.00000000000E+00  0.00000000000E+00  0.83491081802E+02  0.83491081802E+02  0.00000000000E+00 0.  1.
         21   -1    0    0  502  503 -0.00000000000E+00 -0.00000000000E+00 -0.98641456764E+03  0.98641456764E+03  0.00000000000E+00 0.  1.
         -6    2    1    2    0  503 -0.11529013412E+03 -0.12246902123E+03 -0.17807856310E+03  0.30154262853E+03  0.17585649263E+03 0.  0.
        -24    2    3    3    0    0 -0.72956749239E+02 -0.55892630132E+02 -0.18788853124E+03  0.22190057431E+03  0.74101898379E+02 0.  0.
          6    2    1    2  501    0  0.11529013412E+03  0.12246902123E+03 -0.72484492274E+03  0.76836302091E+03  0.19154919394E+03 0.  0.
         24    2    5    5    0    0  0.89941362835E+02  0.15330834153E+03 -0.44926171980E+03  0.48986380076E+03  0.80855142616E+02 0.  0.
          5    1    5    5  501    0  0.25348771282E+02 -0.30839320302E+02 -0.27558320294E+03  0.27849922015E+03  0.47000000000E+01 0. -1.
        -13    1    6    6    0    0  0.36371059669E+02  0.76716261648E+01 -0.12454748923E+03  0.12997609359E+03  0.00000000000E+00 0.  1.
         14    1    6    6    0    0  0.53570303166E+02  0.14563671537E+03 -0.32471423057E+03  0.35988770718E+03  0.00000000000E+00 0. -1.
         -5    1    3    3    0  503 -0.42333384878E+02 -0.66576391096E+02  0.98099681380E+01  0.79642054227E+02  0.47000000000E+01 0.  1.
         13    1    4    4    0    0 -0.78276393643E+02 -0.67914212486E+02 -0.17563471404E+03  0.20392912209E+03  0.00000000000E+00 0. -1.
        -14    1    4    4    0    0  0.53196444033E+01  0.12021582354E+02 -0.12253817197E+02  0.17971452216E+02  0.00000000000E+00 0.  1.
<mgrwt>
<rscale>  2 0.25197137E+03</rscale>
<asrwt>0</asrwt>
<pdfrwt beam="1">  1       21 0.12844781E-01 0.25491483E+03</pdfrwt>
<pdfrwt beam="2">  1       21 0.15175609E+00 0.25491483E+03</pdfrwt>
<totfact> 0.14468083E+04</totfact>
</mgrwt>
</event>
<event>
12    1  0.1074575E-001  0.2299575E+03  0.7546771E-02  0.1127810E+00
         21   -1    0    0  503  502  0.00000000000E+00  0.00000000000E+00  0.61504309828E+03  0.61504309828E+03  0.00000000000E+00 0. -1.
         21   -1    0    0  501  503 -0.00000000000E+00 -0.00000000000E+00 -0.20621660505E+03  0.20621660505E+03  0.00000000000E+00 0. -1.
          6    2    1    2  501    0 -0.10970005899E+03 -0.10320240989E+03 -0.11336551827E+03  0.25067670400E+03  0.16523386107E+03 0.  0.
         24    2    3    3    0    0 -0.11262789280E+03 -0.10156607059E+03 -0.36745669700E+02  0.17383959700E+03  0.76611045619E+02 0.  0.
         -6    2    1    2    0  502  0.10970005899E+03  0.10320240989E+03  0.52219201150E+03  0.57058299933E+03  0.17376887497E+03 0.  0.
        -24    2    5    5    0    0  0.11156237904E+03  0.13789107984E+03  0.43425029008E+03  0.47591194555E+03  0.80366355929E+02 0.  0.
          5    1    3    3  501    0  0.29278338059E+01 -0.16363392946E+01 -0.76619848572E+02  0.76837107001E+02  0.47000000000E+01 0. -1.
        -13    1    4    4    0    0 -0.51471181580E+02 -0.73121029159E+02  0.12550912599E+02  0.90296693437E+02  0.00000000000E+00 0.  1.
         14    1    4    4    0    0 -0.61156711217E+02 -0.28445041434E+02 -0.49296582298E+02  0.83542903561E+02  0.00000000000E+00 0. -1.
         -5    1    5    5    0  502 -0.18623200472E+01 -0.34688669953E+02  0.87941721416E+02  0.94671053784E+02  0.47000000000E+01 0.  1.
         11    1    6    6    0    0  0.22862367966E+02  0.56587177942E+02  0.23809457107E+03  0.24579223207E+03  0.00000000000E+00 0. -1.
        -12    1    6    6    0    0  0.88700011073E+02  0.81303901900E+02  0.19615571901E+03  0.23011971348E+03  0.00000000000E+00 0.  1.
<mgrwt>
<rscale>  2 0.22834575E+03</rscale>
<asrwt>0</asrwt>
<pdfrwt beam="1">  1       21 0.94622014E-01 0.22995752E+03</pdfrwt>
<pdfrwt beam="2">  1       21 0.31725632E-01 0.22995752E+03</pdfrwt>
<totfact> 0.87077235E+03</totfact>
</mgrwt>
</event>
<event>
12    1  0.1074575E-001  0.2200447E+03  0.7546771E-02  0.1134253E+00
         21   -1    0    0  501  502  0.00000000000E+00  0.00000000000E+00  0.14132043558E+03  0.14132043558E+03  0.00000000000E+00 0. -1.
         21   -1    0    0  502  503 -0.00000000000E+00 -0.00000000000E+00 -0.64670863003E+03  0.64670863003E+03  0.00000000000E+00 0. -1.
         -6    2    1    2    0  503  0.57998174532E+02 -0.12399197333E+03 -0.52370443780E+03  0.56722341215E+03  0.16952363677E+03 0.  0.
        -24    2    3    3    0    0  0.90305226697E+02 -0.11670667838E+03 -0.32633291064E+03  0.36703742144E+03  0.80298302756E+02 0.  0.
          6    2    1    2  501    0 -0.57998174532E+02  0.12399197333E+03  0.18316243357E+02  0.22080565346E+03  0.17228422485E+03 0.  0.
         24    2    5    5    0    0 -0.94726143640E+02  0.95773704428E+02  0.13926661137E+02  0.17404484887E+03  0.10932526139E+03 0.  0.
          5    1    5    5  501    0  0.36727969109E+02  0.28218268899E+02  0.43895822196E+01  0.46760804597E+02  0.47000000000E+01 0. -1.
        -13    1    6    6    0    0 -0.27862336066E+02 -0.16144818651E+01 -0.36206779516E+02  0.45714846666E+02  0.00000000000E+00 0.  1.
         14    1    6    6    0    0 -0.66863807574E+02  0.97388186293E+02  0.50133440653E+02  0.12833000220E+03  0.00000000000E+00 0. -1.
         -5    1    3    3    0  503 -0.32307052166E+02 -0.72852949466E+01 -0.19737152716E+03  0.20018599071E+03  0.47000000000E+01 0.  1.
         11    1    4    4    0    0  0.20749768790E+02 -0.45146728810E+02 -0.19980989974E+03  0.20589506079E+03  0.00000000000E+00 0. -1.
        -12    1    4    4    0    0  0.69555457908E+02 -0.71559949571E+02 -0.12652301091E+03  0.16114236065E+03  0.00000000000E+00 0.  1.
<mgrwt>
<rscale>  2 0.21950401E+03</rscale>
<asrwt>0</asrwt>
<pdfrwt beam="1">  1       21 0.21741605E-01 0.22004466E+03</pdfrwt>
<pdfrwt beam="2">  1       21 0.99493636E-01 0.22004466E+03</pdfrwt>
<totfact> 0.16120697E+04</totfact>
</mgrwt>
</event>
<event>
11    1  0.1074575E-001  0.1755185E+03  0.7546771E-02  0.1173109E+00
         21   -1    0    0  503  502  0.00000000000E+00  0.00000000000E+00  0.71977396649E+03  0.71977396649E+03  0.00000000000E+00 0.  1.
         21   -1    0    0  501  503 -0.00000000000E+00 -0.00000000000E+00 -0.54700389663E+02  0.54700389663E+02  0.00000000000E+00 0.  1.
          6    2    1    2  501    0 -0.29793545411E+01 -0.16197231804E+02  0.14811330662E+03  0.22966127557E+03  0.17474416450E+03 0.  0.
         24    2    3    3    0    0 -0.67794921528E+02 -0.27587023360E+02  0.90181983040E+02  0.14186085799E+03  0.81452548897E+02 0.  0.
         -6    2    1    2    0  502  0.29793545411E+01  0.16197231804E+02  0.51696027021E+03  0.54481308058E+03  0.17117869297E+03 0.  0.
          5    1    3    3  501    0  0.64815566987E+02  0.11389791556E+02  0.57931323575E+02  0.87800417577E+02  0.47000000000E+01 0. -1.
        -13    1    4    4    0    0 -0.41978050532E+02 -0.50409316124E+02  0.29173646645E+02  0.71793854453E+02  0.00000000000E+00 0.  1.
         14    1    4    4    0    0 -0.25816870995E+02  0.22822292764E+02  0.61008336396E+02  0.70067003538E+02  0.00000000000E+00 0. -1.
         -5    1    5    5    0  502  0.36107301517E+02 -0.91396281435E+01  0.21633819262E+03  0.21957134060E+03  0.47000000000E+01 0.  1.
         11    1    5    5    0    0  0.14817913276E+02 -0.38974220665E+02  0.13359615484E+03  0.13995175247E+03  0.00000000000E+00 0. -1.
        -12    1    5    5    0    0 -0.47945860252E+02  0.64311080613E+02  0.16702592274E+03  0.18528998752E+03  0.00000000000E+00 0.  1.
<mgrwt>
<rscale>  2 0.17462435E+03</rscale>
<asrwt>0</asrwt>
<pdfrwt beam="1">  1       21 0.11073445E+00 0.17551852E+03</pdfrwt>
<pdfrwt beam="2">  1       21 0.84154451E-02 0.17551852E+03</pdfrwt>
<totfact> 0.71175827E+04</totfact>
</mgrwt>
</event>
<event>
12    1  0.1074575E-001  0.1961952E+03  0.7546771E-02  0.1153026E+00
         21   -1    0    0  503  502  0.00000000000E+00  0.00000000000E+00  0.37950576347E+03  0.37950576347E+03  0.00000000000E+00 0.  1.
         21   -1    0    0  501  503 -0.00000000000E+00 -0.00000000000E+00 -0.14945319210E+03  0.14945319210E+03  0.00000000000E+00 0.  1.
          6    2    1    2  501    0  0.40097667028E+02 -0.83541172920E+02 -0.35066563986E+02  0.19913975865E+03  0.17274266726E+03 0.  0.
         24    2    3    3    0    0  0.66675867698E+02 -0.93371250685E+02 -0.67887773381E+02  0.15552378720E+03  0.80093924995E+02 0.  0.
         -6    2    1    2    0  502 -0.40097667028E+02  0.83541172920E+02  0.26511913536E+03  0.32981919692E+03  0.17293234589E+03 0.  0.
        -24    2    5    5    0    0  0.94113796073E+01  0.88918683567E+02  0.25041358044E+03  0.27768085532E+03  0.80028681041E+02 0.  0.
          5    1    3    3  501    0 -0.26578200670E+02  0.98300777653E+01  0.32821209395E+02  0.43615971454E+02  0.47000000000E+01 0. -1.
        -13    1    4    4    0    0  0.14748545134E+02 -0.53231052397E+02 -0.70833778594E+02  0.89824766700E+02  0.00000000000E+00 0.  1.
         14    1    4    4    0    0  0.51927322564E+02 -0.40140198288E+02  0.29460052127E+01  0.65699020495E+02  0.00000000000E+00 0. -1.
         -5    1    5    5    0  502 -0.49509046636E+02 -0.53775106468E+01  0.14705554910E+02  0.52138341599E+02  0.47000000000E+01 0.  1.
         11    1    6    6    0    0  0.31045456065E+02  0.41929168163E+02  0.56145808109E+02  0.76643507575E+02  0.00000000000E+00 0. -1.
        -12    1    6    6    0    0 -0.21634076457E+02  0.46989515403E+02  0.19426777234E+03  0.20103734775E+03  0.00000000000E+00 0.  1.
<mgrwt>
<rscale>  2 0.19615337E+03</rscale>
<asrwt>0</asrwt>
<pdfrwt beam="1">  1       21 0.58385502E-01 0.19619518E+03</pdfrwt>
<pdfrwt beam="2">  1       21 0.22992799E-01 0.19619518E+03</pdfrwt>
<totfact> 0.48702467E+04</totfact>
</mgrwt>
</event>
<event>
12    1  0.1074575E-001  0.2159536E+03  0.7546771E-02  0.1138157E+00
         21   -1    0    0  503  502  0.00000000000E+00  0.00000000000E+00  0.89612441760E+02  0.89612441760E+02  0.00000000000E+00 0.  1.
         21   -1    0    0  501  503 -0.00000000000E+00 -0.00000000000E+00 -0.69345936388E+03  0.69345936388E+03  0.00000000000E+00 0.  1.
          6    2    1    2  501    0  0.11786491925E+03  0.43491423162E+01 -0.50257081943E+03  0.54454967913E+03  0.17333744624E+03 0.  0.
         24    2    3    3    0    0  0.13228193030E+03  0.46865148571E+02 -0.42013414913E+03  0.45056374611E+03  0.82462929900E+02 0.  0.
         -6    2    1    2    0  502 -0.11786491925E+03 -0.43491423162E+01 -0.10127610269E+03  0.23852212651E+03  0.18090025326E+03 0.  0.
        -24    2    5    5    0    0 -0.80863836501E+02  0.77901779265E+01 -0.14169626173E+03  0.18219875234E+03  0.80739753777E+02 0.  0.
          5    1    3    3  501    0 -0.14417011052E+02 -0.42516006255E+02 -0.82436670299E+02  0.93985933019E+02  0.47000000000E+01 0. -1.
        -13    1    4    4    0    0  0.76714698559E+02 -0.14609477461E+02 -0.23749116974E+03  0.25000127502E+03  0.00000000000E+00 0.  1.
         14    1    4    4    0    0  0.55567231740E+02  0.61474626032E+02 -0.18264297940E+03  0.20056247109E+03  0.00000000000E+00 0. -1.
         -5    1    5    5    0  502 -0.37001082746E+02 -0.12139320243E+02  0.40420159045E+02  0.56323374167E+02  0.47000000000E+01 0.  1.
         11    1    6    6    0    0 -0.21139850166E+02 -0.18398261421E+02 -0.10216554134E+03  0.10593954468E+03  0.00000000000E+00 0. -1.
        -12    1    6    6    0    0 -0.59723986335E+02  0.26188439348E+02 -0.39530720391E+02  0.76259207666E+02  0.00000000000E+00 0.  1.
<mgrwt>
<rscale>  2 0.21436247E+03</rscale>
<asrwt>0</asrwt>
<pdfrwt beam="1">  1       21 0.13786530E-01 0.21595360E+03</pdfrwt>
<pdfrwt beam="2">  1       21 0.10668605E+00 0.21595360E+03</pdfrwt>
<totfact> 0.31730491E+04</totfact>
</mgrwt>
</event>
<event>
12    1  0.1074575E-001  0.1898357E+03  0.7546771E-02  0.1158645E+00
         21   -1    0    0  501  502  0.00000000000E+00  0.00000000000E+00  0.19748810219E+03  0.19748810219E+03  0.00000000000E+00 0.  1.
         21   -1    0    0  502  503 -0.00000000000E+00 -0.00000000000E+00 -0.20088921895E+03  0.20088921895E+03  0.00000000000E+00 0.  1.
         -6    2    1    2    0  503  0.42904714297E+02 -0.64903247041E+02  0.58846080280E+02  0.19859666982E+03  0.17298708077E+03 0.  0.
        -24    2    3    3    0    0  0.84974444104E+02 -0.72383212075E+02  0.16125623612E+02  0.13799188898E+03  0.79509371429E+02 0.  0.
          6    2    1    2  501    0 -0.42904714297E+02  0.64903247041E+02 -0.62247197039E+02  0.19978065133E+03  0.17315989467E+03 0.  0.
         24    2    5    5    0    0  0.14397853831E+02  0.94625494835E+02 -0.37373446844E+02  0.13044242395E+03  0.80356511674E+02 0.  0.
          5    1    5    5  501    0 -0.57302568129E+02 -0.29722247794E+02 -0.24873750195E+02  0.69338227385E+02  0.47000000000E+01 0. -1.
        -11    1    6    6    0    0 -0.16312794569E+02 -0.32388392784E+01 -0.20655943570E+02  0.26519150652E+02  0.00000000000E+00 0.  1.
         12    1    6    6    0    0  0.30710648400E+02  0.97864334113E+02 -0.16717503274E+02  0.10392327329E+03  0.00000000000E+00 0. -1.
         -5    1    3    3    0  503 -0.42069729806E+02  0.74799650343E+01  0.42720456669E+02  0.60604780842E+02  0.47000000000E+01 0.  1.
         11    1    4    4    0    0 -0.12099922424E+02 -0.12570542270E+02 -0.11210564513E+02  0.20738934696E+02  0.00000000000E+00 0. -1.
        -12    1    4    4    0    0  0.97074366528E+02 -0.59812669805E+02  0.27336188125E+02  0.11725295428E+03  0.00000000000E+00 0.  1.
<mgrwt>
<rscale>  2 0.18979629E+03</rscale>
<asrwt>0</asrwt>
<pdfrwt beam="1">  1       21 0.30382785E-01 0.18983571E+03</pdfrwt>
<pdfrwt beam="2">  1       21 0.30906034E-01 0.18983571E+03</pdfrwt>
<totfact> 0.10464033E+05</totfact>
</mgrwt>
</event>
<event>
12    1  0.1074575E-001  0.1852038E+03  0.7546771E-02  0.1163058E+00
         21   -1    0    0  503  502  0.00000000000E+00  0.00000000000E+00  0.23491385150E+03  0.23491385150E+03  0.00000000000E+00 0.  1.
         21   -1    0    0  501  503 -0.00000000000E+00 -0.00000000000E+00 -0.14804253495E+03  0.14804253495E+03  0.00000000000E+00 0.  1.
          6    2    1    2  501    0 -0.61078805539E+02 -0.24379383816E+02  0.69383961421E+02  0.19777406175E+03  0.17313425587E+03 0.  0.
         24    2    3    3    0    0  0.79312795615E+01  0.21775112752E+02  0.77626900338E+02  0.11421171711E+03  0.80506645305E+02 0.  0.
         -6    2    1    2    0  502  0.61078805539E+02  0.24379383816E+02  0.17487355136E+02  0.18518232471E+03  0.17222575578E+03 0.  0.
        -24    2    5    5    0    0  0.93541971017E+02 -0.62050482842E+00 -0.23979757570E+02  0.12669760036E+03  0.82016875073E+02 0.  0.
          5    1    3    3  501    0 -0.69010085100E+02 -0.46154496568E+02 -0.82429389171E+01  0.83562344635E+02  0.47000000000E+01 0. -1.
        -11    1    4    4    0    0 -0.24097818316E+02  0.39387480388E+02  0.34265728971E+02  0.57499727311E+02  0.00000000000E+00 0.  1.
         12    1    4    4    0    0  0.32029097878E+02 -0.17612367637E+02  0.43361171367E+02  0.56711989799E+02  0.00000000000E+00 0. -1.
         -5    1    5    5    0  502 -0.32463165479E+02  0.24999888644E+02  0.41467112707E+02  0.58484724342E+02  0.47000000000E+01 0.  1.
         13    1    6    6    0    0 -0.64365996198E+01  0.20197383487E+02  0.20860708288E+01  0.21300605764E+02  0.00000000000E+00 0. -1.
        -14    1    6    6    0    0  0.99978570637E+02 -0.20817888316E+02 -0.26065828399E+02  0.10539699460E+03  0.00000000000E+00 0.  1.
<mgrwt>
<rscale>  2 0.18499118E+03</rscale>
<asrwt>0</asrwt>
<pdfrwt beam="1">  1       21 0.36140592E-01 0.18520379E+03</pdfrwt>
<pdfrwt beam="2">  1       21 0.22775775E-01 0.18520379E+03</pdfrwt>
<totfact> 0.13382546E+05</totfact>
</mgrwt>
</event>
<event>
12    1  0.1074575E-001  0.1893694E+03  0.7546771E-02  0.1159056E+00
         21   -1    0    0  503  502  0.00000000000E+00  0.00000000000E+00  0.21215971711E+03  0.21215971711E+03  0.00000000000E+00 0.  1.
         21   -1    0    0  501  503 -0.00000000000E+00 -0.00000000000E+00 -0.43692033740E+03  0.43692033740E+03  0.00000000000E+00 0. -1.
          6    2    1    2  501    0 -0.73889751570E+02  0.24931596787E+02 -0.36656543450E+03  0.41259059435E+03  0.17256738068E+03 0.  0.
         24    2    3    3    0    0  0.27304751166E+02  0.13796195320E+02 -0.18005171200E+03  0.20004934370E+03  0.81640899541E+02 0.  0.
         -6    2    1    2    0  502  0.73889751570E+02 -0.24931596787E+02  0.14180481421E+03  0.23648946016E+03  0.17244529431E+03 0.  0.
        -24    2    5    5    0    0  0.11037842144E+03  0.10778381585E+02  0.94022700474E+02  0.16640489712E+03  0.80936716943E+02 0.  0.
          5    1    3    3  501    0 -0.10119450274E+03  0.11135401467E+02 -0.18651372250E+03  0.21254125065E+03  0.47000000000E+01 0. -1.
        -11    1    4    4    0    0  0.37018779185E+02  0.93124632766E+01 -0.18454039692E+03  0.18844699542E+03  0.00000000000E+00 0.  1.
         12    1    4    4    0    0 -0.97140280188E+01  0.44837320434E+01  0.44886849201E+01  0.11602348284E+02  0.00000000000E+00 0. -1.
         -5    1    5    5    0  502 -0.36488669874E+02 -0.35709978372E+02  0.47782113733E+02  0.70084563046E+02  0.47000000000E+01 0.  1.
         13    1    6    6    0    0  0.19240802538E+02 -0.21765335215E+01 -0.14432267522E+02  0.24150282117E+02  0.00000000000E+00 0. -1.
        -14    1    6    6    0    0  0.91137618905E+02  0.12954915107E+02  0.10845496800E+03  0.14225461500E+03  0.00000000000E+00 0.  1.
<mgrwt>
<rscale>  2 0.18934161E+03</rscale>
<asrwt>0</asrwt>
<pdfrwt beam="1">  1       21 0.32639957E-01 0.18936943E+03</pdfrwt>
<pdfrwt beam="2">  1       21 0.67218513E-01 0.18936943E+03</pdfrwt>
<totfact> 0.18334864E+04</totfact>
</mgrwt>
</event>
<event>
12    1  0.1074575E-001  0.2379898E+03  0.7546771E-02  0.1121151E+00
         21   -1    0    0  503  502  0.00000000000E+00  0.00000000000E+00  0.48046043073E+03  0.48046043073E+03  0.00000000000E+00 0. -1.
         21   -1    0    0  501  503 -0.00000000000E+00 -0.00000000000E+00 -0.16971313335E+03  0.16971313335E+03  0.00000000000E+00 0. -1.
          6    2    1    2  501    0 -0.54114612456E+02 -0.15384622251E+03 -0.24318028237E+02  0.23922900882E+03  0.17332657240E+03 0.  0.
         24    2    3    3    0    0 -0.32586656206E+02 -0.16345909283E+03  0.22716619272E+02  0.18640658704E+03  0.80315662931E+02 0.  0.
         -6    2    1    2    0  502  0.54114612456E+02  0.15384622251E+03  0.33506532562E+03  0.41094455525E+03  0.17323280174E+03 0.  0.
        -24    2    5    5    0    0 -0.11072843188E+02  0.14897770110E+03  0.21102651360E+03  0.27065619593E+03  0.80035140245E+02 0.  0.
          5    1    3    3  501    0 -0.21527956250E+02  0.96128703140E+01 -0.47034647510E+02  0.52822421776E+02  0.47000000000E+01 0. -1.
        -13    1    4    4    0    0 -0.96338561650E+00 -0.35586292059E+01 -0.18021980362E+02  0.18395209427E+02  0.00000000000E+00 0.  1.
         14    1    4    4    0    0 -0.31623270589E+02 -0.15990046362E+03  0.40738599635E+02  0.16801137762E+03  0.00000000000E+00 0. -1.
         -5    1    5    5    0  502  0.65187455644E+02  0.48685214141E+01  0.12403881202E+03  0.14028835932E+03  0.47000000000E+01 0.  1.
         13    1    6    6    0    0  0.17456228985E+02  0.88532321044E+02  0.16934082888E+03  0.19188279789E+03  0.00000000000E+00 0. -1.
        -14    1    6    6    0    0 -0.28529072173E+02  0.60445380054E+02  0.41685684720E+02  0.78773398044E+02  0.00000000000E+00 0.  1.
<mgrwt>
<rscale>  2 0.23797274E+03</rscale>
<asrwt>0</asrwt>
<pdfrwt beam="1">  1       21 0.73916989E-01 0.23798982E+03</pdfrwt>
<pdfrwt beam="2">  1       21 0.26109713E-01 0.23798982E+03</pdfrwt>
<totfact> 0.22325394E+04</totfact>
</mgrwt>
</event>
<event>
12    1  0.1074575E-001  0.1749234E+03  0.7546771E-02  0.1172983E+00
         21   -1    0    0  501  502  0.00000000000E+00  0.00000000000E+00  0.58311964868E+02  0.58311964868E+02  0.00000000000E+00 0. -1.
         21   -1    0    0  502  503 -0.00000000000E+00 -0.00000000000E+00 -0.54827641988E+03  0.54827641988E+03  0.00000000000E+00 0. -1.
         -6    2    1    2    0  503 -0.21333385470E+02  0.72107641480E+01 -0.31007641897E+03  0.35567423529E+03  0.17277056345E+03 0.  0.
        -24    2    3    3    0    0 -0.45436092563E+02 -0.17598751863E+02 -0.79840206361E+02  0.12280677048E+03  0.79579455568E+02 0.  0.
          6    2    1    2  501    0  0.21333385470E+02 -0.72107641480E+01 -0.17988803604E+03  0.25091414945E+03  0.17346785417E+03 0.  0.
         24    2    5    5    0    0  0.74539369759E+02  0.19599068607E+02 -0.13956317069E+03  0.17881818103E+03  0.80980381092E+02 0.  0.
          5    1    5    5  501    0 -0.53205984289E+02 -0.26809832755E+02 -0.40324865351E+02  0.72095968417E+02  0.47000000000E+01 0. -1.
        -13    1    6    6    0    0  0.17028030793E+02 -0.30672570736E+02 -0.50422873886E+02  0.61426595536E+02  0.00000000000E+00 0.  1.
         14    1    6    6    0    0  0.57511338966E+02  0.50271639343E+02 -0.89140296801E+02  0.11739158550E+03  0.00000000000E+00 0. -1.
         -5    1    3    3    0  503  0.24102707093E+02  0.24809516011E+02 -0.23023621261E+03  0.23286746482E+03  0.47000000000E+01 0.  1.
         11    1    4    4    0    0 -0.11559514002E+02 -0.45036218456E+02 -0.57106127431E+02  0.73640974511E+02  0.00000000000E+00 0. -1.
        -12    1    4    4    0    0 -0.33876578560E+02  0.27437466594E+02 -0.22734078931E+02  0.49165795965E+02  0.00000000000E+00 0.  1.
<mgrwt>
<rscale>  2 0.17475030E+03</rscale>
<asrwt>0</asrwt>
<pdfrwt beam="1">  1       21 0.89710712E-02 0.17492343E+03</pdfrwt>
<pdfrwt beam="2">  1       21 0.84350221E-01 0.17492343E+03</pdfrwt>
<totfact> 0.12059814E+05</totfact>
</mgrwt>
</event>
<event>
12    1  0.1074575E-001  0.2108521E+03  0.7546771E-02  0.1141047E+00
         21   -1    0    0  503  502  0.00000000000E+00  0.00000000000E+00  0.25066048654E+03  0.25066048654E+03  0.00000000000E+00 0. -1.
         21   -1    0    0  501  503 -0.00000000000E+00 -0.00000000000E+00 -0.20191025518E+03  0.20191025518E+03  0.00000000000E+00 0. -1.
          6    2    1    2  501    0 -0.42329221781E+02  0.11275279906E+03 -0.55605704521E+02  0.21730756416E+03  0.17212096431E+03 0.  0.
         24    2    3    3    0    0  0.17072201054E+02  0.11860671217E+03 -0.61818633357E+02  0.15711215057E+03  0.80645348310E+02 0.  0.
         -6    2    1    2    0  502  0.42329221781E+02 -0.11275279906E+03  0.10435593588E+03  0.23526317755E+03  0.17307121264E+03 0.  0.
        -24    2    5    5    0    0  0.40240452198E+02 -0.14894751497E+03  0.88611697835E+02  0.19545876260E+03  0.80916244814E+02 0.  0.
          5    1    3    3  501    0 -0.59401422835E+02 -0.58539131158E+01  0.62129288367E+01  0.60195413599E+02  0.47000000000E+01 0. -1.
        -11    1    4    4    0    0  0.36103950293E+02  0.57072894728E+02  0.43421730274E+00  0.67535169238E+02  0.00000000000E+00 0.  1.
         12    1    4    4    0    0 -0.19031749239E+02  0.61533817445E+02 -0.62252850660E+02  0.89576981328E+02  0.00000000000E+00 0. -1.
         -5    1    5    5    0  502  0.20887695822E+01  0.36194715909E+02  0.15744238044E+02  0.39804414952E+02  0.47000000000E+01 0.  1.
         13    1    6    6    0    0  0.23902242757E+02 -0.71002113331E+02 -0.18445007414E+01  0.74940106013E+02  0.00000000000E+00 0. -1.
        -14    1    6    6    0    0  0.16338209441E+02 -0.77945401636E+02  0.90456198576E+02  0.12051865658E+03  0.00000000000E+00 0.  1.
<mgrwt>
<rscale>  2 0.21065699E+03</rscale>
<asrwt>0</asrwt>
<pdfrwt beam="1">  1       21 0.38563152E-01 0.21085208E+03</pdfrwt>
<pdfrwt beam="2">  1       21 0.31063116E-01 0.21085208E+03</pdfrwt>
<totfact> 0.64025760E+04</totfact>
</mgrwt>
</event>
<event>
12    1  0.1074575E-001  0.2484657E+03  0.7546771E-02  0.1115308E+00
         21   -1    0    0  501  502  0.00000000000E+00  0.00000000000E+00  0.53026986551E+03  0.53026986551E+03  0.00000000000E+00 0.  1.
         21   -1    0    0  502  503 -0.00000000000E+00 -0.00000000000E+00 -0.12393985301E+03  0.12393985301E+03  0.00000000000E+00 0. -1.
         -6    2    1    2    0  503  0.17539947495E+03 -0.31294773629E+02  0.10560460275E+03  0.26411874537E+03  0.16389643334E+03 0.  0.
        -24    2    3    3    0    0  0.12651741199E+03  0.34937637657E+02  0.48384889411E+02  0.16375752786E+03  0.85135987375E+02 0.  0.
          6    2    1    2  501    0 -0.17539947495E+03  0.31294773629E+02  0.30072540974E+03  0.39009097316E+03  0.17317868403E+03 0.  0.
         24    2    5    5    0    0 -0.19255612167E+03  0.42388722441E+02  0.23024930668E+03  0.31656276544E+03  0.91228161527E+02 0.  0.
          5    1    5    5  501    0  0.17156646715E+02 -0.11093948811E+02  0.70476103068E+02  0.73528207719E+02  0.47000000000E+01 0. -1.
        -13    1    6    6    0    0 -0.15853361800E+03  0.10030482792E+02  0.21475298472E+03  0.26711863107E+03  0.00000000000E+00 0.  1.
         14    1    6    6    0    0 -0.34022503666E+02  0.32358239649E+02  0.15496321960E+02  0.49444134366E+02  0.00000000000E+00 0. -1.
         -5    1    3    3    0  503  0.48882062966E+02 -0.66232411287E+02  0.57219713342E+02  0.10036121751E+03  0.47000000000E+01 0.  1.
         11    1    4    4    0    0  0.11121047314E+03  0.34976563026E+02  0.70962609840E+02  0.13648011318E+03  0.00000000000E+00 0. -1.
        -12    1    4    4    0    0  0.15306938843E+02 -0.38925368675E-01 -0.22577720428E+02  0.27277414681E+02  0.00000000000E+00 0.  1.
<mgrwt>
<rscale>  2 0.24685556E+03</rscale>
<asrwt>0</asrwt>
<pdfrwt beam="1">  1       21 0.81579978E-01 0.24846568E+03</pdfrwt>
<pdfrwt beam="2">  1       21 0.19067670E-01 0.24846568E+03</pdfrwt>
<totfact> 0.32277753E+04</totfact>
</mgrwt>
</event>
<event>
12    1  0.1074575E-001  0.2294090E+03  0.7546771E-02  0.1127773E+00
         21   -1    0    0  501  502  0.00000000000E+00  0.00000000000E+00  0.54678778959E+02  0.54678778959E+02  0.00000000000E+00 0. -1.
         21   -1    0    0  502  503 -0.00000000000E+00 -0.00000000000E+00 -0.14355373800E+04  0.14355373800E+04  0.00000000000E+00 0. -1.
         -6    2    1    2    0  503 -0.42745232069E+02  0.13818626223E+03 -0.11216423607E+04  0.11440636881E+04  0.17285120484E+03 0.  0.
        -24    2    3    3    0    0 -0.59702627150E+01  0.14211423098E+01 -0.41283348568E+03  0.42122953852E+03  0.83457615205E+02 0.  0.
          6    2    1    2  501    0  0.42745232069E+02 -0.13818626223E+03 -0.25921624033E+03  0.34615247092E+03  0.17806143866E+03 0.  0.
         24    2    5    5    0    0 -0.32909791981E+02 -0.22227667675E+02 -0.11420423473E+03  0.14560160434E+03  0.81117792990E+02 0.  0.
          5    1    5    5  501    0  0.75655024050E+02 -0.11595859456E+03 -0.14501200561E+03  0.20055086658E+03  0.47000000000E+01 0. -1.
        -13    1    6    6    0    0  0.17944136571E+02  0.16863731181E+02 -0.44622437707E+02  0.50966061389E+02  0.00000000000E+00 0.  1.
         14    1    6    6    0    0 -0.50853928553E+02 -0.39091398857E+02 -0.69581797019E+02  0.94635542954E+02  0.00000000000E+00 0. -1.
         -5    1    3    3    0  503 -0.36774969354E+02  0.13676511992E+03 -0.70880887504E+03  0.72283414954E+03  0.47000000000E+01 0.  1.
         11    1    4    4    0    0  0.14015782608E+02  0.32737447771E+02 -0.99102674966E+02  0.10530680336E+03  0.00000000000E+00 0. -1.
        -12    1    4    4    0    0 -0.19986045323E+02 -0.31316305461E+02 -0.31373081072E+03  0.31592273516E+03  0.00000000000E+00 0.  1.
<mgrwt>
<rscale>  2 0.22839727E+03</rscale>
<asrwt>0</asrwt>
<pdfrwt beam="1">  1       21 0.84121212E-02 0.22940897E+03</pdfrwt>
<pdfrwt beam="2">  1       21 0.22085187E+00 0.22940897E+03</pdfrwt>
<totfact> 0.10599752E+04</totfact>
</mgrwt>
</event>
<event>
12    1  0.1074575E-001  0.1795226E+03  0.7546771E-02  0.1168947E+00
         21   -1    0    0  503  502  0.00000000000E+00  0.00000000000E+00  0.64040984326E+02  0.64040984326E+02  0.00000000000E+00 0.  1.
         21   -1    0    0  501  503 -0.00000000000E+00 -0.00000000000E+00 -0.62811174791E+03  0.62811174791E+03  0.00000000000E+00 0.  1.
          6    2    1    2  501    0 -0.34768436496E+02  0.29440482948E+01 -0.44280169879E+03  0.47780926280E+03  0.17609893690E+03 0.  0.
         24    2    3    3    0    0 -0.32355759911E+02  0.88489021073E+01 -0.99284601396E+02  0.13420080175E+03  0.83828544353E+02 0.  0.
         -6    2    1    2    0  502  0.34768436496E+02 -0.29440482948E+01 -0.12126906480E+03  0.21434346943E+03  0.17326114745E+03 0.  0.
        -24    2    5    5    0    0  0.55517801378E+02 -0.68451445143E+01 -0.15286445240E+03  0.17605361160E+03  0.67069002373E+02 0.  0.
          5    1    3    3  501    0 -0.24126765848E+01 -0.59048538125E+01 -0.34351709739E+03  0.34360846105E+03  0.47000000000E+01 0. -1.
        -11    1    4    4    0    0 -0.36794374656E+02  0.30969939798E+02 -0.10069943743E+03  0.11159453336E+03  0.00000000000E+00 0.  1.
         12    1    4    4    0    0  0.44386147448E+01 -0.22121037691E+02  0.14148360377E+01  0.22606268387E+02  0.00000000000E+00 0. -1.
         -5    1    5    5    0  502 -0.20749364882E+02  0.39010962195E+01  0.31595387600E+02  0.38289857826E+02  0.47000000000E+01 0.  1.
         11    1    6    6    0    0  0.20740144316E+02 -0.34750883955E+02 -0.92862395686E+02  0.10129759155E+03  0.00000000000E+00 0. -1.
        -12    1    6    6    0    0  0.34777657062E+02  0.27905739441E+02 -0.60002056711E+02  0.74756020052E+02  0.00000000000E+00 0.  1.
<mgrwt>
<rscale>  2 0.17882277E+03</rscale>
<asrwt>0</asrwt>
<pdfrwt beam="1">  1       21 0.98524586E-02 0.17952255E+03</pdfrwt>
<pdfrwt beam="2">  1       21 0.96632582E-01 0.17952255E+03</pdfrwt>
<totfact> 0.74579390E+04</totfact>
</mgrwt>
</event>
<event>
12    1  0.1074575E-001  0.1883264E+03  0.7546771E-02  0.1161033E+00
         21   -1    0    0  501  502  0.00000000000E+00  0.00000000000E+00  0.76617725224E+02  0.76617725224E+02  0.00000000000E+00 0.  1.
         21   -1    0    0  502  503 -0.00000000000E+00 -0.00000000000E+00 -0.67727759482E+03  0.67727759482E+03  0.00000000000E+00 0.  1.
         -6    2    1    2    0  503 -0.58477817470E+02  0.13907806256E+02 -0.51537369387E+03  0.54715736226E+03  0.17366073976E+03 0.  0.
        -24    2    3    3    0    0 -0.71814761394E+02 -0.39999792137E+02 -0.43161618289E+03  0.44655262140E+03  0.79745664616E+02 0.  0.
          6    2    1    2  501    0  0.58477817470E+02 -0.13907806256E+02 -0.85286175729E+02  0.20673795778E+03  0.17847624270E+03 0.  0.
         24    2    5    5    0    0  0.58435697373E+02  0.57817834930E+02 -0.46699590351E+02  0.12515619543E+03  0.82009686941E+02 0.  0.
          5    1    5    5  501    0  0.42120097120E-01 -0.71725641185E+02 -0.38586585378E+02  0.81581762353E+02  0.47000000000E+01 0. -1.
        -13    1    6    6    0    0  0.73540895391E+02  0.21533214656E+02 -0.34191499333E+02  0.83910674261E+02  0.00000000000E+00 0.  1.
         14    1    6    6    0    0 -0.15105198018E+02  0.36284620273E+02 -0.12508091018E+02  0.41245521169E+02  0.00000000000E+00 0. -1.
         -5    1    3    3    0  503  0.13336943924E+02  0.53907598392E+02 -0.83757510981E+02  0.10060474086E+03  0.47000000000E+01 0.  1.
         13    1    4    4    0    0  0.10291955512E+02 -0.58484600655E+01 -0.95198676554E+01  0.15190678509E+02  0.00000000000E+00 0. -1.
        -14    1    4    4    0    0 -0.82106716906E+02 -0.34151332071E+02 -0.42209631523E+03  0.43136194289E+03  0.00000000000E+00 0.  1.
<mgrwt>
<rscale>  2 0.18717666E+03</rscale>
<asrwt>0</asrwt>
<pdfrwt beam="1">  1       21 0.11787342E-01 0.18832645E+03</pdfrwt>
<pdfrwt beam="2">  1       21 0.10419656E+00 0.18832645E+03</pdfrwt>
<totfact> 0.45190401E+04</totfact>
</mgrwt>
</event>
<event>
12    1  0.1074575E-001  0.1891260E+03  0.7546771E-02  0.1159953E+00
         21   -1    0    0  501  502  0.00000000000E+00  0.00000000000E+00  0.19811648307E+04  0.19811648307E+04  0.00000000000E+00 0.  1.
         21   -1    0    0  502  503 -0.00000000000E+00 -0.00000000000E+00 -0.19502487860E+02  0.19502487860E+02  0.00000000000E+00 0.  1.
         -6    2    1    2    0  503 -0.39264617205E+02 -0.63779936970E+02  0.68939870176E+03  0.71487006549E+03  0.17366361167E+03 0.  0.
        -24    2    3    3    0    0 -0.87297428107E+01 -0.10511755164E+03  0.55976117374E+03  0.57533814938E+03  0.80966082008E+02 0.  0.
          6    2    1    2  501    0  0.39264617205E+02  0.63779936970E+02  0.12722636411E+04  0.12857972530E+04  0.17032384762E+03 0.  0.
         24    2    5    5    0    0 -0.34144527878E+02  0.53675151386E+02  0.53078972233E+03  0.54061494554E+03  0.80497946238E+02 0.  0.
          5    1    5    5  501    0  0.73409145083E+02  0.10104785584E+02  0.74147391873E+03  0.74518230751E+03  0.47000000000E+01 0. -1.
        -11    1    6    6    0    0 -0.13312988658E+02  0.48882444097E+02  0.50305001387E+03  0.50559474430E+03  0.00000000000E+00 0.  1.
         12    1    6    6    0    0 -0.20831539220E+02  0.47927072887E+01  0.27739708458E+02  0.35020201238E+02  0.00000000000E+00 0. -1.
         -5    1    3    3    0  503 -0.30534874394E+02  0.41337614672E+02  0.12963752802E+03  0.13953191610E+03  0.47000000000E+01 0.  1.
         11    1    4    4    0    0  0.23605616611E+02 -0.51975223524E+01  0.60482352867E+02  0.65133358446E+02  0.00000000000E+00 0. -1.
        -12    1    4    4    0    0 -0.32335359421E+02 -0.99920029289E+02  0.49927882088E+03  0.51020479094E+03  0.00000000000E+00 0.  1.
<mgrwt>
<rscale>  2 0.18835580E+03</rscale>
<asrwt>0</asrwt>
<pdfrwt beam="1">  1       21 0.30479443E+00 0.18912599E+03</pdfrwt>
<pdfrwt beam="2">  1       21 0.30003843E-02 0.18912599E+03</pdfrwt>
<totfact> 0.20337480E+04</totfact>
</mgrwt>
</event>
<event>
12    1  0.1074575E-001  0.1781799E+03  0.7546771E-02  0.1169624E+00
         21   -1    0    0  501  502  0.00000000000E+00  0.00000000000E+00  0.10887706552E+03  0.10887706552E+03  0.00000000000E+00 0. -1.
         21   -1    0    0  502  503 -0.00000000000E+00 -0.00000000000E+00 -0.29312551062E+03  0.29312551062E+03  0.00000000000E+00 0. -1.
         -6    2    1    2    0  503  0.39176016016E+02  0.14575551023E+02 -0.76121162480E+02  0.19358088287E+03  0.17300843886E+03 0.  0.
        -24    2    3    3    0    0  0.84340050841E+02 -0.24394994595E+02 -0.55310958555E+02  0.13022752420E+03  0.78686377389E+02 0.  0.
          6    2    1    2  501    0 -0.39176016016E+02 -0.14575551023E+02 -0.10812728261E+03  0.20842169326E+03  0.17320763857E+03 0.  0.
         24    2    5    5    0    0  0.12487821559E+02 -0.16364492928E+02  0.11689766962E+02  0.77843870507E+02  0.74157098162E+02 0.  0.
          5    1    5    5  501    0 -0.51663837575E+02  0.17889419050E+01 -0.11981704958E+03  0.13057782275E+03  0.47000000000E+01 0. -1.
        -11    1    6    6    0    0  0.11555307050E+02 -0.63039729137E+01 -0.31156225642E+02  0.33822708227E+02  0.00000000000E+00 0.  1.
         12    1    6    6    0    0  0.93251450886E+00 -0.10060520014E+02  0.42845992604E+02  0.44021162280E+02  0.00000000000E+00 0. -1.
         -5    1    3    3    0  503 -0.45164034825E+02  0.38970545619E+02 -0.20810203925E+02  0.63353358671E+02  0.47000000000E+01 0.  1.
         13    1    4    4    0    0  0.82572049779E+02  0.10240236405E+02 -0.38157671957E+02  0.91536953060E+02  0.00000000000E+00 0. -1.
        -14    1    4    4    0    0  0.17680010618E+01 -0.34635231001E+02 -0.17153286598E+02  0.38690571143E+02  0.00000000000E+00 0.  1.
<mgrwt>
<rscale>  2 0.17813152E+03</rscale>
<asrwt>0</asrwt>
<pdfrwt beam="1">  1       21 0.16750318E-01 0.17817995E+03</pdfrwt>
<pdfrwt beam="2">  1       21 0.45096232E-01 0.17817995E+03</pdfrwt>
<totfact> 0.15195241E+05</totfact>
</mgrwt>
</event>
<event>
12    1  0.1074575E-001  0.2639975E+03  0.7546771E-02  0.1104771E+00
         21   -1    0    0  501  502  0.00000000000E+00  0.00000000000E+00  0.37003182449E+04  0.37003182449E+04  0.00000000000E+00 0.  1.
         21   -1    0    0  502  503 -0.00000000000E+00 -0.00000000000E+00 -0.23616728143E+02  0.23616728143E+02  0.00000000000E+00 0. -1.
         -6    2    1    2    0  503 -0.17810047708E+02 -0.19863284851E+03  0.10001331843E+04  0.10343787472E+04  0.17291847785E+03 0.  0.
        -24    2    3    3    0    0  0.60918889212E+01 -0.21312153145E+03  0.94974230836E+03  0.97656391444E+03  0.78795484745E+02 0.  0.
          6    2    1    2  501    0  0.17810047708E+02  0.19863284851E+03  0.26765683325E+04  0.26895562259E+04  0.17298106092E+03 0.  0.
         24    2    5    5    0    0 -0.20984868886E+02  0.17899164970E+03  0.24971132684E+04  0.25048482611E+04  0.78814721522E+02 0.  0.
          5    1    5    5  501    0  0.38794916594E+02  0.19641198818E+02  0.17945506403E+03  0.18470796477E+03  0.47000000000E+01 0. -1.
        -11    1    6    6    0    0 -0.43501253345E+02  0.52565851416E+02  0.83937048169E+03  0.84213914130E+03  0.00000000000E+00 0.  1.
         12    1    6    6    0    0  0.22516384459E+02  0.12642579828E+03  0.16577427868E+04  0.16627091198E+04  0.00000000000E+00 0. -1.
         -5    1    3    3    0  503 -0.23901936630E+02  0.14488682936E+02  0.50390875967E+02  0.57814832773E+02  0.47000000000E+01 0.  1.
         11    1    4    4    0    0 -0.16085688065E+02 -0.14565911352E+03  0.49250576376E+03  0.51384555466E+03  0.00000000000E+00 0. -1.
        -12    1    4    4    0    0  0.22177576986E+02 -0.67462417931E+02  0.45723654460E+03  0.46271835978E+03  0.00000000000E+00 0.  1.
<mgrwt>
<rscale>  2 0.26398720E+03</rscale>
<asrwt>0</asrwt>
<pdfrwt beam="1">  1       21 0.56927927E+00 0.26399745E+03</pdfrwt>
<pdfrwt beam="2">  1       21 0.36333457E-02 0.26399745E+03</pdfrwt>
<totfact> 0.24460368E+02</totfact>
</mgrwt>
</event>
<event>
12    1  0.1074575E-001  0.1819052E+03  0.7546771E-02  0.1166663E+00
         21   -1    0    0  503  502  0.00000000000E+00  0.00000000000E+00  0.42535080958E+03  0.42535080958E+03  0.00000000000E+00 0. -1.
         21   -1    0    0  501  503 -0.00000000000E+00 -0.00000000000E+00 -0.95713763592E+02  0.95713763592E+02  0.00000000000E+00 0. -1.
          6    2    1    2  501    0 -0.51609508130E+02 -0.29745092155E+02  0.49355944727E+02  0.18848208039E+03  0.17187545931E+03 0.  0.
         24    2    3    3    0    0 -0.59028311456E+02 -0.34541460058E+01 -0.29552699597E+02  0.10484646214E+03  0.81382712481E+02 0.  0.
         -6    2    1    2    0  502  0.51609508130E+02  0.29745092155E+02  0.28028110126E+03  0.33258249278E+03  0.16883514724E+03 0.  0.
        -24    2    5    5    0    0  0.53351093379E+02  0.58808311357E+02  0.10266466397E+03  0.15253418641E+03  0.80136684154E+02 0.  0.
          5    1    3    3  501    0  0.74188033259E+01 -0.26290946150E+02  0.78908644324E+02  0.83635618257E+02  0.47000000000E+01 0. -1.
        -11    1    4    4    0    0 -0.65432055289E+01 -0.26443206265E+01 -0.48522113501E+02  0.49032657166E+02  0.00000000000E+00 0.  1.
         12    1    4    4    0    0 -0.52485105927E+02 -0.80982537927E+00  0.18969413904E+02  0.55813804969E+02  0.00000000000E+00 0. -1.
         -5    1    5    5    0  502 -0.17415852496E+01 -0.29063219202E+02  0.17761643729E+03  0.18004830637E+03  0.47000000000E+01 0.  1.
         11    1    6    6    0    0 -0.28131399651E+01  0.55211609168E+01  0.67013761255E+02  0.67299637235E+02  0.00000000000E+00 0. -1.
        -12    1    6    6    0    0  0.56164233345E+02  0.53287150441E+02  0.35650902714E+02  0.85234549178E+02  0.00000000000E+00 0.  1.
<mgrwt>
<rscale>  2 0.18118339E+03</rscale>
<asrwt>0</asrwt>
<pdfrwt beam="1">  1       21 0.65438585E-01 0.18190515E+03</pdfrwt>
<pdfrwt beam="2">  1       21 0.14725195E-01 0.18190515E+03</pdfrwt>
<totfact> 0.87514751E+04</totfact>
</mgrwt>
</event>
<event>
12    1  0.1074575E-001  0.1837514E+03  0.7546771E-02  0.1164841E+00
         21   -1    0    0  501  502  0.00000000000E+00  0.00000000000E+00  0.16758831241E+03  0.16758831241E+03  0.00000000000E+00 0.  1.
         21   -1    0    0  502  503 -0.00000000000E+00 -0.00000000000E+00 -0.14040521930E+04  0.14040521930E+04  0.00000000000E+00 0.  1.
         -6    2    1    2    0  503  0.41172945064E+02  0.13504227334E+02 -0.13469762388E+04  0.13594519357E+04  0.17856931992E+03 0.  0.
        -24    2    3    3    0    0  0.42420212116E+02  0.76767948341E+02 -0.95898685477E+03  0.96630856975E+03  0.80022947055E+02 0.  0.
          6    2    1    2  501    0 -0.41172945064E+02 -0.13504227334E+02  0.11051235813E+03  0.21218856978E+03  0.17587902741E+03 0.  0.
         24    2    5    5    0    0  0.12155635034E+02 -0.54991394551E+02  0.10077823140E+03  0.14376367868E+03  0.85673394035E+02 0.  0.
          5    1    5    5  501    0 -0.53328580098E+02  0.41487167216E+02  0.97341267349E+01  0.68424891101E+02  0.47000000000E+01 0. -1.
        -13    1    6    6    0    0  0.64969065338E+01 -0.69929033867E+02  0.39791022008E+02  0.80719297597E+02  0.00000000000E+00 0.  1.
         14    1    6    6    0    0  0.56587285004E+01  0.14937639316E+02  0.60987209391E+02  0.63044381081E+02  0.00000000000E+00 0. -1.
         -5    1    3    3    0  503 -0.12472670513E+01 -0.63263721006E+02 -0.38798938399E+03  0.39314336591E+03  0.47000000000E+01 0.  1.
         11    1    4    4    0    0  0.45586437345E+02  0.11364518111E+02 -0.25572527273E+03  0.26000517428E+03  0.00000000000E+00 0. -1.
        -12    1    4    4    0    0 -0.31662252297E+01  0.65403430229E+02 -0.70326158204E+03  0.70630339547E+03  0.00000000000E+00 0.  1.
<mgrwt>
<rscale>  2 0.18309456E+03</rscale>
<asrwt>0</asrwt>
<pdfrwt beam="1">  1       21 0.25782817E-01 0.18375140E+03</pdfrwt>
<pdfrwt beam="2">  1       21 0.21600804E+00 0.18375140E+03</pdfrwt>
<totfact> 0.15355993E+03</totfact>
</mgrwt>
</event>
<event>
12    1  0.1074575E-001  0.1808117E+03  0.7546771E-02  0.1168671E+00
         21   -1    0    0  501  502  0.00000000000E+00  0.00000000000E+00  0.26194531117E+03  0.26194531117E+03  0.00000000000E+00 0. -1.
         21   -1    0    0  502  503 -0.00000000000E+00 -0.00000000000E+00 -0.20931435783E+03  0.20931435783E+03  0.00000000000E+00 0. -1.
         -6    2    1    2    0  503 -0.49133532463E+02 -0.13264922563E+02 -0.12769431875E+03  0.21589705633E+03  0.16648014208E+03 0.  0.
        -24    2    3    3    0    0 -0.61427900124E+01 -0.45369051623E+02 -0.19973063516E+02  0.95461024058E+02  0.81349856384E+02 0.  0.
          6    2    1    2  501    0  0.49133532463E+02  0.13264922563E+02  0.18032527210E+03  0.25536261266E+03  0.17350157926E+03 0.  0.
         24    2    5    5    0    0  0.39313695378E+02 -0.21883823410E+02  0.20018888244E+03  0.21354734560E+03  0.59181177667E+02 0.  0.
          5    1    5    5  501    0  0.98198370846E+01  0.35148745973E+02 -0.19863610340E+02  0.41815267063E+02  0.47000000000E+01 0. -1.
        -11    1    6    6    0    0 -0.14122907613E+02  0.33883959563E+01  0.28871253233E+02  0.32318524252E+02  0.00000000000E+00 0.  1.
         12    1    6    6    0    0  0.53436602991E+02 -0.25272219366E+02  0.17131762920E+03  0.18122882135E+03  0.00000000000E+00 0. -1.
         -5    1    3    3    0  503 -0.42990742450E+02  0.32104129060E+02 -0.10772125524E+03  0.12043603227E+03  0.47000000000E+01 0.  1.
         13    1    4    4    0    0 -0.16701143484E+01  0.61660719512E+01 -0.39616345274E+02  0.40128101601E+02  0.00000000000E+00 0. -1.
        -14    1    4    4    0    0 -0.44726756640E+01 -0.51535123574E+02  0.19643281758E+02  0.55332922457E+02  0.00000000000E+00 0.  1.
<mgrwt>
<rscale>  2 0.17910610E+03</rscale>
<asrwt>0</asrwt>
<pdfrwt beam="1">  1       21 0.40299279E-01 0.18081167E+03</pdfrwt>
<pdfrwt beam="2">  1       21 0.32202209E-01 0.18081167E+03</pdfrwt>
<totfact> 0.55340639E+04</totfact>
</mgrwt>
</event>
<event>
12    1  0.1074575E-001  0.1975891E+03  0.7546771E-02  0.1152352E+00
         21   -1    0    0  503  502  0.00000000000E+00  0.00000000000E+00  0.41096884212E+03  0.41096884212E+03  0.00000000000E+00 0. -1.
         21   -1    0    0  501  503 -0.00000000000E+00 -0.00000000000E+00 -0.94073169133E+02  0.94073169133E+02  0.00000000000E+00 0.  1.
          6    2    1    2  501    0 -0.34673799759E+02 -0.87504648254E+02  0.14465126351E+03  0.24487845491E+03  0.17373006012E+03 0.  0.
         24    2    3    3    0    0  0.34395200186E+02 -0.87583314453E+02  0.65311166000E+02  0.13958137986E+03  0.79771839843E+02 0.  0.
         -6    2    1    2    0  502  0.34673799759E+02  0.87504648254E+02  0.17224440948E+03  0.26016355634E+03  0.17075597675E+03 0.  0.
        -24    2    5    5    0    0 -0.14867539073E+02  0.23211505062E+02  0.15697459122E+03  0.17743986044E+03  0.78000410883E+02 0.  0.
          5    1    3    3  501    0 -0.69068999946E+02  0.78666198424E-01  0.79340097509E+02  0.10529707505E+03  0.47000000000E+01 0. -1.
        -13    1    4    4    0    0  0.42979030833E+01 -0.84193222654E+02  0.22704998804E+02  0.87306859309E+02  0.00000000000E+00 0.  1.
         14    1    4    4    0    0  0.30097297103E+02 -0.33900917985E+01  0.42606167196E+02  0.52274520547E+02  0.00000000000E+00 0. -1.
         -5    1    5    5    0  502  0.49541338832E+02  0.64293143192E+02  0.15269818258E+02  0.82723695907E+02  0.47000000000E+01 0.  1.
         13    1    6    6    0    0 -0.18935667623E+02  0.43214001735E+02  0.50836236913E+02  0.69356560163E+02  0.00000000000E+00 0. -1.
        -14    1    6    6    0    0  0.40681285499E+01 -0.20002496673E+02  0.10613835431E+03  0.10808330027E+03  0.00000000000E+00 0.  1.
<mgrwt>
<rscale>  2 0.19693343E+03</rscale>
<asrwt>0</asrwt>
<pdfrwt beam="1">  1       21 0.63225975E-01 0.19758914E+03</pdfrwt>
<pdfrwt beam="2">  1       21 0.14472795E-01 0.19758914E+03</pdfrwt>
<totfact> 0.96699229E+04</totfact>
</mgrwt>
</event>
<event>
12    1  0.1074575E-001  0.2100505E+03  0.7546771E-02  0.1142122E+00
         21   -1    0    0  503  502  0.00000000000E+00  0.00000000000E+00  0.37750371175E+02  0.37750371175E+02  0.00000000000E+00 0.  1.
         21   -1    0    0  501  503 -0.00000000000E+00 -0.00000000000E+00 -0.13915097592E+04  0.13915097592E+04  0.00000000000E+00 0.  1.
          6    2    1    2  501    0 -0.84593050670E+02  0.74092075460E+02 -0.38453618349E+03  0.43816584635E+03  0.17741367655E+03 0.  0.
         24    2    3    3    0    0 -0.12069069552E+03  0.26750143886E+02 -0.30032271507E+03  0.33492681927E+03  0.81856135364E+02 0.  0.
         -6    2    1    2    0  502  0.84593050670E+02 -0.74092075460E+02 -0.96922320454E+03  0.99109428403E+03  0.17386385407E+03 0.  0.
        -24    2    5    5    0    0  0.39613461551E+02 -0.93656634500E+02 -0.38922741296E+03  0.40900911529E+03  0.73821987750E+02 0.  0.
          5    1    3    3  501    0  0.36097644849E+02  0.47341931574E+02 -0.84213468424E+02  0.10323902708E+03  0.47000000000E+01 0. -1.
        -11    1    4    4    0    0 -0.59526891045E+02  0.31419296414E+02 -0.72235415528E+02  0.98734888470E+02  0.00000000000E+00 0.  1.
         12    1    4    4    0    0 -0.61163804475E+02 -0.46691525284E+01 -0.22808729954E+03  0.23619193080E+03  0.00000000000E+00 0. -1.
         -5    1    5    5    0  502  0.44979589119E+02  0.19564559041E+02 -0.57999579158E+03  0.58208516873E+03  0.47000000000E+01 0.  1.
         11    1    6    6    0    0 -0.81599275765E+01 -0.46516648124E+02 -0.82835786766E+02  0.95352768915E+02  0.00000000000E+00 0. -1.
        -12    1    6    6    0    0  0.47773389127E+02 -0.47139986377E+02 -0.30639162619E+03  0.31365634638E+03  0.00000000000E+00 0.  1.
<mgrwt>
<rscale>  2 0.20929914E+03</rscale>
<asrwt>0</asrwt>
<pdfrwt beam="1">  1       21 0.58077488E-02 0.21005055E+03</pdfrwt>
<pdfrwt beam="2">  1       21 0.21407845E+00 0.21005055E+03</pdfrwt>
<totfact> 0.22513672E+04</totfact>
</mgrwt>
</event>
<event>
12    1  0.1074575E-001  0.2002066E+03  0.7546771E-02  0.1149575E+00
         21   -1    0    0  503  502  0.00000000000E+00  0.00000000000E+00  0.15866398904E+03  0.15866398904E+03  0.00000000000E+00 0.  1.
         21   -1    0    0  501  503 -0.00000000000E+00 -0.00000000000E+00 -0.38623793389E+03  0.38623793389E+03  0.00000000000E+00 0.  1.
          6    2    1    2  501    0 -0.20136250084E+02 -0.96862516051E+02 -0.27405992592E+03  0.33936932504E+03  0.17399678215E+03 0.  0.
         24    2    3    3    0    0 -0.76857496133E+02 -0.80294912248E+02 -0.21714351327E+03  0.25719053655E+03  0.81494288693E+02 0.  0.
         -6    2    1    2    0  502  0.20136250084E+02  0.96862516051E+02  0.46485981076E+02  0.20553259789E+03  0.17405426389E+03 0.  0.
        -24    2    5    5    0    0  0.71958393426E+02  0.30484022943E+02  0.19858398728E+01  0.11017017628E+03  0.77628848653E+02 0.  0.
          5    1    3    3  501    0  0.56721246048E+02 -0.16567603802E+02 -0.56916412650E+02  0.82178788492E+02  0.47000000000E+01 0. -1.
        -13    1    4    4    0    0 -0.51877832363E+02 -0.80303485818E+00 -0.10855503262E+03  0.12031687106E+03  0.00000000000E+00 0.  1.
         14    1    4    4    0    0 -0.24979663770E+02 -0.79491877390E+02 -0.10858848066E+03  0.13687366549E+03  0.00000000000E+00 0. -1.
         -5    1    5    5    0  502 -0.51822143342E+02  0.66378493108E+02  0.44500141204E+02  0.95362421608E+02  0.47000000000E+01 0.  1.
         11    1    6    6    0    0  0.68340153068E+02  0.53402612801E+02 -0.12726393852E+01  0.86740043730E+02  0.00000000000E+00 0. -1.
        -12    1    6    6    0    0  0.36182403587E+01 -0.22918589859E+02  0.32584792581E+01  0.23430132554E+02  0.00000000000E+00 0.  1.
<mgrwt>
<rscale>  2 0.20019416E+03</rscale>
<asrwt>0</asrwt>
<pdfrwt beam="1">  1       21 0.24409845E-01 0.20020665E+03</pdfrwt>
<pdfrwt beam="2">  1       21 0.59421220E-01 0.20020665E+03</pdfrwt>
<totfact> 0.41778394E+04</totfact>
</mgrwt>
</event>
<event>
12    1  0.1074575E-001  0.2679911E+03  0.7546771E-02  0.1102462E+00
         21   -1    0    0  503  502  0.00000000000E+00  0.00000000000E+00  0.42439097739E+03  0.42439097739E+03  0.00000000000E+00 0. -1.
         21   -1    0    0  501  503 -0.00000000000E+00 -0.00000000000E+00 -0.19159736501E+03  0.19159736501E+03  0.00000000000E+00 0.  1.
          6    2    1    2  501    0  0.17149589364E+03 -0.11178102517E+03  0.10917955332E+02  0.26821336471E+03  0.17295481530E+03 0.  0.
         24    2    3    3    0    0  0.15418517080E+03 -0.14758398481E+03  0.88707014347E+01  0.22811605442E+03  0.80025904998E+02 0.  0.
         -6    2    1    2    0  502 -0.17149589364E+03  0.11178102517E+03  0.22187565704E+03  0.34777497769E+03  0.17266380279E+03 0.  0.
        -24    2    5    5    0    0 -0.84851969157E+02  0.69981646744E+02  0.21068953582E+03  0.25081324815E+03  0.80124386996E+02 0.  0.
          5    1    3    3  501    0  0.17310722839E+02  0.35802959640E+02  0.20472538971E+01  0.40097310293E+02  0.47000000000E+01 0. -1.
        -13    1    4    4    0    0  0.63717062705E+02 -0.81202819454E+02 -0.32977368635E+02  0.10835713548E+03  0.00000000000E+00 0.  1.
         14    1    4    4    0    0  0.90468108096E+02 -0.66381165361E+02  0.41848070070E+02  0.11975891894E+03  0.00000000000E+00 0. -1.
         -5    1    5    5    0  502 -0.86643924483E+02  0.41799378431E+02  0.11186121221E+02  0.96961729538E+02  0.47000000000E+01 0.  1.
         11    1    6    6    0    0 -0.99942939706E+02  0.54712011183E+02  0.16745342910E+03  0.20254048060E+03  0.00000000000E+00 0. -1.
        -12    1    6    6    0    0  0.15090970549E+02  0.15269635561E+02  0.43236106723E+02  0.48272767549E+02  0.00000000000E+00 0.  1.
<mgrwt>
<rscale>  2 0.26794412E+03</rscale>
<asrwt>0</asrwt>
<pdfrwt beam="1">  1       21 0.65290919E-01 0.26799106E+03</pdfrwt>
<pdfrwt beam="2">  1       21 0.29476518E-01 0.26799106E+03</pdfrwt>
<totfact> 0.22899639E+04</totfact>
</mgrwt>
</event>
<event>
12    1  0.1074575E-001  0.3065194E+03  0.7546771E-02  0.1082053E+00
         21   -1    0    0  503  502  0.00000000000E+00  0.00000000000E+00  0.26742718105E+03  0.26742718105E+03  0.00000000000E+00 0. -1.
         21   -1    0    0  501  503 -0.00000000000E+00 -0.00000000000E+00 -0.37559204372E+03  0.37559204372E+03  0.00000000000E+00 0.  1.
          6    2    1    2  501    0  0.23849426973E+03 -0.84171678035E+02 -0.13625026650E+03  0.33543740798E+03  0.17317543553E+03 0.  0.
         24    2    3    3    0    0  0.23225749458E+03 -0.55411578440E+02 -0.15895617764E+03  0.29797156895E+03  0.80659795931E+02 0.  0.
         -6    2    1    2    0  502 -0.23849426973E+03  0.84171678035E+02  0.28085403828E+02  0.30758181680E+03  0.17278135328E+03 0.  0.
        -24    2    5    5    0    0 -0.10159689207E+03  0.87163477051E+02  0.58619996766E+02  0.16720983157E+03  0.81261451765E+02 0.  0.
          5    1    3    3  501    0  0.62367751521E+01 -0.28760099594E+02  0.22705911143E+02  0.37465839024E+02  0.47000000000E+01 0. -1.
        -13    1    4    4    0    0  0.89042398474E+02 -0.58828043943E+02 -0.49263198056E+02  0.11754212080E+03  0.00000000000E+00 0.  1.
         14    1    4    4    0    0  0.14321509611E+03  0.34164655022E+01 -0.10969297958E+03  0.18042944815E+03  0.00000000000E+00 0. -1.
         -5    1    5    5    0  502 -0.13689737766E+03 -0.29917990167E+01 -0.30534592938E+02  0.14037198523E+03  0.47000000000E+01 0.  1.
         11    1    6    6    0    0 -0.89549942444E+02  0.29463275267E+02  0.18946137464E+02  0.96157334125E+02  0.00000000000E+00 0. -1.
        -12    1    6    6    0    0 -0.12046949625E+02  0.57700201784E+02  0.39673859302E+02  0.71052497444E+02  0.00000000000E+00 0.  1.
<mgrwt>
<rscale>  2 0.30646373E+03</rscale>
<asrwt>0</asrwt>
<pdfrwt beam="1">  1       21 0.41142643E-01 0.30651936E+03</pdfrwt>
<pdfrwt beam="2">  1       21 0.57783392E-01 0.30651936E+03</pdfrwt>
<totfact> 0.15070473E+04</totfact>
</mgrwt>
</event>
<event>
12    1  0.1074575E-001  0.1897269E+03  0.7546771E-02  0.1158966E+00
         21   -1    0    0  503  502  0.00000000000E+00  0.00000000000E+00  0.45800411622E+03  0.45800411622E+03  0.00000000000E+00 0.  1.
         21   -1    0    0  501  503 -0.00000000000E+00 -0.00000000000E+00 -0.30842957981E+03  0.30842957981E+03  0.00000000000E+00 0.  1.
          6    2    1    2  501    0 -0.39041544353E+02  0.69190669177E+02 -0.25641567232E+03  0.31829938106E+03  0.17103773877E+03 0.  0.
         24    2    3    3    0    0  0.31229962302E+02  0.73558832009E+02 -0.18563627898E+03  0.21835450617E+03  0.82653795918E+02 0.  0.
         -6    2    1    2    0  502  0.39041544353E+02 -0.69190669177E+02  0.40599020873E+03  0.44813431498E+03  0.17229255291E+03 0.  0.
        -24    2    5    5    0    0  0.50893794787E+02 -0.46330014794E+02  0.40855488079E+03  0.42183311915E+03  0.79305997097E+02 0.  0.
          5    1    3    3  501    0 -0.70271506654E+02 -0.43681628324E+01 -0.70779393340E+02  0.99944874884E+02  0.47000000000E+01 0. -1.
        -13    1    4    4    0    0  0.47378057864E+02  0.14337828491E+02 -0.54872885137E+02  0.73900522434E+02  0.00000000000E+00 0.  1.
         14    1    4    4    0    0 -0.16148095562E+02  0.59221003519E+02 -0.13076339384E+03  0.14445398374E+03  0.00000000000E+00 0. -1.
         -5    1    5    5    0  502 -0.11852250434E+02 -0.22860654383E+02 -0.25646720586E+01  0.26301195827E+02  0.47000000000E+01 0.  1.
         13    1    6    6    0    0 -0.18220754846E+02 -0.15285110948E+02  0.50102110611E+02  0.55460364329E+02  0.00000000000E+00 0. -1.
        -14    1    6    6    0    0  0.69114549633E+02 -0.31044903846E+02  0.35845277018E+03  0.36637275482E+03  0.00000000000E+00 0.  1.
<mgrwt>
<rscale>  2 0.18944161E+03</rscale>
<asrwt>0</asrwt>
<pdfrwt beam="1">  1       21 0.70462172E-01 0.18972695E+03</pdfrwt>
<pdfrwt beam="2">  1       21 0.47450704E-01 0.18972695E+03</pdfrwt>
<totfact> 0.77742218E+03</totfact>
</mgrwt>
</event>
<event>
12    1  0.1074575E-001  0.2167673E+03  0.7546771E-02  0.1136384E+00
         21   -1    0    0  503  502  0.00000000000E+00  0.00000000000E+00  0.10907782552E+04  0.10907782552E+04  0.00000000000E+00 0.  1.
         21   -1    0    0  501  503 -0.00000000000E+00 -0.00000000000E+00 -0.43029100981E+02  0.43029100981E+02  0.00000000000E+00 0.  1.
          6    2    1    2  501    0  0.10424509963E+03  0.77848463466E+02  0.51148019042E+03  0.55551780244E+03  0.17337998607E+03 0.  0.
         24    2    3    3    0    0  0.12115530752E+03  0.54913724115E+02  0.50174306711E+03  0.52504061474E+03  0.78913979092E+02 0.  0.
         -6    2    1    2    0  502 -0.10424509963E+03 -0.77848463466E+02  0.53626896377E+03  0.57828955371E+03  0.17293635353E+03 0.  0.
        -24    2    5    5    0    0 -0.25066247783E+02 -0.77186751398E+02  0.43513275272E+03  0.44975803373E+03  0.79722425032E+02 0.  0.
          5    1    3    3  501    0 -0.16910207887E+02  0.22934739351E+02  0.97371233155E+01  0.30477187703E+02  0.47000000000E+01 0. -1.
        -11    1    4    4    0    0  0.23123763925E+02  0.17992011123E+02  0.30491301095E+02  0.42286408748E+02  0.00000000000E+00 0.  1.
         12    1    4    4    0    0  0.98031543590E+02  0.36921712992E+02  0.47125176601E+03  0.48275420599E+03  0.00000000000E+00 0. -1.
         -5    1    5    5    0  502 -0.79178851846E+02 -0.66171206729E+00  0.10113621105E+03  0.12853151998E+03  0.47000000000E+01 0.  1.
         11    1    6    6    0    0  0.19095420381E+02  0.42358406292E+01  0.51181516428E+02  0.54791651273E+02  0.00000000000E+00 0. -1.
        -12    1    6    6    0    0 -0.44161668163E+02 -0.81422592028E+02  0.38395123629E+03  0.39496638246E+03  0.00000000000E+00 0.  1.
<mgrwt>
<rscale>  2 0.21667853E+03</rscale>
<asrwt>0</asrwt>
<pdfrwt beam="1">  1       21 0.16781202E+00 0.21676726E+03</pdfrwt>
<pdfrwt beam="2">  1       21 0.66198625E-02 0.21676726E+03</pdfrwt>
<totfact> 0.36282217E+04</totfact>
</mgrwt>
</event>
<event>
12    1  0.1074575E-001  0.3307824E+03  0.7546771E-02  0.1070814E+00
         21   -1    0    0  501  502  0.00000000000E+00  0.00000000000E+00  0.45703028238E+03  0.45703028238E+03  0.00000000000E+00 0. -1.
         21   -1    0    0  502  503 -0.00000000000E+00 -0.00000000000E+00 -0.76717572635E+03  0.76717572635E+03  0.00000000000E+00 0. -1.
         -6    2    1    2    0  503 -0.17799025496E+03  0.21891298798E+03 -0.66281930650E+03  0.74068162437E+03  0.17226841976E+03 0.  0.
        -24    2    3    3    0    0 -0.19099297066E+03  0.14742979540E+03 -0.55384415222E+03  0.60962212762E+03  0.81743098345E+02 0.  0.
          6    2    1    2  501    0  0.17799025496E+03 -0.21891298798E+03  0.35267386253E+03  0.48352438436E+03  0.17266600647E+03 0.  0.
         24    2    5    5    0    0  0.11834448380E+02 -0.83329460966E+02  0.15374442526E+03  0.19097412223E+03  0.75828186255E+02 0.  0.
          5    1    5    5  501    0  0.16615580658E+03 -0.13558352701E+03  0.19892943727E+03  0.29255026213E+03  0.47000000000E+01 0. -1.
        -11    1    6    6    0    0 -0.28259771125E+01  0.14125770583E+02  0.24806468477E+02  0.28685962063E+02  0.00000000000E+00 0.  1.
         12    1    6    6    0    0  0.14660425492E+02 -0.97455231549E+02  0.12893795678E+03  0.16228816017E+03  0.00000000000E+00 0. -1.
         -5    1    3    3    0  503  0.13002715708E+02  0.71483192582E+02 -0.10897515428E+03  0.13105949675E+03  0.47000000000E+01 0.  1.
         13    1    4    4    0    0 -0.13060524143E+03  0.57929387836E+02 -0.36693836015E+03  0.39377316213E+03  0.00000000000E+00 0. -1.
        -14    1    4    4    0    0 -0.60387729232E+02  0.89500407563E+02 -0.18690579207E+03  0.21584896549E+03  0.00000000000E+00 0.  1.
<mgrwt>
<rscale>  2 0.33073052E+03</rscale>
<asrwt>0</asrwt>
<pdfrwt beam="1">  1       21 0.70312352E-01 0.33078237E+03</pdfrwt>
<pdfrwt beam="2">  1       21 0.11802703E+00 0.33078237E+03</pdfrwt>
<totfact> 0.90649116E+02</totfact>
</mgrwt>
</event>
<event>
12    1  0.1074575E-001  0.1874409E+03  0.7546771E-02  0.1161927E+00
         21   -1    0    0  501  502  0.00000000000E+00  0.00000000000E+00  0.24124011876E+04  0.24124011876E+04  0.00000000000E+00 0.  1.
         21   -1    0    0  502  503 -0.00000000000E+00 -0.00000000000E+00 -0.22665833306E+02  0.22665833306E+02  0.00000000000E+00 0.  1.
         -6    2    1    2    0  503 -0.31789732000E+02  0.47521604586E+02  0.19493721701E+04  0.19583630755E+04  0.17850822865E+03 0.  0.
        -24    2    3    3    0    0 -0.63221251213E+02 -0.18554505770E+02  0.14421382287E+04  0.14458571203E+04  0.79993407828E+02 0.  0.
          6    2    1    2  501    0  0.31789732000E+02 -0.47521604586E+02  0.44036318416E+03  0.47670394544E+03  0.17337251129E+03 0.  0.
         24    2    5    5    0    0  0.58404960515E+02 -0.63625569604E+02  0.42600448093E+03  0.44212113993E+03  0.80820369264E+02 0.  0.
          5    1    5    5  501    0 -0.26615228515E+02  0.16103965018E+02  0.14358703239E+02  0.34582805509E+02  0.47000000000E+01 0. -1.
        -13    1    6    6    0    0 -0.73523767880E+01 -0.18659817939E+02  0.22521725691E+03  0.22610851169E+03  0.00000000000E+00 0.  1.
         14    1    6    6    0    0  0.65757337303E+02 -0.44965751666E+02  0.20078722402E+03  0.21601262824E+03  0.00000000000E+00 0. -1.
         -5    1    3    3    0  503  0.31431519214E+02  0.66076110357E+02  0.50723394143E+03  0.51250595518E+03  0.47000000000E+01 0.  1.
         13    1    4    4    0    0  0.12037617418E+02 -0.39331998323E+01  0.62547543742E+03  0.62560362619E+03  0.00000000000E+00 0. -1.
        -14    1    4    4    0    0 -0.75258868631E+02 -0.14621305938E+02  0.81666279130E+03  0.82025349410E+03  0.00000000000E+00 0.  1.
<mgrwt>
<rscale>  2 0.18620769E+03</rscale>
<asrwt>0</asrwt>
<pdfrwt beam="1">  1       21 0.37113844E+00 0.18744086E+03</pdfrwt>
<pdfrwt beam="2">  1       21 0.34870532E-02 0.18744086E+03</pdfrwt>
<totfact> 0.64926845E+03</totfact>
</mgrwt>
</event>
<event>
12    1  0.1074575E-001  0.1856714E+03  0.7546771E-02  0.1162953E+00
         21   -1    0    0  501  502  0.00000000000E+00  0.00000000000E+00  0.56894298507E+02  0.56894298507E+02  0.00000000000E+00 0. -1.
         21   -1    0    0  502  503 -0.00000000000E+00 -0.00000000000E+00 -0.70314186834E+03  0.70314186834E+03  0.00000000000E+00 0. -1.
         -6    2    1    2    0  503  0.38852608175E+02 -0.50349657825E+02 -0.47135219836E+03  0.50660314785E+03  0.17443979277E+03 0.  0.
        -24    2    3    3    0    0 -0.31370770001E+01 -0.88000894191E+02 -0.38690254004E+03  0.40494399159E+03  0.80821174217E+02 0.  0.
          6    2    1    2  501    0 -0.38852608175E+02  0.50349657825E+02 -0.17489537147E+03  0.25343301900E+03  0.17203281940E+03 0.  0.
         24    2    5    5    0    0  0.13108489403E+02 -0.67577397662E+01 -0.28645200268E+02  0.87986915697E+02  0.81875822403E+02 0.  0.
          5    1    5    5  501    0 -0.51961097578E+02  0.57107397591E+02 -0.14625017120E+03  0.16544610330E+03  0.47000000000E+01 0. -1.
        -11    1    6    6    0    0  0.42750553669E+02  0.45053660711E+01  0.31237667914E+01  0.43100650592E+02  0.00000000000E+00 0.  1.
         12    1    6    6    0    0 -0.29642064266E+02 -0.11263105837E+02 -0.31768967060E+02  0.44886265105E+02  0.00000000000E+00 0. -1.
         -5    1    3    3    0  503  0.41989685175E+02  0.37651236366E+02 -0.84449658321E+02  0.10165915626E+03  0.47000000000E+01 0.  1.
         11    1    4    4    0    0 -0.31337466855E+02 -0.77774527165E+02 -0.22143125552E+03  0.23677566350E+03  0.00000000000E+00 0. -1.
        -12    1    4    4    0    0  0.28200389855E+02 -0.10226367026E+02 -0.16547128452E+03  0.16816832809E+03  0.00000000000E+00 0.  1.
<mgrwt>
<rscale>  2 0.18510389E+03</rscale>
<asrwt>0</asrwt>
<pdfrwt beam="1">  1       21 0.87529688E-02 0.18567136E+03</pdfrwt>
<pdfrwt beam="2">  1       21 0.10817567E+00 0.18567136E+03</pdfrwt>
<totfact> 0.69973492E+04</totfact>
</mgrwt>
</event>
<event>
12    1  0.1074575E-001  0.2400764E+03  0.7546771E-02  0.1122024E+00
         21   -1    0    0  501  502  0.00000000000E+00  0.00000000000E+00  0.23793148081E+02  0.23793148081E+02  0.00000000000E+00 0. -1.
         21   -1    0    0  502  503 -0.00000000000E+00 -0.00000000000E+00 -0.23139647147E+04  0.23139647147E+04  0.00000000000E+00 0.  1.
         -6    2    1    2    0  503 -0.46069427112E+02  0.13675857644E+03 -0.12314434955E+04  0.12521512193E+04  0.17494082782E+03 0.  0.
        -24    2    3    3    0    0 -0.13984926218E+02  0.60698359925E+01 -0.63430581422E+03  0.64002013662E+03  0.83961230652E+02 0.  0.
          6    2    1    2  501    0  0.46069427112E+02 -0.13675857644E+03 -0.10587280712E+04  0.10856066435E+04  0.19186285539E+03 0.  0.
         24    2    5    5    0    0  0.74465388133E+02 -0.60883545714E+02 -0.88498768601E+03  0.89384856063E+03  0.80685468303E+02 0.  0.
          5    1    5    5  501    0 -0.28395961021E+02 -0.75875030728E+02 -0.17374038519E+03  0.19175808285E+03  0.47000000000E+01 0. -1.
        -13    1    6    6    0    0  0.11356892263E+02 -0.46048472905E+02 -0.18946469624E+03  0.19531080866E+03  0.00000000000E+00 0.  1.
         14    1    6    6    0    0  0.63108495869E+02 -0.14835072809E+02 -0.69552298977E+03  0.69853775198E+03  0.00000000000E+00 0. -1.
         -5    1    3    3    0  503 -0.32084500894E+02  0.13068874045E+03 -0.59713768123E+03  0.61213108272E+03  0.47000000000E+01 0.  1.
         13    1    4    4    0    0  0.31041724672E+02 -0.16710232192E+01 -0.13069534421E+03  0.13434155719E+03  0.00000000000E+00 0. -1.
        -14    1    4    4    0    0 -0.45026650890E+02  0.77408592116E+01 -0.50361047001E+03  0.50567857943E+03  0.00000000000E+00 0.  1.
<mgrwt>
<rscale>  2 0.23668115E+03</rscale>
<asrwt>0</asrwt>
<pdfrwt beam="1">  1       21 0.36604828E-02 0.24007635E+03</pdfrwt>
<pdfrwt beam="2">  1       21 0.35599472E+00 0.24007635E+03</pdfrwt>
<totfact> 0.69447738E+03</totfact>
</mgrwt>
</event>
<event>
12    1  0.1074575E-001  0.2047043E+03  0.7546771E-02  0.1145927E+00
         21   -1    0    0  501  502  0.00000000000E+00  0.00000000000E+00  0.31149389343E+02  0.31149389343E+02  0.00000000000E+00 0.  1.
         21   -1    0    0  502  503 -0.00000000000E+00 -0.00000000000E+00 -0.13424637736E+04  0.13424637736E+04  0.00000000000E+00 0.  1.
         -6    2    1    2    0  503  0.10895981158E+03  0.14215935986E+02 -0.64582694695E+03  0.67749265795E+03  0.17271225433E+03 0.  0.
        -24    2    3    3    0    0  0.87502302613E+02  0.70794315114E+02 -0.51362368816E+03  0.53202331647E+03  0.81061878924E+02 0.  0.
          6    2    1    2  501    0 -0.10895981158E+03 -0.14215935986E+02 -0.66548743731E+03  0.69612050499E+03  0.17215079111E+03 0.  0.
         24    2    5    5    0    0 -0.42267265552E+02 -0.17204586203E+02 -0.15369562361E+03  0.17997151652E+03  0.81761130865E+02 0.  0.
          5    1    5    5  501    0 -0.66692546029E+02  0.29886502172E+01 -0.51179181370E+03  0.51614898847E+03  0.47000000000E+01 0. -1.
        -11    1    6    6    0    0 -0.63966808916E+02 -0.51826645731E+01 -0.13296563403E+03  0.14764305770E+03  0.00000000000E+00 0.  1.
         12    1    6    6    0    0  0.21699543364E+02 -0.12021921630E+02 -0.20729989579E+02  0.32328458823E+02  0.00000000000E+00 0. -1.
         -5    1    3    3    0  503  0.21457508969E+02 -0.56578379128E+02 -0.13220325879E+03  0.14546934148E+03  0.47000000000E+01 0.  1.
         11    1    4    4    0    0  0.21937096401E+02  0.41555601405E+02 -0.35265283211E+03  0.35576976291E+03  0.00000000000E+00 0. -1.
        -12    1    4    4    0    0  0.65565206212E+02  0.29238713709E+02 -0.16097085605E+03  0.17625355356E+03  0.00000000000E+00 0.  1.
<mgrwt>
<rscale>  2 0.20458584E+03</rscale>
<asrwt>0</asrwt>
<pdfrwt beam="1">  1       21 0.47922136E-02 0.20470431E+03</pdfrwt>
<pdfrwt beam="2">  1       21 0.20653289E+00 0.20470431E+03</pdfrwt>
<totfact> 0.34967744E+04</totfact>
</mgrwt>
</event>
<event>
12    1  0.1074575E-001  0.1799167E+03  0.7546771E-02  0.1168181E+00
         21   -1    0    0  501  502  0.00000000000E+00  0.00000000000E+00  0.27131365271E+03  0.27131365271E+03  0.00000000000E+00 0. -1.
         21   -1    0    0  502  503 -0.00000000000E+00 -0.00000000000E+00 -0.13027326306E+03  0.13027326306E+03  0.00000000000E+00 0. -1.
         -6    2    1    2    0  503 -0.43655831309E+02 -0.74384040682E+01  0.99321481580E+01  0.17896756294E+03  0.17311724222E+03 0.  0.
        -24    2    3    3    0    0 -0.56447442074E+02 -0.56788688734E+02  0.38249477966E+02  0.12046083623E+03  0.81464848954E+02 0.  0.
          6    2    1    2  501    0  0.43655831309E+02  0.74384040682E+01  0.13110824149E+03  0.22261935283E+03  0.17438131725E+03 0.  0.
         24    2    5    5    0    0  0.28442100581E+02  0.36347656649E+02  0.57230094383E+01  0.92963080697E+02  0.80493951985E+02 0.  0.
          5    1    5    5  501    0  0.15213730727E+02 -0.28909252581E+02  0.12538523205E+03  0.12965627213E+03  0.47000000000E+01 0. -1.
        -11    1    6    6    0    0 -0.12027696886E+01 -0.22255898707E+02  0.14667908536E+02  0.26681814463E+02  0.00000000000E+00 0.  1.
         12    1    6    6    0    0  0.29644870270E+02  0.58603555356E+02 -0.89448990977E+01  0.66281266234E+02  0.00000000000E+00 0. -1.
         -5    1    3    3    0  503  0.12791610766E+02  0.49350284665E+02 -0.28317329808E+02  0.58506726707E+02  0.47000000000E+01 0.  1.
         11    1    4    4    0    0 -0.17648894689E+02 -0.15519890514E+02 -0.25838984421E+02  0.34928549944E+02  0.00000000000E+00 0. -1.
        -12    1    4    4    0    0 -0.38798547385E+02 -0.41268798219E+02  0.64088462387E+02  0.85532286283E+02  0.00000000000E+00 0.  1.
<mgrwt>
<rscale>  2 0.17960965E+03</rscale>
<asrwt>0</asrwt>
<pdfrwt beam="1">  1       21 0.41740562E-01 0.17991666E+03</pdfrwt>
<pdfrwt beam="2">  1       21 0.20042041E-01 0.17991666E+03</pdfrwt>
<totfact> 0.12760207E+05</totfact>
</mgrwt>
</event>
<event>
12    1  0.1074575E-001  0.1904383E+03  0.7546771E-02  0.1158421E+00
         21   -1    0    0  501  502  0.00000000000E+00  0.00000000000E+00  0.48099285923E+03  0.48099285923E+03  0.00000000000E+00 0. -1.
         21   -1    0    0  502  503 -0.00000000000E+00 -0.00000000000E+00 -0.11186780041E+03  0.11186780041E+03  0.00000000000E+00 0.  1.
         -6    2    1    2    0  503 -0.22138109516E+02  0.75540191802E+02  0.13370428127E+02  0.18934103050E+03  0.17168238411E+03 0.  0.
        -24    2    3    3    0    0 -0.62381334429E+02 -0.12182734706E+02  0.12801782436E+02  0.92711623259E+02  0.66269974678E+02 0.  0.
          6    2    1    2  501    0  0.22138109516E+02 -0.75540191802E+02  0.35575463070E+03  0.40351962914E+03  0.17340795071E+03 0.  0.
         24    2    5    5    0    0  0.27835863121E+02 -0.39956537347E+02  0.74600771626E+02  0.12002669566E+03  0.80434895366E+02 0.  0.
          5    1    5    5  501    0 -0.56977536057E+01 -0.35583654455E+02  0.28115385907E+03  0.28349293348E+03  0.47000000000E+01 0. -1.
        -11    1    6    6    0    0  0.33216547102E+02 -0.57850697679E+02  0.76198165845E+02  0.10127291198E+03  0.00000000000E+00 0.  1.
         12    1    6    6    0    0 -0.53806839811E+01  0.17894160332E+02 -0.15973942193E+01  0.18753783682E+02  0.00000000000E+00 0. -1.
         -5    1    3    3    0  503  0.40243224913E+02  0.87722926508E+02  0.56864569068E+00  0.96629407245E+02  0.47000000000E+01 0.  1.
         11    1    4    4    0    0 -0.59746683284E+02  0.15328573648E+02  0.18696076951E+02  0.64452886878E+02  0.00000000000E+00 0. -1.
        -12    1    4    4    0    0 -0.26346511443E+01 -0.27511308354E+02 -0.58942945150E+01  0.28258736381E+02  0.00000000000E+00 0.  1.
<mgrwt>
<rscale>  2 0.19004457E+03</rscale>
<asrwt>0</asrwt>
<pdfrwt beam="1">  1       21 0.73998900E-01 0.19043827E+03</pdfrwt>
<pdfrwt beam="2">  1       21 0.17210431E-01 0.19043827E+03</pdfrwt>
<totfact> 0.50019579E+04</totfact>
</mgrwt>
</event>
<event>
12    1  0.1074575E-001  0.2171050E+03  0.7546771E-02  0.1138350E+00
         21   -1    0    0  501  502  0.00000000000E+00  0.00000000000E+00  0.54792574302E+02  0.54792574302E+02  0.00000000000E+00 0.  1.
         21   -1    0    0  502  503 -0.00000000000E+00 -0.00000000000E+00 -0.23282199738E+04  0.23282199738E+04  0.00000000000E+00 0. -1.
         -6    2    1    2    0  503 -0.94391998845E+02  0.86934238452E+02 -0.20863215080E+04  0.20964062157E+04  0.16035640080E+03 0.  0.
        -24    2    3    3    0    0  0.66930276856E+00  0.63836267061E+02 -0.12675506748E+04  0.12717984698E+04  0.81921411131E+02 0.  0.
          6    2    1    2  501    0  0.94391998845E+02 -0.86934238452E+02 -0.18710589145E+03  0.28660633234E+03  0.17512042674E+03 0.  0.
         24    2    5    5    0    0  0.10408274406E+03 -0.98064485907E+02 -0.20550160393E+03  0.26255877136E+03  0.79097017582E+02 0.  0.
          5    1    5    5  501    0 -0.96907452178E+01  0.11130247455E+02  0.18395712485E+02  0.24047560980E+02  0.47000000000E+01 0. -1.
        -11    1    6    6    0    0  0.18208919480E+02 -0.62207183802E+02 -0.52203370995E+02  0.83225539400E+02  0.00000000000E+00 0.  1.
         12    1    6    6    0    0  0.85873824583E+02 -0.35857302105E+02 -0.15329823294E+03  0.17933323196E+03  0.00000000000E+00 0. -1.
         -5    1    3    3    0  503 -0.95061301614E+02  0.23097971390E+02 -0.81877083319E+03  0.82460774592E+03  0.47000000000E+01 0.  1.
         13    1    4    4    0    0  0.44008555244E+01 -0.16531426469E+02 -0.44345251097E+03  0.44378236228E+03  0.00000000000E+00 0. -1.
        -14    1    4    4    0    0 -0.37315527559E+01  0.80367693530E+02 -0.82409816387E+03  0.82801610753E+03  0.00000000000E+00 0.  1.
<mgrwt>
<rscale>  2 0.21411284E+03</rscale>
<asrwt>0</asrwt>
<pdfrwt beam="1">  1       21 0.84296266E-02 0.21710499E+03</pdfrwt>
<pdfrwt beam="2">  1       21 0.35818770E+00 0.21710499E+03</pdfrwt>
<totfact> 0.16579560E+03</totfact>
</mgrwt>
</event>
<event>
12    1  0.1074575E-001  0.1880036E+03  0.7546771E-02  0.1160817E+00
         21   -1    0    0  501  502  0.00000000000E+00  0.00000000000E+00  0.21036192316E+03  0.21036192316E+03  0.00000000000E+00 0.  1.
         21   -1    0    0  502  503 -0.00000000000E+00 -0.00000000000E+00 -0.24516219803E+03  0.24516219803E+03  0.00000000000E+00 0.  1.
         -6    2    1    2    0  503  0.71665618081E+02  0.48220278585E+01 -0.14681234580E+03  0.23668153964E+03  0.17118724707E+03 0.  0.
        -24    2    3    3    0    0  0.38187644675E+02 -0.52131561566E+02 -0.33438123875E+02  0.10537925387E+03  0.76227836785E+02 0.  0.
          6    2    1    2  501    0 -0.71665618081E+02 -0.48220278585E+01  0.11201207093E+03  0.21884258154E+03  0.17374164353E+03 0.  0.
         24    2    5    5    0    0  0.38899325984E+01 -0.41256585660E+02  0.15895944543E+02  0.91184765518E+02  0.79653894906E+02 0.  0.
          5    1    5    5  501    0 -0.75555550679E+02  0.36434557801E+02  0.96116126389E+02  0.12765781603E+03  0.47000000000E+01 0. -1.
        -13    1    6    6    0    0 -0.19579625582E+02 -0.43526359127E+02  0.36331577798E+02  0.59982407605E+02  0.00000000000E+00 0.  1.
         14    1    6    6    0    0  0.23469558181E+02  0.22697734670E+01 -0.20435633255E+02  0.31202357913E+02  0.00000000000E+00 0. -1.
         -5    1    3    3    0  503  0.33477973406E+02  0.56953589425E+02 -0.11337422192E+03  0.13130228577E+03  0.47000000000E+01 0.  1.
         13    1    4    4    0    0  0.20992336501E+02 -0.11411697512E+02  0.23355197195E+02  0.33412127557E+02  0.00000000000E+00 0. -1.
        -14    1    4    4    0    0  0.17195308174E+02 -0.40719864054E+02 -0.56793321069E+02  0.71967126314E+02  0.00000000000E+00 0.  1.
<mgrwt>
<rscale>  2 0.18741134E+03</rscale>
<asrwt>0</asrwt>
<pdfrwt beam="1">  1       21 0.32363373E-01 0.18800365E+03</pdfrwt>
<pdfrwt beam="2">  1       21 0.37717261E-01 0.18800365E+03</pdfrwt>
<totfact> 0.62403460E+04</totfact>
</mgrwt>
</event>
<event>
12    1  0.1074575E-001  0.2141711E+03  0.7546771E-02  0.1138426E+00
         21   -1    0    0  501  502  0.00000000000E+00  0.00000000000E+00  0.21246897862E+03  0.21246897862E+03  0.00000000000E+00 0.  1.
         21   -1    0    0  502  503 -0.00000000000E+00 -0.00000000000E+00 -0.37908403153E+03  0.37908403153E+03  0.00000000000E+00 0.  1.
         -6    2    1    2    0  503 -0.11978105008E+03  0.33878650757E+02 -0.27781949921E+03  0.35078904396E+03  0.17428142841E+03 0.  0.
        -24    2    3    3    0    0 -0.99760140803E+02 -0.19657604852E+01 -0.83555863962E+02  0.15217859961E+03  0.78872009420E+02 0.  0.
          6    2    1    2  501    0  0.11978105008E+03 -0.33878650757E+02  0.11120444630E+03  0.24076396620E+03  0.17350964125E+03 0.  0.
         24    2    5    5    0    0  0.12700185294E+02 -0.23838596636E+02 -0.20150187563E+01  0.84533842480E+02  0.80077068052E+02 0.  0.
          5    1    5    5  501    0  0.10708086478E+03 -0.10040054121E+02  0.11321946505E+03  0.15623012372E+03  0.47000000000E+01 0. -1.
        -11    1    6    6    0    0  0.39633598150E+02 -0.22205314698E+02  0.20069281987E+02  0.49665623752E+02  0.00000000000E+00 0.  1.
         12    1    6    6    0    0 -0.26933412856E+02 -0.16332819372E+01 -0.22084300743E+02  0.34868218728E+02  0.00000000000E+00 0. -1.
         -5    1    3    3    0  503 -0.20020909275E+02  0.35844411242E+02 -0.19426363525E+03  0.19861044435E+03  0.47000000000E+01 0.  1.
         13    1    4    4    0    0 -0.29069218337E+01 -0.23435345203E+02 -0.33702000916E+02  0.41152040837E+02  0.00000000000E+00 0. -1.
        -14    1    4    4    0    0 -0.96853218969E+02  0.21469584717E+02 -0.49853863046E+02  0.11102655877E+03  0.00000000000E+00 0.  1.
<mgrwt>
<rscale>  2 0.21401408E+03</rscale>
<asrwt>0</asrwt>
<pdfrwt beam="1">  1       21 0.32687536E-01 0.21417114E+03</pdfrwt>
<pdfrwt beam="2">  1       21 0.58320620E-01 0.21417114E+03</pdfrwt>
<totfact> 0.24504212E+04</totfact>
</mgrwt>
</event>
<event>
12    1  0.1074575E-001  0.1881410E+03  0.7546771E-02  0.1160311E+00
         21   -1    0    0  503  502  0.00000000000E+00  0.00000000000E+00  0.12313933931E+04  0.12313933931E+04  0.00000000000E+00 0. -1.
         21   -1    0    0  501  503 -0.00000000000E+00 -0.00000000000E+00 -0.29225783097E+02  0.29225783097E+02  0.00000000000E+00 0. -1.
          6    2    1    2  501    0  0.10295308547E+02 -0.72802195169E+02  0.51276633452E+03  0.54619259182E+03  0.17317875317E+03 0.  0.
         24    2    3    3    0    0  0.14360741243E+02  0.28628656904E+01  0.41214129576E+03  0.42014015193E+03  0.80267507167E+02 0.  0.
         -6    2    1    2    0  502 -0.10295308547E+02  0.72802195169E+02  0.68940127544E+03  0.71442658433E+03  0.17240960766E+03 0.  0.
        -24    2    5    5    0    0 -0.20804800220E+02  0.72513152403E+01  0.15670553285E+03  0.17758935439E+03  0.80597354058E+02 0.  0.
          5    1    3    3  501    0 -0.40654326956E+01 -0.75665060859E+02  0.10062503876E+03  0.12605243989E+03  0.47000000000E+01 0. -1.
        -13    1    4    4    0    0 -0.89211490884E+01  0.34122881984E+02  0.11053261734E+03  0.11602334883E+03  0.00000000000E+00 0.  1.
         14    1    4    4    0    0  0.23281890331E+02 -0.31260016294E+02  0.30160867842E+03  0.30411680311E+03  0.00000000000E+00 0. -1.
         -5    1    5    5    0  502  0.10509491673E+02  0.65550879928E+02  0.53269574259E+03  0.53683722994E+03  0.47000000000E+01 0.  1.
         11    1    6    6    0    0 -0.32716206143E+02  0.23010506020E+02  0.15214589462E+03  0.15731562790E+03  0.00000000000E+00 0. -1.
        -12    1    6    6    0    0  0.11911405923E+02 -0.15759190779E+02  0.45596382345E+01  0.20273726493E+02  0.00000000000E+00 0.  1.
<mgrwt>
<rscale>  2 0.18796381E+03</rscale>
<asrwt>0</asrwt>
<pdfrwt beam="1">  1       21 0.18944510E+00 0.18814099E+03</pdfrwt>
<pdfrwt beam="2">  1       21 0.44962753E-02 0.18814099E+03</pdfrwt>
<totfact> 0.50774625E+04</totfact>
</mgrwt>
</event>
<event>
12    1  0.1074575E-001  0.1807263E+03  0.7546771E-02  0.1167166E+00
         21   -1    0    0  503  502  0.00000000000E+00  0.00000000000E+00  0.84104100980E+03  0.84104100980E+03  0.00000000000E+00 0.  1.
         21   -1    0    0  501  503 -0.00000000000E+00 -0.00000000000E+00 -0.12201786304E+03  0.12201786304E+03  0.00000000000E+00 0.  1.
          6    2    1    2  501    0 -0.11874128379E+02  0.48594660343E+02 -0.38123390586E+02  0.18470347516E+03  0.17366503646E+03 0.  0.
         24    2    3    3    0    0  0.27359538713E+02  0.22999303917E+01 -0.74649390174E+02  0.11371952415E+03  0.81275855463E+02 0.  0.
         -6    2    1    2    0  502  0.11874128379E+02 -0.48594660343E+02  0.75714653735E+03  0.77835539769E+03  0.17338918694E+03 0.  0.
        -24    2    5    5    0    0 -0.58491925836E+02 -0.24917629487E+02  0.36867485248E+03  0.38282496482E+03  0.81188750406E+02 0.  0.
          5    1    3    3  501    0 -0.39233667092E+02  0.46294729951E+02  0.36525999588E+02  0.70983951007E+02  0.47000000000E+01 0. -1.
        -13    1    4    4    0    0  0.37448344399E+02  0.23175838141E+02 -0.10170841760E+02  0.45198937973E+02  0.00000000000E+00 0.  1.
         14    1    4    4    0    0 -0.10088805686E+02 -0.20875907749E+02 -0.64478548414E+02  0.68520586177E+02  0.00000000000E+00 0. -1.
         -5    1    5    5    0  502  0.70366054215E+02 -0.23677030856E+02  0.38847168487E+03  0.39553043287E+03  0.47000000000E+01 0.  1.
         13    1    6    6    0    0 -0.52697336539E+02 -0.47200264123E+02  0.19130154589E+03  0.20396361360E+03  0.00000000000E+00 0. -1.
        -14    1    6    6    0    0 -0.57945892967E+01  0.22282634636E+02  0.17737330659E+03  0.17886135122E+03  0.00000000000E+00 0.  1.
<mgrwt>
<rscale>  2 0.18065996E+03</rscale>
<asrwt>0</asrwt>
<pdfrwt beam="1">  1       21 0.12939092E+00 0.18072626E+03</pdfrwt>
<pdfrwt beam="2">  1       21 0.18771979E-01 0.18072626E+03</pdfrwt>
<totfact> 0.11459448E+04</totfact>
</mgrwt>
</event>
<event>
12    1  0.1074575E-001  0.1905311E+03  0.7546771E-02  0.1158122E+00
         21   -1    0    0  501  502  0.00000000000E+00  0.00000000000E+00  0.45045647185E+02  0.45045647185E+02  0.00000000000E+00 0. -1.
         21   -1    0    0  502  503 -0.00000000000E+00 -0.00000000000E+00 -0.21620270719E+04  0.21620270719E+04  0.00000000000E+00 0. -1.
         -6    2    1    2    0  503 -0.40512523020E+02 -0.66049039881E+02 -0.19339615772E+04  0.19433243373E+04  0.17406423458E+03 0.  0.
        -24    2    3    3    0    0 -0.40021223440E+02 -0.11138049207E+03 -0.13644570160E+04  0.13719989334E+04  0.81429800563E+02 0.  0.
          6    2    1    2  501    0  0.40512523020E+02  0.66049039881E+02 -0.18301984750E+03  0.26374838175E+03  0.17338743929E+03 0.  0.
         24    2    5    5    0    0  0.32222953714E+02 -0.11704629229E+02 -0.16291217797E+03  0.18287342646E+03  0.75676913788E+02 0.  0.
          5    1    5    5  501    0  0.82895693060E+01  0.77753669111E+02 -0.20107669528E+02  0.80874955291E+02  0.47000000000E+01 0. -1.
        -13    1    6    6    0    0 -0.19216784614E+02  0.15652295175E+02 -0.51026669781E+02  0.56727420037E+02  0.00000000000E+00 0.  1.
         14    1    6    6    0    0  0.51439738327E+02 -0.27356924404E+02 -0.11188550819E+03  0.12614600642E+03  0.00000000000E+00 0. -1.
         -5    1    3    3    0  503 -0.49129958034E+00  0.45331452192E+02 -0.56950456120E+03  0.57132540392E+03  0.47000000000E+01 0.  1.
         11    1    4    4    0    0 -0.13190424818E+02  0.33061416884E+01 -0.42080661898E+03  0.42102628001E+03  0.00000000000E+00 0. -1.
        -12    1    4    4    0    0 -0.26830798622E+02 -0.11468663376E+03 -0.94365039701E+03  0.95097265339E+03  0.00000000000E+00 0.  1.
<mgrwt>
<rscale>  2 0.19037638E+03</rscale>
<asrwt>0</asrwt>
<pdfrwt beam="1">  1       21 0.69301019E-02 0.19053109E+03</pdfrwt>
<pdfrwt beam="2">  1       21 0.33261944E+00 0.19053109E+03</pdfrwt>
<totfact> 0.34122395E+03</totfact>
</mgrwt>
</event>
<event>
12    1  0.1074575E-001  0.2065450E+03  0.7546771E-02  0.1144369E+00
         21   -1    0    0  503  502  0.00000000000E+00  0.00000000000E+00  0.11136873927E+04  0.11136873927E+04  0.00000000000E+00 0. -1.
         21   -1    0    0  501  503 -0.00000000000E+00 -0.00000000000E+00 -0.68707135953E+02  0.68707135953E+02  0.00000000000E+00 0. -1.
          6    2    1    2  501    0  0.30838826926E+02  0.10799257831E+03  0.12888110756E+03  0.24330002055E+03  0.17312171989E+03 0.  0.
         24    2    3    3    0    0  0.20607403683E+02 -0.25411007696E-01  0.10146834959E+03  0.13129056855E+03  0.80726214385E+02 0.  0.
         -6    2    1    2    0  502 -0.30838826926E+02 -0.10799257831E+03  0.91609914918E+03  0.93909450809E+03  0.17334189856E+03 0.  0.
        -24    2    5    5    0    0  0.44378054588E+02 -0.47453409700E+02  0.58615435236E+03  0.59528027170E+03  0.80996538604E+02 0.  0.
          5    1    3    3  501    0  0.10231423243E+02  0.10801798931E+03  0.27412757969E+02  0.11200945200E+03  0.47000000000E+01 0. -1.
        -13    1    4    4    0    0  0.96994618383E+01  0.26411967233E+02  0.98613709787E+02  0.10254918494E+03  0.00000000000E+00 0.  1.
         14    1    4    4    0    0  0.10907941845E+02 -0.26437378241E+02  0.28546398023E+01  0.28741383612E+02  0.00000000000E+00 0. -1.
         -5    1    5    5    0  502 -0.75216881514E+02 -0.60539168607E+02  0.32994479682E+03  0.34381423640E+03  0.47000000000E+01 0.  1.
         11    1    6    6    0    0 -0.97020297747E+01 -0.40308668701E+02  0.37136385256E+03  0.37367101726E+03  0.00000000000E+00 0. -1.
        -12    1    6    6    0    0  0.54080084363E+02 -0.71447409992E+01  0.21479049980E+03  0.22160925444E+03  0.00000000000E+00 0.  1.
<mgrwt>
<rscale>  2 0.20649881E+03</rscale>
<asrwt>0</asrwt>
<pdfrwt beam="1">  1       21 0.17133651E+00 0.20654502E+03</pdfrwt>
<pdfrwt beam="2">  1       21 0.10570330E-01 0.20654502E+03</pdfrwt>
<totfact> 0.15205046E+04</totfact>
</mgrwt>
</event>
<event>
12    1  0.1074575E-001  0.2023642E+03  0.7546771E-02  0.1148315E+00
         21   -1    0    0  503  502  0.00000000000E+00  0.00000000000E+00  0.91627852616E+02  0.91627852616E+02  0.00000000000E+00 0.  1.
         21   -1    0    0  501  503 -0.00000000000E+00 -0.00000000000E+00 -0.44195606038E+03  0.44195606038E+03  0.00000000000E+00 0.  1.
          6    2    1    2  501    0  0.94069203258E+02 -0.49706478499E+02 -0.18814353699E+03  0.27631370009E+03  0.17213808801E+03 0.  0.
         24    2    3    3    0    0  0.59825536030E+02 -0.10037212916E+03 -0.12681545357E+03  0.18957927373E+03  0.78768538700E+02 0.  0.
         -6    2    1    2    0  502 -0.94069203258E+02  0.49706478499E+02 -0.16218467078E+03  0.25727021290E+03  0.16900989913E+03 0.  0.
        -24    2    5    5    0    0 -0.15697177637E+02 -0.17999488819E+02 -0.26696074627E+02  0.86666807022E+02  0.78918135149E+02 0.  0.
          5    1    3    3  501    0  0.34243667227E+02  0.50665650660E+02 -0.61328083415E+02  0.86734426368E+02  0.47000000000E+01 0. -1.
        -13    1    4    4    0    0  0.25974152718E+02 -0.53831227361E+02 -0.11674395829E+03  0.13115490630E+03  0.00000000000E+00 0.  1.
         14    1    4    4    0    0  0.33851383313E+02 -0.46540901798E+02 -0.10071495282E+02  0.58424367430E+02  0.00000000000E+00 0. -1.
         -5    1    5    5    0  502 -0.78372025621E+02  0.67705967318E+02 -0.13548859615E+03  0.17060340588E+03  0.47000000000E+01 0.  1.
         11    1    6    6    0    0  0.30110760346E+02 -0.20496730231E+02 -0.14432500544E+02  0.39179980994E+02  0.00000000000E+00 0. -1.
        -12    1    6    6    0    0 -0.45807937983E+02  0.24972414120E+01 -0.12263574083E+02  0.47486826027E+02  0.00000000000E+00 0.  1.
<mgrwt>
<rscale>  2 0.20169737E+03</rscale>
<asrwt>0</asrwt>
<pdfrwt beam="1">  1       21 0.14096592E-01 0.20236420E+03</pdfrwt>
<pdfrwt beam="2">  1       21 0.67993241E-01 0.20236420E+03</pdfrwt>
<totfact> 0.86382058E+04</totfact>
</mgrwt>
</event>
<event>
12    1  0.1074575E-001  0.2036118E+03  0.7546771E-02  0.1147646E+00
         21   -1    0    0  501  502  0.00000000000E+00  0.00000000000E+00  0.24335970028E+03  0.24335970028E+03  0.00000000000E+00 0.  1.
         21   -1    0    0  502  503 -0.00000000000E+00 -0.00000000000E+00 -0.21251815574E+03  0.21251815574E+03  0.00000000000E+00 0. -1.
         -6    2    1    2    0  503  0.64159655179E+02  0.75237892922E+02 -0.90294020470E+02  0.22273473009E+03  0.17799030302E+03 0.  0.
        -24    2    3    3    0    0  0.58867060605E+01 -0.26903614980E+02 -0.43553061766E+02  0.96103646005E+02  0.81120797451E+02 0.  0.
          6    2    1    2  501    0 -0.64159655179E+02 -0.75237892922E+02  0.12113556501E+03  0.23314312593E+03  0.17292972612E+03 0.  0.
         24    2    5    5    0    0  0.23464081373E+02 -0.39640570863E+02  0.21283425781E+02  0.95529070500E+02  0.80937513704E+02 0.  0.
          5    1    5    5  501    0 -0.87623736552E+02 -0.35597322059E+02  0.99852139226E+02  0.13761405543E+03  0.47000000000E+01 0. -1.
        -13    1    6    6    0    0  0.12854819673E+02  0.15792493277E+02  0.32147234381E+02  0.38053829125E+02  0.00000000000E+00 0.  1.
         14    1    6    6    0    0  0.10609261700E+02 -0.55433064140E+02 -0.10863808601E+02  0.57475241375E+02  0.00000000000E+00 0. -1.
         -5    1    3    3    0  503  0.58272949118E+02  0.10214150790E+03 -0.46740958704E+02  0.12663108408E+03  0.47000000000E+01 0.  1.
         11    1    4    4    0    0  0.15497395877E+02 -0.35509183848E+02 -0.62289440342E+02  0.73355611882E+02  0.00000000000E+00 0. -1.
        -12    1    4    4    0    0 -0.96106898169E+01  0.86055688673E+01  0.18736378576E+02  0.22748034123E+02  0.00000000000E+00 0.  1.
<mgrwt>
<rscale>  2 0.20250054E+03</rscale>
<asrwt>0</asrwt>
<pdfrwt beam="1">  1       21 0.37439954E-01 0.20361176E+03</pdfrwt>
<pdfrwt beam="2">  1       21 0.32695101E-01 0.20361176E+03</pdfrwt>
<totfact> 0.61635441E+04</totfact>
</mgrwt>
</event>
<event>
12    1  0.1074575E-001  0.2170501E+03  0.7546771E-02  0.1136130E+00
         21   -1    0    0  503  502  0.00000000000E+00  0.00000000000E+00  0.17478688613E+03  0.17478688613E+03  0.00000000000E+00 0. -1.
         21   -1    0    0  501  503 -0.00000000000E+00 -0.00000000000E+00 -0.35229222183E+03  0.35229222183E+03  0.00000000000E+00 0. -1.
          6    2    1    2  501    0  0.13100664735E+03  0.11771931754E+00  0.39144299253E+02  0.22040697436E+03  0.17287047948E+03 0.  0.
         24    2    3    3    0    0  0.10731258012E+03 -0.40194205799E+02 -0.25381804042E+02  0.14058111305E+03  0.77377317977E+02 0.  0.
         -6    2    1    2    0  502 -0.13100664735E+03 -0.11771931754E+00 -0.21664963496E+03  0.30667213360E+03  0.17305484012E+03 0.  0.
        -24    2    5    5    0    0 -0.15326835050E+03 -0.33895402990E+02 -0.18253304397E+03  0.25354448428E+03  0.79538718621E+02 0.  0.
          5    1    3    3  501    0  0.23694067236E+02  0.40311925116E+02  0.64526103295E+02  0.79825861318E+02  0.47000000000E+01 0. -1.
        -13    1    4    4    0    0  0.96003420164E+01 -0.36688114622E+02 -0.19465050264E+02  0.42627133415E+02  0.00000000000E+00 0.  1.
         14    1    4    4    0    0  0.97712238102E+02 -0.35060911763E+01 -0.59167537779E+01  0.97953979630E+02  0.00000000000E+00 0. -1.
         -5    1    5    5    0  502  0.22261703147E+02  0.33777683673E+02 -0.34116590988E+02  0.53127649317E+02  0.47000000000E+01 0.  1.
         11    1    6    6    0    0 -0.27511393779E+02  0.14677437818E+02 -0.74581770170E+02  0.80837765990E+02  0.00000000000E+00 0. -1.
        -12    1    6    6    0    0 -0.12575695672E+03 -0.48572840808E+02 -0.10795127380E+03  0.17270671829E+03  0.00000000000E+00 0.  1.
<mgrwt>
<rscale>  2 0.21701332E+03</rscale>
<asrwt>0</asrwt>
<pdfrwt beam="1">  1       21 0.26890290E-01 0.21705007E+03</pdfrwt>
<pdfrwt beam="2">  1       21 0.54198803E-01 0.21705007E+03</pdfrwt>
<totfact> 0.41867307E+04</totfact>
</mgrwt>
</event>
<event>
12    1  0.1074575E-001  0.2177254E+03  0.7546771E-02  0.1136477E+00
         21   -1    0    0  503  502  0.00000000000E+00  0.00000000000E+00  0.70174066136E+03  0.70174066136E+03  0.00000000000E+00 0. -1.
         21   -1    0    0  501  503 -0.00000000000E+00 -0.00000000000E+00 -0.86259816229E+02  0.86259816229E+02  0.00000000000E+00 0.  1.
          6    2    1    2  501    0 -0.53295607210E+01 -0.12446494584E+03  0.11991391977E+03  0.24856329280E+03  0.17856213320E+03 0.  0.
         24    2    3    3    0    0  0.31897108231E+02 -0.37404755656E+02 -0.61796777803E+00  0.95216210948E+02  0.81542649478E+02 0.  0.
         -6    2    1    2    0  502  0.53295607210E+01  0.12446494584E+03  0.49556692536E+03  0.53943718479E+03  0.17287559649E+03 0.  0.
        -24    2    5    5    0    0 -0.35045003234E+02  0.14290960180E+02  0.28358252189E+03  0.29709880598E+03  0.80101622943E+02 0.  0.
          5    1    3    3  501    0 -0.37226668952E+02 -0.87060190183E+02  0.12053188755E+03  0.15334708185E+03  0.47000000000E+01 0. -1.
        -13    1    4    4    0    0  0.11382883276E+02  0.21513135319E+02  0.17815850476E+02  0.30162717900E+02  0.00000000000E+00 0.  1.
         14    1    4    4    0    0  0.20514224954E+02 -0.58917890975E+02 -0.18433818254E+02  0.65053493048E+02  0.00000000000E+00 0. -1.
         -5    1    5    5    0  502  0.40374563955E+02  0.11017398566E+03  0.21198440347E+03  0.24233837881E+03  0.47000000000E+01 0.  1.
         13    1    6    6    0    0 -0.57650676256E+02  0.17083926139E+02  0.24521558467E+03  0.25247998726E+03  0.00000000000E+00 0. -1.
        -14    1    6    6    0    0  0.22605673023E+02 -0.27929659587E+01  0.38366937222E+02  0.44618818714E+02  0.00000000000E+00 0.  1.
<mgrwt>
<rscale>  2 0.21655634E+03</rscale>
<asrwt>0</asrwt>
<pdfrwt beam="1">  1       21 0.10796010E+00 0.21772543E+03</pdfrwt>
<pdfrwt beam="2">  1       21 0.13270741E-01 0.21772543E+03</pdfrwt>
<totfact> 0.33005638E+04</totfact>
</mgrwt>
</event>
<event>
12    1  0.1074575E-001  0.1995996E+03  0.7546771E-02  0.1150145E+00
         21   -1    0    0  503  502  0.00000000000E+00  0.00000000000E+00  0.16238207573E+03  0.16238207573E+03  0.00000000000E+00 0.  1.
         21   -1    0    0  501  503 -0.00000000000E+00 -0.00000000000E+00 -0.25341556896E+03  0.25341556896E+03  0.00000000000E+00 0.  1.
          6    2    1    2  501    0 -0.42182041562E+02  0.89623185365E+02 -0.83470512038E+02  0.21605482043E+03  0.17291824388E+03 0.  0.
         24    2    3    3    0    0  0.69196232448E+01  0.65848940322E+02  0.12802669847E+02  0.10529921667E+03  0.80870591375E+02 0.  0.
         -6    2    1    2    0  502  0.42182041562E+02 -0.89623185365E+02 -0.75629811975E+01  0.19974282426E+03  0.17328692153E+03 0.  0.
        -24    2    5    5    0    0 -0.74382602217E+01 -0.11476996862E+03  0.11524607109E+02  0.14074315405E+03  0.80301590468E+02 0.  0.
          5    1    3    3  501    0 -0.49101664807E+02  0.23774245044E+02 -0.96273181885E+02  0.11075560376E+03  0.47000000000E+01 0. -1.
        -11    1    4    4    0    0  0.10024975723E+01  0.77495906783E+02 -0.10870145054E+02  0.78260977652E+02  0.00000000000E+00 0.  1.
         12    1    4    4    0    0  0.59171256725E+01 -0.11646966462E+02  0.23672814901E+02  0.27038239021E+02  0.00000000000E+00 0. -1.
         -5    1    5    5    0  502  0.49620301784E+02  0.25146783253E+02 -0.19087588307E+02  0.58999670207E+02  0.47000000000E+01 0.  1.
         13    1    6    6    0    0 -0.22231913467E+02 -0.20108862301E+02  0.30836664216E+02  0.43006094678E+02  0.00000000000E+00 0. -1.
        -14    1    6    6    0    0  0.14793653245E+02 -0.94661106317E+02 -0.19312057106E+02  0.97737059375E+02  0.00000000000E+00 0.  1.
<mgrwt>
<rscale>  2 0.19951955E+03</rscale>
<asrwt>0</asrwt>
<pdfrwt beam="1">  1       21 0.24981858E-01 0.19959959E+03</pdfrwt>
<pdfrwt beam="2">  1       21 0.38987011E-01 0.19959959E+03</pdfrwt>
<totfact> 0.95941629E+04</totfact>
</mgrwt>
</event>
<event>
12    1  0.1074575E-001  0.1974089E+03  0.7546771E-02  0.1152372E+00
         21   -1    0    0  503  502  0.00000000000E+00  0.00000000000E+00  0.12796008004E+03  0.12796008004E+03  0.00000000000E+00 0. -1.
         21   -1    0    0  501  503 -0.00000000000E+00 -0.00000000000E+00 -0.42018662457E+03  0.42018662457E+03  0.00000000000E+00 0. -1.
          6    2    1    2  501    0  0.49149876589E+02 -0.81751564335E+02 -0.29124607362E+03  0.35073541326E+03  0.17056384749E+03 0.  0.
         24    2    3    3    0    0  0.93056135912E+02 -0.86596987424E+02 -0.23918847337E+03  0.28230061599E+03  0.79523765847E+02 0.  0.
         -6    2    1    2    0  502 -0.49149876589E+02  0.81751564335E+02 -0.98047090995E+00  0.19741129135E+03  0.17283294822E+03 0.  0.
        -24    2    5    5    0    0 -0.57547186234E+02  0.12091331416E+03 -0.54017494083E+01  0.15684289032E+03  0.81478863301E+02 0.  0.
          5    1    3    3  501    0 -0.43906259323E+02  0.48454230898E+01 -0.52057600255E+02  0.68434797267E+02  0.47000000000E+01 0. -1.
        -13    1    4    4    0    0  0.14938109887E+02 -0.67101394222E+02 -0.96827374328E+02  0.11874883011E+03  0.00000000000E+00 0.  1.
         14    1    4    4    0    0  0.78118026025E+02 -0.19495593203E+02 -0.14236109904E+03  0.16355178588E+03  0.00000000000E+00 0. -1.
         -5    1    5    5    0  502  0.83973096453E+01 -0.39161749822E+02  0.44212784983E+01  0.40568401028E+02  0.47000000000E+01 0.  1.
         11    1    6    6    0    0  0.24509330108E+00  0.45357167577E+02  0.31056219208E+02  0.54971096704E+02  0.00000000000E+00 0. -1.
        -12    1    6    6    0    0 -0.57792279535E+02  0.75556146579E+02 -0.36457968616E+02  0.10187179362E+03  0.00000000000E+00 0.  1.
<mgrwt>
<rscale>  2 0.19691109E+03</rscale>
<asrwt>0</asrwt>
<pdfrwt beam="1">  1       21 0.19686166E-01 0.19740886E+03</pdfrwt>
<pdfrwt beam="2">  1       21 0.64644095E-01 0.19740886E+03</pdfrwt>
<totfact> 0.52318654E+04</totfact>
</mgrwt>
</event>
<event>
12    1  0.1074575E-001  0.1800609E+03  0.7546771E-02  0.1168279E+00
         21   -1    0    0  501  502  0.00000000000E+00  0.00000000000E+00  0.10293898388E+03  0.10293898388E+03  0.00000000000E+00 0.  1.
         21   -1    0    0  502  503 -0.00000000000E+00 -0.00000000000E+00 -0.74759896193E+03  0.74759896193E+03  0.00000000000E+00 0.  1.
         -6    2    1    2    0  503  0.97002234433E+01  0.49343581583E+02 -0.64809256616E+03  0.67264098171E+03  0.17289601671E+03 0.  0.
        -24    2    3    3    0    0  0.41371428273E+02  0.62164842434E+02 -0.24338975929E+03  0.26647118737E+03  0.78690889326E+02 0.  0.
          6    2    1    2  501    0 -0.97002234433E+01 -0.49343581583E+02  0.34325881099E+01  0.17789696409E+03  0.17060675190E+03 0.  0.
         24    2    5    5    0    0 -0.76521045154E+01  0.14397940751E+02 -0.47989045792E+02  0.95839356924E+02  0.81341123782E+02 0.  0.
          5    1    5    5  501    0 -0.20481189279E+01 -0.63741522334E+02  0.51421633902E+02  0.82057607166E+02  0.47000000000E+01 0. -1.
        -11    1    6    6    0    0  0.18231822798E+02 -0.15335330491E+02  0.99028488071E+01  0.25799963921E+02  0.00000000000E+00 0.  1.
         12    1    6    6    0    0 -0.25883927314E+02  0.29733271242E+02 -0.57891894599E+02  0.70039393003E+02  0.00000000000E+00 0. -1.
         -5    1    3    3    0  503 -0.31671204829E+02 -0.12821260851E+02 -0.40470280687E+03  0.40616979434E+03  0.47000000000E+01 0.  1.
         13    1    4    4    0    0  0.40986461277E+02  0.93306201746E+01 -0.46804809189E+02  0.62909781784E+02  0.00000000000E+00 0. -1.
        -14    1    4    4    0    0  0.38496699616E+00  0.52834222260E+02 -0.19658495010E+03  0.20356140559E+03  0.00000000000E+00 0.  1.
<mgrwt>
<rscale>  2 0.17950908E+03</rscale>
<asrwt>0</asrwt>
<pdfrwt beam="1">  1       21 0.15836767E-01 0.18006087E+03</pdfrwt>
<pdfrwt beam="2">  1       21 0.11501522E+00 0.18006087E+03</pdfrwt>
<totfact> 0.20987203E+04</totfact>
</mgrwt>
</event>
<event>
12    1  0.1074575E-001  0.2072765E+03  0.7546771E-02  0.1144154E+00
         21   -1    0    0  503  502  0.00000000000E+00  0.00000000000E+00  0.16523802079E+03  0.16523802079E+03  0.00000000000E+00 0.  1.
         21   -1    0    0  501  503 -0.00000000000E+00 -0.00000000000E+00 -0.47868097301E+03  0.47868097301E+03  0.00000000000E+00 0. -1.
          6    2    1    2  501    0  0.98686239834E+01 -0.11052205878E+03 -0.37600994936E+03  0.42935655066E+03  0.17507441377E+03 0.  0.
         24    2    3    3    0    0  0.41636911777E+02 -0.63592568086E+02 -0.10555540190E+03  0.15298840226E+03  0.80534844744E+02 0.  0.
         -6    2    1    2    0  502 -0.98686239834E+01  0.11052205878E+03  0.62566997140E+02  0.21456244315E+03  0.17265543044E+03 0.  0.
        -24    2    5    5    0    0  0.29298714442E+02  0.28086812512E+02 -0.18434016159E+02  0.92444040019E+02  0.80986442558E+02 0.  0.
          5    1    3    3  501    0 -0.31768287794E+02 -0.46929490699E+02 -0.27045454746E+03  0.27636814840E+03  0.47000000000E+01 0. -1.
        -11    1    4    4    0    0  0.41590194794E+02 -0.82200412213E+02 -0.87050116494E+02  0.12674531491E+03  0.00000000000E+00 0.  1.
         12    1    4    4    0    0  0.46716983125E-01  0.18607844127E+02 -0.18505285405E+02  0.26243087346E+02  0.00000000000E+00 0. -1.
         -5    1    5    5    0  502 -0.39167338426E+02  0.82435246273E+02  0.81001013300E+02  0.12211840313E+03  0.47000000000E+01 0.  1.
         13    1    6    6    0    0  0.29151114241E+02 -0.23181652093E+02 -0.17538235955E+02  0.41167537887E+02  0.00000000000E+00 0. -1.
        -14    1    6    6    0    0  0.14760020134E+00  0.51268464604E+02 -0.89578020435E+00  0.51276502132E+02  0.00000000000E+00 0.  1.
<mgrwt>
<rscale>  2 0.20676488E+03</rscale>
<asrwt>0</asrwt>
<pdfrwt beam="1">  1       21 0.25421234E-01 0.20727654E+03</pdfrwt>
<pdfrwt beam="2">  1       21 0.73643226E-01 0.20727654E+03</pdfrwt>
<totfact> 0.24088783E+04</totfact>
</mgrwt>
</event>
<event>
12    1  0.1074575E-001  0.1764345E+03  0.7546771E-02  0.1171358E+00
         21   -1    0    0  503  502  0.00000000000E+00  0.00000000000E+00  0.13255421631E+03  0.13255421631E+03  0.00000000000E+00 0. -1.
         21   -1    0    0  501  503 -0.00000000000E+00 -0.00000000000E+00 -0.24201159062E+03  0.24201159062E+03  0.00000000000E+00 0. -1.
          6    2    1    2  501    0 -0.12101381797E+02  0.31372466987E+02 -0.87705528254E+02  0.19703148218E+03  0.17320066443E+03 0.  0.
         24    2    3    3    0    0 -0.59679207122E+02  0.59145612856E+02 -0.43338295995E+02  0.12614045036E+03  0.83506850228E+02 0.  0.
         -6    2    1    2    0  502  0.12101381797E+02 -0.31372466987E+02 -0.21751846066E+02  0.17753432475E+03  0.17295843006E+03 0.  0.
        -24    2    5    5    0    0 -0.12449912859E+02 -0.12650330048E+02  0.53021687450E+02  0.96500653999E+02  0.78651418942E+02 0.  0.
          5    1    3    3  501    0  0.47577825325E+02 -0.27773145869E+02 -0.44367232258E+02  0.70891031819E+02  0.47000000000E+01 0. -1.
        -11    1    4    4    0    0  0.15247432618E+02  0.35242796216E+02 -0.52535934219E+01  0.38757439678E+02  0.00000000000E+00 0.  1.
         12    1    4    4    0    0 -0.74926639740E+02  0.23902816640E+02 -0.38084702573E+02  0.87383010684E+02  0.00000000000E+00 0. -1.
         -5    1    5    5    0  502  0.24551294656E+02 -0.18722136939E+02 -0.74773533515E+02  0.81033670750E+02  0.47000000000E+01 0.  1.
         11    1    6    6    0    0 -0.23719164125E+01  0.31441798168E+02  0.76707969671E+01  0.32450790216E+02  0.00000000000E+00 0. -1.
        -12    1    6    6    0    0 -0.10077996446E+02 -0.44092128216E+02  0.45350890483E+02  0.64049863783E+02  0.00000000000E+00 0.  1.
<mgrwt>
<rscale>  2 0.17637506E+03</rscale>
<asrwt>0</asrwt>
<pdfrwt beam="1">  1       21 0.20392956E-01 0.17643454E+03</pdfrwt>
<pdfrwt beam="2">  1       21 0.37232552E-01 0.17643454E+03</pdfrwt>
<totfact> 0.15565821E+05</totfact>
</mgrwt>
</event>
<event>
12    1  0.1074575E-001  0.1809191E+03  0.7546771E-02  0.1167956E+00
         21   -1    0    0  503  502  0.00000000000E+00  0.00000000000E+00  0.61650001242E+02  0.61650001242E+02  0.00000000000E+00 0.  1.
         21   -1    0    0  501  503 -0.00000000000E+00 -0.00000000000E+00 -0.63708260610E+03  0.63708260610E+03  0.00000000000E+00 0.  1.
          6    2    1    2  501    0  0.30267671558E+02  0.18101179795E+02 -0.13977419234E+03  0.22862314189E+03  0.17744839113E+03 0.  0.
         24    2    3    3    0    0  0.55979866199E+02 -0.16024478073E+02 -0.18617282749E+02  0.10006667873E+03  0.79222519896E+02 0.  0.
         -6    2    1    2    0  502 -0.30267671558E+02 -0.18101179795E+02 -0.43565841252E+03  0.47010946545E+03  0.17309209241E+03 0.  0.
        -24    2    5    5    0    0  0.38752761768E+02 -0.11858545114E+02 -0.33997838576E+03  0.35187432590E+03  0.81165490238E+02 0.  0.
          5    1    3    3  501    0 -0.25712194641E+02  0.34125657868E+02 -0.12115690959E+03  0.12855646316E+03  0.47000000000E+01 0. -1.
        -11    1    4    4    0    0  0.36691032441E+01 -0.39200026999E+02  0.15495208942E+01  0.39401845773E+02  0.00000000000E+00 0.  1.
         12    1    4    4    0    0  0.52310762955E+02  0.23175548926E+02 -0.20166803643E+02  0.60664832961E+02  0.00000000000E+00 0. -1.
         -5    1    5    5    0  502 -0.69020433326E+02 -0.62426346808E+01 -0.95680026759E+02  0.11823513955E+03  0.47000000000E+01 0.  1.
         11    1    6    6    0    0  0.25932557595E+02 -0.44652372131E+02 -0.14943324309E+03  0.15810321319E+03  0.00000000000E+00 0. -1.
        -12    1    6    6    0    0  0.12820204172E+02  0.32793827017E+02 -0.19054514267E+03  0.19377111271E+03  0.00000000000E+00 0.  1.
<mgrwt>
<rscale>  2 0.17984183E+03</rscale>
<asrwt>0</asrwt>
<pdfrwt beam="1">  1       21 0.94846151E-02 0.18091909E+03</pdfrwt>
<pdfrwt beam="2">  1       21 0.98012713E-01 0.18091909E+03</pdfrwt>
<totfact> 0.77083432E+04</totfact>
</mgrwt>
</event>
<event>
12    1  0.1074575E-001  0.1867341E+03  0.7546771E-02  0.1162624E+00
         21   -1    0    0  501  502  0.00000000000E+00  0.00000000000E+00  0.36916116772E+03  0.36916116772E+03  0.00000000000E+00 0.  1.
         21   -1    0    0  502  503 -0.00000000000E+00 -0.00000000000E+00 -0.10096751344E+03  0.10096751344E+03  0.00000000000E+00 0.  1.
         -6    2    1    2    0  503  0.20061923497E+02 -0.65843704668E+02  0.20615050527E+03  0.27815044855E+03  0.17358504252E+03 0.  0.
        -24    2    3    3    0    0  0.74129697955E+02 -0.30739124903E+02  0.16030738016E+03  0.19890817527E+03  0.86173662658E+02 0.  0.
          6    2    1    2  501    0 -0.20061923497E+02  0.65843704668E+02  0.62043149009E+02  0.19197823261E+03  0.16813213625E+03 0.  0.
         24    2    5    5    0    0 -0.43145783626E+02  0.91634791940E+02  0.12771754157E+02  0.13158117033E+03  0.83018027824E+02 0.  0.
          5    1    5    5  501    0  0.23083860128E+02 -0.25791087273E+02  0.49271394851E+02  0.60397062277E+02  0.47000000000E+01 0. -1.
        -13    1    6    6    0    0  0.51693944212E+01  0.79763820297E+02  0.16760159285E+02  0.81669410468E+02  0.00000000000E+00 0.  1.
         14    1    6    6    0    0 -0.48315178047E+02  0.11870971644E+02 -0.39884051275E+01  0.49911759866E+02  0.00000000000E+00 0. -1.
         -5    1    3    3    0  503 -0.54067774458E+02 -0.35104579764E+02  0.45843125111E+02  0.79242273283E+02  0.47000000000E+01 0.  1.
         13    1    4    4    0    0 -0.31256048356E+01 -0.79114115472E+01 -0.83997625739E+01  0.11954741718E+02  0.00000000000E+00 0. -1.
        -14    1    4    4    0    0  0.77255302791E+02 -0.22827713356E+02  0.16870714274E+03  0.18695343355E+03  0.00000000000E+00 0.  1.
<mgrwt>
<rscale>  2 0.18545664E+03</rscale>
<asrwt>0</asrwt>
<pdfrwt beam="1">  1       21 0.56794025E-01 0.18673415E+03</pdfrwt>
<pdfrwt beam="2">  1       21 0.15533464E-01 0.18673415E+03</pdfrwt>
<totfact> 0.10748622E+05</totfact>
</mgrwt>
</event>
<event>
12    1  0.1074575E-001  0.2013597E+03  0.7546771E-02  0.1148876E+00
         21   -1    0    0  501  502  0.00000000000E+00  0.00000000000E+00  0.63925732612E+03  0.63925732612E+03  0.00000000000E+00 0. -1.
         21   -1    0    0  502  503 -0.00000000000E+00 -0.00000000000E+00 -0.97575249619E+02  0.97575249619E+02  0.00000000000E+00 0. -1.
         -6    2    1    2    0  503 -0.95670116650E+01  0.10144539083E+03  0.50977911177E+02  0.20642113912E+03  0.17212856886E+03 0.  0.
        -24    2    3    3    0    0  0.16492595983E+02 -0.16671179964E+01 -0.11991493519E+02  0.82733918463E+02  0.80164333359E+02 0.  0.
          6    2    1    2  501    0  0.95670116650E+01 -0.10144539083E+03  0.49070416532E+03  0.53041143661E+03  0.17367503906E+03 0.  0.
         24    2    5    5    0    0  0.59725145490E+02 -0.17913591086E+02  0.21659553549E+03  0.23946293446E+03  0.80875714746E+02 0.  0.
          5    1    5    5  501    0 -0.50158133825E+02 -0.83531799744E+02  0.27410862984E+03  0.29094850216E+03  0.47000000000E+01 0. -1.
        -13    1    6    6    0    0  0.15882156384E+02  0.12960335987E+02  0.48932191710E+01  0.21075027738E+02  0.00000000000E+00 0.  1.
         14    1    6    6    0    0  0.43842989106E+02 -0.30873927073E+02  0.21170231632E+03  0.21838790672E+03  0.00000000000E+00 0. -1.
         -5    1    3    3    0  503 -0.26059607648E+02  0.10311250883E+03  0.62969404696E+02  0.12368722066E+03  0.47000000000E+01 0.  1.
         11    1    4    4    0    0  0.11387043202E+02  0.14544977480E+02  0.31233556656E+02  0.36287135243E+02  0.00000000000E+00 0. -1.
        -12    1    4    4    0    0  0.51055527812E+01 -0.16212095477E+02 -0.43225050175E+02  0.46446783221E+02  0.00000000000E+00 0.  1.
<mgrwt>
<rscale>  2 0.20102575E+03</rscale>
<asrwt>0</asrwt>
<pdfrwt beam="1">  1       21 0.98347279E-01 0.20135966E+03</pdfrwt>
<pdfrwt beam="2">  1       21 0.15011577E-01 0.20135966E+03</pdfrwt>
<totfact> 0.33289146E+04</totfact>
</mgrwt>
</event>
<event>
12    1  0.1074575E-001  0.1867204E+03  0.7546771E-02  0.1161888E+00
         21   -1    0    0  501  502  0.00000000000E+00  0.00000000000E+00  0.18749149087E+03  0.18749149087E+03  0.00000000000E+00 0.  1.
         21   -1    0    0  502  503 -0.00000000000E+00 -0.00000000000E+00 -0.25212801723E+03  0.25212801723E+03  0.00000000000E+00 0. -1.
         -6    2    1    2    0  503 -0.31463490053E+02  0.62975396971E+02 -0.14662124339E+03  0.23740742087E+03  0.17294115370E+03 0.  0.
        -24    2    3    3    0    0 -0.69630401151E+01  0.97029292520E+01 -0.15185196422E+03  0.17835085219E+03  0.92775948798E+02 0.  0.
          6    2    1    2  501    0  0.31463490053E+02 -0.62975396971E+02  0.81984717030E+02  0.20221208722E+03  0.17091630279E+03 0.  0.
         24    2    5    5    0    0 -0.43805708729E+02 -0.40274116569E+02  0.69207612353E+02  0.12242396266E+03  0.81590369788E+02 0.  0.
          5    1    5    5  501    0  0.75269198782E+02 -0.22701280402E+02  0.12777104677E+02  0.79788124562E+02  0.47000000000E+01 0. -1.
        -13    1    6    6    0    0 -0.44563114865E+02 -0.37028894013E+01  0.65362528791E+00  0.44721469368E+02  0.00000000000E+00 0.  1.
         14    1    6    6    0    0  0.75740613631E+00 -0.36571227168E+02  0.68553987065E+02  0.77702493288E+02  0.00000000000E+00 0. -1.
         -5    1    3    3    0  503 -0.24500449938E+02  0.53272467719E+02  0.52307208346E+01  0.59056568682E+02  0.47000000000E+01 0.  1.
         11    1    4    4    0    0  0.19519072981E+02  0.14583548211E+02 -0.14933019379E+03  0.15130492678E+03  0.00000000000E+00 0. -1.
        -12    1    4    4    0    0 -0.26482113096E+02 -0.48806189588E+01 -0.25217704290E+01  0.27045925415E+02  0.00000000000E+00 0.  1.
<mgrwt>
<rscale>  2 0.18625013E+03</rscale>
<asrwt>0</asrwt>
<pdfrwt beam="1">  1       21 0.28844845E-01 0.18672036E+03</pdfrwt>
<pdfrwt beam="2">  1       21 0.38788925E-01 0.18672036E+03</pdfrwt>
<totfact> 0.73892031E+04</totfact>
</mgrwt>
</event>
<event>
12    1  0.1074575E-001  0.2015111E+03  0.7546771E-02  0.1149161E+00
         21   -1    0    0  501  502  0.00000000000E+00  0.00000000000E+00  0.80275987702E+02  0.80275987702E+02  0.00000000000E+00 0.  1.
         21   -1    0    0  502  503 -0.00000000000E+00 -0.00000000000E+00 -0.56105035243E+03  0.56105035243E+03  0.00000000000E+00 0. -1.
         -6    2    1    2    0  503 -0.20347835752E+02 -0.95984526573E+02 -0.13433727064E+03  0.24218426133E+03  0.17601037013E+03 0.  0.
        -24    2    3    3    0    0  0.11279905714E+02 -0.43147330598E+02 -0.15208884167E+03  0.17792469719E+03  0.80853285040E+02 0.  0.
          6    2    1    2  501    0  0.20347835752E+02  0.95984526573E+02 -0.34643709409E+03  0.39914207880E+03  0.17224597281E+03 0.  0.
         24    2    5    5    0    0 -0.22150195022E+02  0.44536565556E+02 -0.30782873135E+03  0.32190432258E+03  0.79935775734E+02 0.  0.
          5    1    5    5  501    0  0.42498030773E+02  0.51447961017E+02 -0.38608362741E+02  0.77237756220E+02  0.47000000000E+01 0. -1.
        -11    1    6    6    0    0 -0.33304913722E+02  0.56388372429E+02 -0.15576654899E+03  0.16897361808E+03  0.00000000000E+00 0.  1.
         12    1    6    6    0    0  0.11154718700E+02 -0.11851806872E+02 -0.15206218236E+03  0.15293070450E+03  0.00000000000E+00 0. -1.
         -5    1    3    3    0  503 -0.31627741465E+02 -0.52837195975E+02  0.17751571029E+02  0.64259564134E+02  0.47000000000E+01 0.  1.
         11    1    4    4    0    0  0.13980670237E+02  0.21229338424E+02 -0.63358143678E+02  0.68267110094E+02  0.00000000000E+00 0. -1.
        -12    1    4    4    0    0 -0.27007645229E+01 -0.64376669022E+02 -0.88730697988E+02  0.10965758710E+03  0.00000000000E+00 0.  1.
<mgrwt>
<rscale>  2 0.20068614E+03</rscale>
<asrwt>0</asrwt>
<pdfrwt beam="1">  1       21 0.12350152E-01 0.20151108E+03</pdfrwt>
<pdfrwt beam="2">  1       21 0.86315439E-01 0.20151108E+03</pdfrwt>
<totfact> 0.64206119E+04</totfact>
</mgrwt>
</event>
<event>
12    1  0.1074575E-001  0.1917821E+03  0.7546771E-02  0.1157302E+00
         21   -1    0    0  501  502  0.00000000000E+00  0.00000000000E+00  0.31218873216E+03  0.31218873216E+03  0.00000000000E+00 0. -1.
         21   -1    0    0  502  503 -0.00000000000E+00 -0.00000000000E+00 -0.12623757772E+03  0.12623757772E+03  0.00000000000E+00 0. -1.
         -6    2    1    2    0  503 -0.19448574330E+02  0.75085261901E+02  0.15393527951E+03  0.24591958719E+03  0.17539763251E+03 0.  0.
        -24    2    3    3    0    0  0.12380496763E+02  0.11135058064E+03  0.82287897391E+02  0.15941120335E+03  0.78028233268E+02 0.  0.
          6    2    1    2  501    0  0.19448574330E+02 -0.75085261901E+02  0.32015874930E+02  0.19250672269E+03  0.17325639508E+03 0.  0.
         24    2    5    5    0    0  0.59125692860E+02 -0.63754496900E+01  0.48718099127E+02  0.11128870546E+03  0.80468806789E+02 0.  0.
          5    1    5    5  501    0 -0.39677118530E+02 -0.68709812211E+02 -0.16702224198E+02  0.81218017225E+02  0.47000000000E+01 0. -1.
        -13    1    6    6    0    0  0.89835584696E+01  0.11907171256E+02  0.55517297018E+02  0.57486131530E+02  0.00000000000E+00 0.  1.
         14    1    6    6    0    0  0.50142134390E+02 -0.18282620946E+02 -0.67991978905E+01  0.53802573933E+02  0.00000000000E+00 0. -1.
         -5    1    3    3    0  503 -0.31829071093E+02 -0.36265318744E+02  0.71647382120E+02  0.86508383842E+02  0.47000000000E+01 0.  1.
         13    1    4    4    0    0 -0.83819221776E+01  0.91977861790E+02  0.25333899591E+02  0.95770507711E+02  0.00000000000E+00 0. -1.
        -14    1    4    4    0    0  0.20762418941E+02  0.19372718855E+02  0.56953997800E+02  0.63640695640E+02  0.00000000000E+00 0.  1.
<mgrwt>
<rscale>  2 0.19129113E+03</rscale>
<asrwt>0</asrwt>
<pdfrwt beam="1">  1       21 0.48029035E-01 0.19178210E+03</pdfrwt>
<pdfrwt beam="2">  1       21 0.19421166E-01 0.19178210E+03</pdfrwt>
<totfact> 0.10104952E+05</totfact>
</mgrwt>
</event>
<event>
12    1  0.1074575E-001  0.1732694E+03  0.7546771E-02  0.1174544E+00
         21   -1    0    0  501  502  0.00000000000E+00  0.00000000000E+00  0.91972554020E+03  0.91972554020E+03  0.00000000000E+00 0.  1.
         21   -1    0    0  502  503 -0.00000000000E+00 -0.00000000000E+00 -0.36096529297E+02  0.36096529297E+02  0.00000000000E+00 0.  1.
         -6    2    1    2    0  503  0.72411863515E+01  0.65292987468E+01  0.29269164079E+03  0.34000614941E+03  0.17274466279E+03 0.  0.
        -24    2    3    3    0    0  0.61930048778E+02  0.36297157634E+02  0.15727378192E+03  0.19088511267E+03  0.80927555047E+02 0.  0.
          6    2    1    2  501    0 -0.72411863515E+01 -0.65292987468E+01  0.59093737011E+03  0.61581592009E+03  0.17299481356E+03 0.  0.
         24    2    5    5    0    0  0.29822673019E+02  0.34154047560E+02  0.50713409339E+03  0.51544688340E+03  0.80278329141E+02 0.  0.
          5    1    5    5  501    0 -0.37063859371E+02 -0.40683346306E+02  0.83803276715E+02  0.10036903669E+03  0.47000000000E+01 0. -1.
        -13    1    6    6    0    0  0.54997412400E+02  0.16638191626E+02  0.25153027411E+03  0.25800973545E+03  0.00000000000E+00 0.  1.
         14    1    6    6    0    0 -0.25174739381E+02  0.17515855934E+02  0.25560381928E+03  0.25743714794E+03  0.00000000000E+00 0. -1.
         -5    1    3    3    0  503 -0.54688862426E+02 -0.29767858887E+02  0.13541785887E+03  0.14912103674E+03  0.47000000000E+01 0.  1.
         13    1    4    4    0    0  0.28718570724E+02  0.57303418694E+02  0.12318381053E+03  0.13886212325E+03  0.00000000000E+00 0. -1.
        -14    1    4    4    0    0  0.33211478054E+02 -0.21006261060E+02  0.34089971389E+02  0.52022989414E+02  0.00000000000E+00 0.  1.
<mgrwt>
<rscale>  2 0.17320689E+03</rscale>
<asrwt>0</asrwt>
<pdfrwt beam="1">  1       21 0.14149622E+00 0.17326936E+03</pdfrwt>
<pdfrwt beam="2">  1       21 0.55533129E-02 0.17326936E+03</pdfrwt>
<totfact> 0.79099075E+04</totfact>
</mgrwt>
</event>
<event>
12    1  0.1074575E-001  0.1899990E+03  0.7546771E-02  0.1158934E+00
         21   -1    0    0  503  502  0.00000000000E+00  0.00000000000E+00  0.72637955170E+02  0.72637955170E+02  0.00000000000E+00 0.  1.
         21   -1    0    0  501  503 -0.00000000000E+00 -0.00000000000E+00 -0.59967105860E+03  0.59967105860E+03  0.00000000000E+00 0.  1.
          6    2    1    2  501    0  0.49043591487E+02  0.60106547123E+02 -0.40506136014E+03  0.44652873122E+03  0.17115820592E+03 0.  0.
         24    2    3    3    0    0 -0.38177998729E+02  0.38487059772E+02 -0.18721167458E+03  0.21082641148E+03  0.80378798955E+02 0.  0.
         -6    2    1    2    0  502 -0.49043591487E+02 -0.60106547123E+02 -0.12197174328E+03  0.22578028254E+03  0.17344036137E+03 0.  0.
        -24    2    5    5    0    0 -0.30528129914E+02 -0.93659732349E+02 -0.13508427109E+03  0.18500446935E+03  0.79213516540E+02 0.  0.
          5    1    3    3  501    0  0.87221590216E+02  0.21619487352E+02 -0.21784968556E+03  0.23570231975E+03  0.47000000000E+01 0. -1.
        -11    1    4    4    0    0 -0.38375346349E+02  0.39572854678E+02 -0.19516313357E+03  0.20279873456E+03  0.00000000000E+00 0.  1.
         12    1    4    4    0    0  0.19734761961E+00 -0.10857949068E+01  0.79514589890E+01  0.80276769190E+01  0.00000000000E+00 0. -1.
         -5    1    5    5    0  502 -0.18515461573E+02  0.33553185226E+02  0.13112527810E+02  0.40775813194E+02  0.47000000000E+01 0.  1.
         11    1    6    6    0    0 -0.17660791413E+02  0.10356053694E+02 -0.13705506926E+02  0.24637214159E+02  0.00000000000E+00 0. -1.
        -12    1    6    6    0    0 -0.12867338501E+02 -0.10401578604E+03 -0.12137876417E+03  0.16036725519E+03  0.00000000000E+00 0.  1.
<mgrwt>
<rscale>  2 0.18947664E+03</rscale>
<asrwt>0</asrwt>
<pdfrwt beam="1">  1       21 0.11175070E-01 0.18999903E+03</pdfrwt>
<pdfrwt beam="2">  1       21 0.92257087E-01 0.18999903E+03</pdfrwt>
<totfact> 0.66176430E+04</totfact>
</mgrwt>
</event>
<event>
12    1  0.1074575E-001  0.2122467E+03  0.7546771E-02  0.1140017E+00
         21   -1    0    0  501  502  0.00000000000E+00  0.00000000000E+00  0.14168498120E+04  0.14168498120E+04  0.00000000000E+00 0.  1.
         21   -1    0    0  502  503 -0.00000000000E+00 -0.00000000000E+00 -0.31633560664E+02  0.31633560664E+02  0.00000000000E+00 0.  1.
         -6    2    1    2    0  503  0.96931322173E+02 -0.77977026707E+02  0.68531470638E+03  0.71742936915E+03  0.17196672653E+03 0.  0.
        -24    2    3    3    0    0  0.49320176032E+02  0.51009130409E+01  0.49960916591E+03  0.50843797443E+03  0.80258059397E+02 0.  0.
          6    2    1    2  501    0 -0.96931322173E+02  0.77977026707E+02  0.69990154498E+03  0.73105400354E+03  0.17059216132E+03 0.  0.
         24    2    5    5    0    0 -0.41166432764E+02  0.59032940059E+02  0.63239923123E+03  0.64134751731E+03  0.78856116413E+02 0.  0.
          5    1    5    5  501    0 -0.55764889409E+02  0.18944086648E+02  0.67502313751E+02  0.89706486229E+02  0.47000000000E+01 0. -1.
        -11    1    6    6    0    0 -0.61378666532E+02  0.54144672144E+02  0.56240839274E+03  0.56833281311E+03  0.00000000000E+00 0.  1.
         12    1    6    6    0    0  0.20212233768E+02  0.48882679152E+01  0.69990838490E+02  0.73014704201E+02  0.00000000000E+00 0. -1.
         -5    1    3    3    0  503  0.47611146141E+02 -0.83077939748E+02  0.18570554047E+03  0.20899139473E+03  0.47000000000E+01 0.  1.
         13    1    4    4    0    0  0.67292089000E+02  0.14669151071E+02  0.30054929334E+03  0.30833956438E+03  0.00000000000E+00 0. -1.
        -14    1    4    4    0    0 -0.17971912968E+02 -0.95682380300E+01  0.19905987257E+03  0.20009841005E+03  0.00000000000E+00 0.  1.
<mgrwt>
<rscale>  2 0.21196809E+03</rscale>
<asrwt>0</asrwt>
<pdfrwt beam="1">  1       21 0.21797684E+00 0.21224668E+03</pdfrwt>
<pdfrwt beam="2">  1       21 0.48667028E-02 0.21224668E+03</pdfrwt>
<totfact> 0.28731075E+04</totfact>
</mgrwt>
</event>
<event>
12    1  0.1074575E-001  0.3215018E+03  0.7546771E-02  0.1075047E+00
         21   -1    0    0  503  502  0.00000000000E+00  0.00000000000E+00  0.18184925301E+03  0.18184925301E+03  0.00000000000E+00 0.  1.
         21   -1    0    0  501  503 -0.00000000000E+00 -0.00000000000E+00 -0.60355455099E+03  0.60355455099E+03  0.00000000000E+00 0.  1.
          6    2    1    2  501    0 -0.94739235672E+02  0.25294554728E+03 -0.30718247204E+03  0.44411380969E+03  0.17297118883E+03 0.  0.
         24    2    3    3    0    0 -0.52034237301E+02  0.32609507174E+02 -0.98057190640E+02  0.13731230908E+03  0.73949413652E+02 0.  0.
         -6    2    1    2    0  502  0.94739235672E+02 -0.25294554728E+03 -0.11452282594E+03  0.34128999431E+03  0.17437433840E+03 0.  0.
        -24    2    5    5    0    0  0.10215893058E+03 -0.91611043578E+02 -0.74818620381E+02  0.17490974339E+03  0.78527460012E+02 0.  0.
          5    1    3    3  501    0 -0.42704998371E+02  0.22033604010E+03 -0.20912528140E+03  0.30680150061E+03  0.47000000000E+01 0. -1.
        -13    1    4    4    0    0  0.13890858271E+02  0.17785506109E+02 -0.48572701713E+02  0.53559196435E+02  0.00000000000E+00 0.  1.
         14    1    4    4    0    0 -0.65925095572E+02  0.14824001065E+02 -0.49484488927E+02  0.83753112647E+02  0.00000000000E+00 0. -1.
         -5    1    5    5    0  502 -0.74196949061E+01 -0.16133450370E+03 -0.39704205562E+02  0.16638025092E+03  0.47000000000E+01 0.  1.
         13    1    6    6    0    0  0.97381199300E+02 -0.71899944522E+02 -0.88928052048E+02  0.15020285763E+03  0.00000000000E+00 0. -1.
        -14    1    6    6    0    0  0.47777312782E+01 -0.19711099056E+02  0.14109431666E+02  0.24706885763E+02  0.00000000000E+00 0.  1.
<mgrwt>
<rscale>  2 0.32131188E+03</rscale>
<asrwt>0</asrwt>
<pdfrwt beam="1">  1       21 0.27976808E-01 0.32150176E+03</pdfrwt>
<pdfrwt beam="2">  1       21 0.92854546E-01 0.32150176E+03</pdfrwt>
<totfact> 0.11122200E+04</totfact>
</mgrwt>
</event>
<event>
12    1  0.1074575E-001  0.2069828E+03  0.7546771E-02  0.1144194E+00
         21   -1    0    0  503  502  0.00000000000E+00  0.00000000000E+00  0.25312185529E+04  0.25312185529E+04  0.00000000000E+00 0.  1.
         21   -1    0    0  501  503 -0.00000000000E+00 -0.00000000000E+00 -0.18386709170E+02  0.18386709170E+02  0.00000000000E+00 0.  1.
          6    2    1    2  501    0  0.59101444742E+02 -0.97030953041E+02  0.16293438657E+04  0.16424382277E+04  0.17301419744E+03 0.  0.
         24    2    3    3    0    0  0.15487960899E+02 -0.11935140358E+03  0.14246880667E+04  0.14319473145E+04  0.79072053142E+02 0.  0.
         -6    2    1    2    0  502 -0.59101444742E+02  0.97030953041E+02  0.88348797803E+03  0.90716703437E+03  0.17173536122E+03 0.  0.
        -24    2    5    5    0    0 -0.37085251017E+02  0.81787690218E+02  0.86701291077E+03  0.87537729249E+03  0.80681315306E+02 0.  0.
          5    1    3    3  501    0  0.43613483843E+02  0.22320450538E+02  0.20465579900E+03  0.21049091322E+03  0.47000000000E+01 0. -1.
        -11    1    4    4    0    0 -0.82730949908E+01 -0.86493512216E+02  0.12308721849E+04  0.12339351309E+04  0.00000000000E+00 0.  1.
         12    1    4    4    0    0  0.23761055889E+02 -0.32857891362E+02  0.19381588181E+03  0.19801218357E+03  0.00000000000E+00 0. -1.
         -5    1    5    5    0  502 -0.22016193725E+02  0.15243262822E+02  0.16475067260E+02  0.31789741880E+02  0.47000000000E+01 0.  1.
         13    1    6    6    0    0  0.53847659265E+01  0.53228315110E+02  0.65871499863E+03  0.66088402815E+03  0.00000000000E+00 0. -1.
        -14    1    6    6    0    0 -0.42470016944E+02  0.28559375109E+02  0.20829791214E+03  0.21449326434E+03  0.00000000000E+00 0.  1.
<mgrwt>
<rscale>  2 0.20671539E+03</rscale>
<asrwt>0</asrwt>
<pdfrwt beam="1">  1       21 0.38941796E+00 0.20698285E+03</pdfrwt>
<pdfrwt beam="2">  1       21 0.28287265E-02 0.20698285E+03</pdfrwt>
<totfact> 0.69364775E+03</totfact>
</mgrwt>
</event>
<event>
12    1  0.1074575E-001  0.1813995E+03  0.7546771E-02  0.1166790E+00
         21   -1    0    0  501  502  0.00000000000E+00  0.00000000000E+00  0.66237110876E+03  0.66237110876E+03  0.00000000000E+00 0.  1.
         21   -1    0    0  502  503 -0.00000000000E+00 -0.00000000000E+00 -0.49601370679E+02  0.49601370679E+02  0.00000000000E+00 0.  1.
         -6    2    1    2    0  503  0.51039013372E+02  0.11836597230E+02  0.33536461656E+03  0.38128099231E+03  0.17366831355E+03 0.  0.
        -24    2    3    3    0    0  0.45051046222E+02 -0.30281364245E+02  0.32244241090E+03  0.33657247154E+03  0.79783221713E+02 0.  0.
          6    2    1    2  501    0 -0.51039013372E+02 -0.11836597230E+02  0.27740512152E+03  0.33069148714E+03  0.17221548217E+03 0.  0.
         24    2    5    5    0    0  0.27762337377E+01 -0.32148345753E+02  0.61605771185E+02  0.10730818974E+03  0.81722413902E+02 0.  0.
          5    1    5    5  501    0 -0.53815247110E+02  0.20311748523E+02  0.21579935034E+03  0.22338329739E+03  0.47000000000E+01 0. -1.
        -11    1    6    6    0    0 -0.26105037933E+02 -0.45624500542E+02  0.52195780679E+02  0.74077443097E+02  0.00000000000E+00 0.  1.
         12    1    6    6    0    0  0.28881271671E+02  0.13476154789E+02  0.94099905061E+01  0.33230746645E+02  0.00000000000E+00 0. -1.
         -5    1    3    3    0  503  0.59879671502E+01  0.42117961476E+02  0.12922205661E+02  0.44708520761E+02  0.47000000000E+01 0.  1.
         11    1    4    4    0    0  0.52374478540E+02 -0.19442727280E+02  0.31782935298E+03  0.32270203480E+03  0.00000000000E+00 0. -1.
        -12    1    4    4    0    0 -0.73234323186E+01 -0.10838636966E+02  0.46130579233E+01  0.13870436749E+02  0.00000000000E+00 0.  1.
<mgrwt>
<rscale>  2 0.18105086E+03</rscale>
<asrwt>0</asrwt>
<pdfrwt beam="1">  1       21 0.10190324E+00 0.18139947E+03</pdfrwt>
<pdfrwt beam="2">  1       21 0.76309806E-02 0.18139947E+03</pdfrwt>
<totfact> 0.10272046E+05</totfact>
</mgrwt>
</event>
<event>
12    1  0.1074575E-001  0.1757688E+03  0.7546771E-02  0.1172101E+00
         21   -1    0    0  501  502  0.00000000000E+00  0.00000000000E+00  0.65370055650E+03  0.65370055650E+03  0.00000000000E+00 0.  1.
         21   -1    0    0  502  503 -0.00000000000E+00 -0.00000000000E+00 -0.50995253847E+02  0.50995253847E+02  0.00000000000E+00 0.  1.
         -6    2    1    2    0  503  0.29322146803E+02  0.18098539015E+01  0.20455708869E+03  0.26970033802E+03  0.17329629521E+03 0.  0.
        -24    2    3    3    0    0 -0.51578267830E+02  0.81341064262E+01  0.10697235763E+03  0.14269741289E+03  0.78695520504E+02 0.  0.
          6    2    1    2  501    0 -0.29322146803E+02 -0.18098539015E+01  0.39814821397E+03  0.43499547233E+03  0.17273099547E+03 0.  0.
         24    2    5    5    0    0 -0.93850281275E+01 -0.65025385227E+02  0.26711806933E+03  0.28807821362E+03  0.85560590949E+02 0.  0.
          5    1    5    5  501    0 -0.19937118675E+02  0.63215531326E+02  0.13103014464E+03  0.14691725871E+03  0.47000000000E+01 0. -1.
        -11    1    6    6    0    0 -0.39488575511E+02 -0.42663746505E+02  0.22161953857E+03  0.22911735582E+03  0.00000000000E+00 0.  1.
         12    1    6    6    0    0  0.30103547383E+02 -0.22361638723E+02  0.45498530762E+02  0.58960857803E+02  0.00000000000E+00 0. -1.
         -5    1    3    3    0  503  0.80900414633E+02 -0.63242525247E+01  0.97584731054E+02  0.12700292513E+03  0.47000000000E+01 0.  1.
         11    1    4    4    0    0  0.15294060345E+02  0.10091034594E+02  0.55027354803E+02  0.57997819249E+02  0.00000000000E+00 0. -1.
        -12    1    4    4    0    0 -0.66872328175E+02 -0.19569281677E+01  0.51945002830E+02  0.84699593638E+02  0.00000000000E+00 0.  1.
<mgrwt>
<rscale>  2 0.17562930E+03</rscale>
<asrwt>0</asrwt>
<pdfrwt beam="1">  1       21 0.10056931E+00 0.17576880E+03</pdfrwt>
<pdfrwt beam="2">  1       21 0.78454242E-02 0.17576880E+03</pdfrwt>
<totfact> 0.10125684E+05</totfact>
</mgrwt>
</event>
<event>
12    1  0.1074575E-001  0.2209119E+03  0.7546771E-02  0.1134109E+00
         21   -1    0    0  501  502  0.00000000000E+00  0.00000000000E+00  0.60409777215E+03  0.60409777215E+03  0.00000000000E+00 0.  1.
         21   -1    0    0  502  503 -0.00000000000E+00 -0.00000000000E+00 -0.15102820493E+03  0.15102820493E+03  0.00000000000E+00 0. -1.
         -6    2    1    2    0  503  0.12616128530E+03 -0.29988408497E+02 -0.35449898301E+02  0.21897924157E+03  0.17285612050E+03 0.  0.
        -24    2    3    3    0    0  0.78926738084E+02  0.29125456715E+02  0.28086137284E+02  0.12006276504E+03  0.80922890624E+02 0.  0.
          6    2    1    2  501    0 -0.12616128530E+03  0.29988408497E+02  0.48851946553E+03  0.53614673551E+03  0.17884652429E+03 0.  0.
         24    2    5    5    0    0 -0.13222486076E+03  0.32587609631E+02  0.24636985268E+03  0.29386168068E+03  0.84328031867E+02 0.  0.
          5    1    5    5  501    0  0.60635754540E+01 -0.25992011345E+01  0.24214961285E+03  0.24228505483E+03  0.47000000000E+01 0. -1.
        -13    1    6    6    0    0 -0.52987622310E+02  0.56072731200E+02  0.10880362614E+03  0.13337941507E+03  0.00000000000E+00 0.  1.
         14    1    6    6    0    0 -0.79237238449E+02 -0.23485121569E+02  0.13756622654E+03  0.16048226561E+03  0.00000000000E+00 0. -1.
         -5    1    3    3    0  503  0.47234547221E+02 -0.59113865212E+02 -0.63536035584E+02  0.98916476531E+02  0.47000000000E+01 0.  1.
         11    1    4    4    0    0  0.50922845080E+02 -0.22585663856E+02  0.25319151880E+02  0.61190749422E+02  0.00000000000E+00 0. -1.
        -12    1    4    4    0    0  0.28003893004E+02  0.51711120572E+02  0.27669854040E+01  0.58872015613E+02  0.00000000000E+00 0.  1.
<mgrwt>
<rscale>  2 0.21969660E+03</rscale>
<asrwt>0</asrwt>
<pdfrwt beam="1">  1       21 0.92938118E-01 0.22091187E+03</pdfrwt>
<pdfrwt beam="2">  1       21 0.23235109E-01 0.22091187E+03</pdfrwt>
<totfact> 0.16682060E+04</totfact>
</mgrwt>
</event>
<event>
12    1  0.1074575E-001  0.1813609E+03  0.7546771E-02  0.1168422E+00
         21   -1    0    0  501  502  0.00000000000E+00  0.00000000000E+00  0.13635699107E+03  0.13635699107E+03  0.00000000000E+00 0.  1.
         21   -1    0    0  502  503 -0.00000000000E+00 -0.00000000000E+00 -0.27296211128E+03  0.27296211128E+03  0.00000000000E+00 0.  1.
         -6    2    1    2    0  503 -0.24233545784E+00  0.51489109505E+02 -0.14993334784E+03  0.23531211059E+03  0.17389822734E+03 0.  0.
        -24    2    3    3    0    0 -0.63025362880E+02  0.11274077781E+02 -0.10996826330E+03  0.15058752566E+03  0.80525044280E+02 0.  0.
          6    2    1    2  501    0  0.24233545784E+00 -0.51489109505E+02  0.13328227630E+02  0.17400699176E+03  0.16567922140E+03 0.  0.
         24    2    5    5    0    0 -0.38810075931E+02 -0.79103447147E+02 -0.11133151074E+02  0.12008026808E+03  0.80819220391E+02 0.  0.
          5    1    5    5  501    0  0.39052411389E+02  0.27614337642E+02  0.24461378704E+02  0.53926723679E+02  0.47000000000E+01 0. -1.
        -11    1    6    6    0    0 -0.38837189813E+02 -0.35334237955E+02  0.29612946286E+02  0.60280695684E+02  0.00000000000E+00 0.  1.
         12    1    6    6    0    0  0.27113881884E-01 -0.43769209192E+02 -0.40746097360E+02  0.59799572394E+02  0.00000000000E+00 0. -1.
         -5    1    3    3    0  503  0.62783027422E+02  0.40215031723E+02 -0.39965084540E+02  0.84724584927E+02  0.47000000000E+01 0.  1.
         11    1    4    4    0    0 -0.53231844892E+02  0.19704951191E+02 -0.20746087580E+02  0.60434382283E+02  0.00000000000E+00 0. -1.
        -12    1    4    4    0    0 -0.97935179874E+01 -0.84308734097E+01 -0.89222175722E+02  0.90153143381E+02  0.00000000000E+00 0.  1.
<mgrwt>
<rscale>  2 0.17936182E+03</rscale>
<asrwt>0</asrwt>
<pdfrwt beam="1">  1       21 0.20977999E-01 0.18136091E+03</pdfrwt>
<pdfrwt beam="2">  1       21 0.41994171E-01 0.18136091E+03</pdfrwt>
<totfact> 0.11567552E+05</totfact>
</mgrwt>
</event>
<event>
12    1  0.1074575E-001  0.2104782E+03  0.7546771E-02  0.1141673E+00
         21   -1    0    0  503  502  0.00000000000E+00  0.00000000000E+00  0.15772181825E+03  0.15772181825E+03  0.00000000000E+00 0. -1.
         21   -1    0    0  501  503 -0.00000000000E+00 -0.00000000000E+00 -0.46244416071E+03  0.46244416071E+03  0.00000000000E+00 0. -1.
          6    2    1    2  501    0 -0.10268570978E+03  0.56265530017E+02 -0.34785178449E+03  0.40531431316E+03  0.17195541170E+03 0.  0.
         24    2    3    3    0    0 -0.18618567875E+02 -0.19754048860E+02 -0.20943337201E+03  0.22635060836E+03  0.81457885297E+02 0.  0.
         -6    2    1    2    0  502  0.10268570978E+03 -0.56265530017E+02  0.43129442029E+02  0.21485166580E+03  0.17490261481E+03 0.  0.
        -24    2    5    5    0    0  0.86249908472E+02 -0.64330484965E+02  0.92056124016E+02  0.16240083861E+03  0.79512542433E+02 0.  0.
          5    1    3    3  501    0 -0.84067141904E+02  0.76019578877E+02 -0.13841841249E+03  0.17896370480E+03  0.47000000000E+01 0. -1.
        -13    1    4    4    0    0 -0.45183125111E+02 -0.89371031471E+01 -0.68610772574E+02  0.82636703230E+02  0.00000000000E+00 0.  1.
         14    1    4    4    0    0  0.26564557236E+02 -0.10816945713E+02 -0.14082259943E+03  0.14371390513E+03  0.00000000000E+00 0. -1.
         -5    1    5    5    0  502  0.16435801307E+02  0.80649549477E+01 -0.48926681986E+02  0.52450827192E+02  0.47000000000E+01 0.  1.
         11    1    6    6    0    0  0.95768158699E+02 -0.36096935683E+02  0.59998734794E+02  0.11863548020E+03  0.00000000000E+00 0. -1.
        -12    1    6    6    0    0 -0.95182502272E+01 -0.28233549282E+02  0.32057389222E+02  0.43765358403E+02  0.00000000000E+00 0.  1.
<mgrwt>
<rscale>  2 0.20986492E+03</rscale>
<asrwt>0</asrwt>
<pdfrwt beam="1">  1       21 0.24264895E-01 0.21047824E+03</pdfrwt>
<pdfrwt beam="2">  1       21 0.71145256E-01 0.21047824E+03</pdfrwt>
<totfact> 0.28379752E+04</totfact>
</mgrwt>
</event>
<event>
12    1  0.1074575E-001  0.2000059E+03  0.7546771E-02  0.1149982E+00
         21   -1    0    0  503  502  0.00000000000E+00  0.00000000000E+00  0.59500952514E+03  0.59500952514E+03  0.00000000000E+00 0.  1.
         21   -1    0    0  501  503 -0.00000000000E+00 -0.00000000000E+00 -0.86447315522E+02  0.86447315522E+02  0.00000000000E+00 0.  1.
          6    2    1    2  501    0  0.79641794519E+02 -0.56331999856E+02  0.41714008243E+03  0.46261021949E+03  0.17460314189E+03 0.  0.
         24    2    3    3    0    0  0.13548540658E+02 -0.64909862553E+02  0.35872399344E+03  0.37386098069E+03  0.81806333497E+02 0.  0.
         -6    2    1    2    0  502 -0.79641794519E+02  0.56331999856E+02  0.91422127189E+02  0.21884662118E+03  0.17326202302E+03 0.  0.
        -24    2    5    5    0    0 -0.85596956835E+02  0.60832314938E+02  0.29830083154E+01  0.12996870187E+03  0.76521601958E+02 0.  0.
          5    1    3    3  501    0  0.66093253860E+02  0.85778626965E+01  0.58416088994E+02  0.88749238800E+02  0.47000000000E+01 0. -1.
        -11    1    4    4    0    0 -0.29345654875E+02 -0.19002957176E+02  0.68403981278E+02  0.76820469253E+02  0.00000000000E+00 0.  1.
         12    1    4    4    0    0  0.42894195533E+02 -0.45906905377E+02  0.29032001216E+03  0.29704051143E+03  0.00000000000E+00 0. -1.
         -5    1    5    5    0  502  0.59551623165E+01 -0.45003150816E+01  0.88439118874E+02  0.88877919312E+02  0.47000000000E+01 0.  1.
         13    1    6    6    0    0 -0.35256459688E+01 -0.16578870741E+02  0.26060827148E+01  0.17148784262E+02  0.00000000000E+00 0. -1.
        -14    1    6    6    0    0 -0.82071310866E+02  0.77411185679E+02  0.37692560054E+00  0.11281991761E+03  0.00000000000E+00 0.  1.
<mgrwt>
<rscale>  2 0.19971285E+03</rscale>
<asrwt>0</asrwt>
<pdfrwt beam="1">  1       21 0.91539924E-01 0.20000592E+03</pdfrwt>
<pdfrwt beam="2">  1       21 0.13299587E-01 0.20000592E+03</pdfrwt>
<totfact> 0.49092528E+04</totfact>
</mgrwt>
</event>
<event>
12    1  0.1074575E-001  0.2369013E+03  0.7546771E-02  0.1121890E+00
         21   -1    0    0  501  502  0.00000000000E+00  0.00000000000E+00  0.35615906483E+03  0.35615906483E+03  0.00000000000E+00 0.  1.
         21   -1    0    0  502  503 -0.00000000000E+00 -0.00000000000E+00 -0.16646951206E+03  0.16646951206E+03  0.00000000000E+00 0. -1.
         -6    2    1    2    0  503 -0.37773356959E-01 -0.16172662790E+03  0.34251722745E+02  0.23936457679E+03  0.17310897294E+03 0.  0.
        -24    2    3    3    0    0 -0.27320148399E+02 -0.16105972882E+03  0.56728354003E+02  0.20369860288E+03  0.10764937487E+03 0.  0.
          6    2    1    2  501    0  0.37773356959E-01  0.16172662790E+03  0.15543783002E+03  0.28326400009E+03  0.17297997325E+03 0.  0.
         24    2    5    5    0    0 -0.44645536059E+02  0.11951742884E+03  0.16160007639E+03  0.22131016320E+03  0.81153952214E+02 0.  0.
          5    1    5    5  501    0  0.44683309416E+02  0.42209199059E+02 -0.61622463645E+01  0.61953836894E+02  0.47000000000E+01 0. -1.
        -11    1    6    6    0    0 -0.54461442116E+02  0.38224415069E+02  0.93787957597E+02  0.11499276314E+03  0.00000000000E+00 0.  1.
         12    1    6    6    0    0  0.98159060570E+01  0.81293013776E+02  0.67812118789E+02  0.10631740006E+03  0.00000000000E+00 0. -1.
         -5    1    3    3    0  503  0.27282375042E+02 -0.66689907936E+00 -0.22476631258E+02  0.35665973911E+02  0.47000000000E+01 0.  1.
         13    1    4    4    0    0 -0.37534727737E+02 -0.45481162128E+02 -0.22591006968E+02  0.63148598485E+02  0.00000000000E+00 0. -1.
        -14    1    4    4    0    0  0.10214579338E+02 -0.11557856670E+03  0.79319360971E+02  0.14055000440E+03  0.00000000000E+00 0.  1.
<mgrwt>
<rscale>  2 0.23687772E+03</rscale>
<asrwt>0</asrwt>
<pdfrwt beam="1">  1       21 0.54793702E-01 0.23690129E+03</pdfrwt>
<pdfrwt beam="2">  1       21 0.25610694E-01 0.23690129E+03</pdfrwt>
<totfact> 0.44536216E+04</totfact>
</mgrwt>
</event>
<event>
12    1  0.1074575E-001  0.2155327E+03  0.7546771E-02  0.1137340E+00
         21   -1    0    0  503  502  0.00000000000E+00  0.00000000000E+00  0.55314860349E+02  0.55314860349E+02  0.00000000000E+00 0. -1.
         21   -1    0    0  501  503 -0.00000000000E+00 -0.00000000000E+00 -0.84060112136E+03  0.84060112136E+03  0.00000000000E+00 0. -1.
          6    2    1    2  501    0 -0.76170344457E+02  0.10377631971E+03 -0.36804660068E+03  0.42629562925E+03  0.17233170728E+03 0.  0.
         24    2    3    3    0    0  0.66825274538E+01  0.84304302550E+02 -0.13849157206E+03  0.18142554328E+03  0.81138404107E+02 0.  0.
         -6    2    1    2    0  502  0.76170344457E+02 -0.10377631971E+03 -0.41723966033E+03  0.46962035246E+03  0.17286669832E+03 0.  0.
        -24    2    5    5    0    0  0.69710417789E+02 -0.11057917070E+03 -0.19882343074E+03  0.25095222771E+03  0.79743141657E+02 0.  0.
          5    1    3    3  501    0 -0.82852871911E+02  0.19472017161E+02 -0.22955502862E+03  0.24487008597E+03  0.47000000000E+01 0. -1.
        -11    1    4    4    0    0  0.18420376032E+02 -0.88865421488E+01 -0.42283611115E+02  0.46970039956E+02  0.00000000000E+00 0.  1.
         12    1    4    4    0    0 -0.11737848578E+02  0.93190844699E+02 -0.96207960943E+02  0.13445550332E+03  0.00000000000E+00 0. -1.
         -5    1    5    5    0  502  0.64599266676E+01  0.68028509866E+01 -0.21841622959E+03  0.21866812475E+03  0.47000000000E+01 0.  1.
         11    1    6    6    0    0  0.18145248701E+02 -0.47855457776E+02 -0.14440038255E+03  0.15320204101E+03  0.00000000000E+00 0. -1.
        -12    1    6    6    0    0  0.51565169088E+02 -0.62723712922E+02 -0.54423048192E+02  0.97750186702E+02  0.00000000000E+00 0.  1.
<mgrwt>
<rscale>  2 0.21542540E+03</rscale>
<asrwt>0</asrwt>
<pdfrwt beam="1">  1       21 0.85099787E-02 0.21553269E+03</pdfrwt>
<pdfrwt beam="2">  1       21 0.12932325E+00 0.21553269E+03</pdfrwt>
<totfact> 0.46610645E+04</totfact>
</mgrwt>
</event>
<event>
12    1  0.1074575E-001  0.3721161E+03  0.7546771E-02  0.1053912E+00
         21   -1    0    0  501  502  0.00000000000E+00  0.00000000000E+00  0.38256474829E+03  0.38256474829E+03  0.00000000000E+00 0.  1.
         21   -1    0    0  502  503 -0.00000000000E+00 -0.00000000000E+00 -0.56042507118E+03  0.56042507118E+03  0.00000000000E+00 0. -1.
         -6    2    1    2    0  503  0.58260086814E+02  0.32382632436E+03 -0.36968158483E+03  0.52434224858E+03  0.17324143102E+03 0.  0.
        -24    2    3    3    0    0  0.25184216589E+02  0.53382032556E+02 -0.11336955435E+03  0.15024055769E+03  0.78966341916E+02 0.  0.
          6    2    1    2  501    0 -0.58260086814E+02 -0.32382632436E+03  0.19182126194E+03  0.41864757089E+03  0.17381791050E+03 0.  0.
         24    2    5    5    0    0 -0.18094379745E+02 -0.22073995492E+03  0.55609792911E+02  0.24310345141E+03  0.83386478179E+02 0.  0.
          5    1    5    5  501    0 -0.40165707068E+02 -0.10308636945E+03  0.13621146902E+03  0.17554411948E+03  0.47000000000E+01 0. -1.
        -13    1    6    6    0    0 -0.19492858502E+02 -0.40858265847E+01  0.29137325842E+01  0.20128471106E+02  0.00000000000E+00 0.  1.
         14    1    6    6    0    0  0.13984787573E+01 -0.21665412833E+03  0.52696060327E+02  0.22297498030E+03  0.00000000000E+00 0. -1.
         -5    1    3    3    0  503  0.33075870225E+02  0.27044429181E+03 -0.25631203048E+03  0.37410169090E+03  0.47000000000E+01 0.  1.
         11    1    4    4    0    0 -0.42874433819E+01  0.50346498165E+02 -0.23714503219E+02  0.55816930327E+02  0.00000000000E+00 0. -1.
        -12    1    4    4    0    0  0.29471659971E+02  0.30355343909E+01 -0.89655051131E+02  0.94423627360E+02  0.00000000000E+00 0.  1.
<mgrwt>
<rscale>  2 0.37204885E+03</rscale>
<asrwt>0</asrwt>
<pdfrwt beam="1">  1       21 0.58856115E-01 0.37211610E+03</pdfrwt>
<pdfrwt beam="2">  1       21 0.86219241E-01 0.37211610E+03</pdfrwt>
<totfact> 0.28063530E+03</totfact>
</mgrwt>
</event>
<event>
12    1  0.1074575E-001  0.2031303E+03  0.7546771E-02  0.1147423E+00
         21   -1    0    0  501  502  0.00000000000E+00  0.00000000000E+00  0.13021519949E+04  0.13021519949E+04  0.00000000000E+00 0. -1.
         21   -1    0    0  502  503 -0.00000000000E+00 -0.00000000000E+00 -0.50675266880E+02  0.50675266880E+02  0.00000000000E+00 0. -1.
         -6    2    1    2    0  503 -0.86642207844E+02 -0.61866352863E+02  0.21063784479E+03  0.29262640073E+03  0.17299592755E+03 0.  0.
        -24    2    3    3    0    0 -0.96174575901E+02  0.11868674979E+02  0.96511156493E+02  0.15633732797E+03  0.75739964966E+02 0.  0.
          6    2    1    2  501    0  0.86642207844E+02  0.61866352863E+02  0.10408388832E+04  0.10602008610E+04  0.17130664651E+03 0.  0.
         24    2    5    5    0    0  0.29510972496E+02  0.20337384638E+02  0.22630519596E+03  0.24259713616E+03  0.79717137715E+02 0.  0.
          5    1    5    5  501    0  0.57131235348E+02  0.41528968225E+02  0.81453368727E+03  0.81760372488E+03  0.47000000000E+01 0. -1.
        -13    1    6    6    0    0 -0.21271157463E+02  0.27790965247E+02  0.73600095229E+02  0.81497079132E+02  0.00000000000E+00 0.  1.
         14    1    6    6    0    0  0.50782129959E+02 -0.74535806097E+01  0.15270510073E+03  0.16110005703E+03  0.00000000000E+00 0. -1.
         -5    1    3    3    0  503  0.95323680571E+01 -0.73735027842E+02  0.11412668830E+03  0.13628907276E+03  0.47000000000E+01 0.  1.
         11    1    4    4    0    0 -0.25410068657E+02  0.37736672636E+02  0.22621993152E+02  0.50808292876E+02  0.00000000000E+00 0. -1.
        -12    1    4    4    0    0 -0.70764507245E+02 -0.25867997657E+02  0.73889163341E+02  0.10552903509E+03  0.00000000000E+00 0.  1.
<mgrwt>
<rscale>  2 0.20277014E+03</rscale>
<asrwt>0</asrwt>
<pdfrwt beam="1">  1       21 0.20033105E+00 0.20313028E+03</pdfrwt>
<pdfrwt beam="2">  1       21 0.77961959E-02 0.20313028E+03</pdfrwt>
<totfact> 0.16633902E+04</totfact>
</mgrwt>
</event>
<event>
12    1  0.1074575E-001  0.2331844E+03  0.7546771E-02  0.1125418E+00
         21   -1    0    0  501  502  0.00000000000E+00  0.00000000000E+00  0.13854893819E+03  0.13854893819E+03  0.00000000000E+00 0.  1.
         21   -1    0    0  502  503 -0.00000000000E+00 -0.00000000000E+00 -0.38359930492E+03  0.38359930492E+03  0.00000000000E+00 0.  1.
         -6    2    1    2    0  503 -0.19133005496E+02  0.14518506551E+03 -0.13205174712E+03  0.26302731460E+03  0.17407162077E+03 0.  0.
        -24    2    3    3    0    0 -0.63595818869E+02  0.13540640696E+03 -0.64333358856E+02  0.18129339235E+03  0.79681803605E+02 0.  0.
          6    2    1    2  501    0  0.19133005496E+02 -0.14518506551E+03 -0.11299861960E+03  0.25912092851E+03  0.18146678047E+03 0.  0.
         24    2    5    5    0    0 -0.95169933341E+01 -0.13768012754E+03 -0.14477172835E+03  0.21543149081E+03  0.80034262802E+02 0.  0.
          5    1    5    5  501    0  0.28649998830E+02 -0.75049379756E+01  0.31773108751E+02  0.43689437701E+02  0.47000000000E+01 0. -1.
        -11    1    6    6    0    0 -0.19718672210E+02 -0.83717512732E+02 -0.35327283300E+02  0.92980992236E+02  0.00000000000E+00 0.  1.
         12    1    6    6    0    0  0.10201678876E+02 -0.53962614804E+02 -0.10944444505E+03  0.12245049858E+03  0.00000000000E+00 0. -1.
         -5    1    3    3    0  503  0.44462813374E+02  0.97786585562E+01 -0.67718388268E+02  0.81733922247E+02  0.47000000000E+01 0.  1.
         13    1    4    4    0    0 -0.16099094702E+02  0.11144343360E+03 -0.25562898255E+02  0.11546549922E+03  0.00000000000E+00 0. -1.
        -14    1    4    4    0    0 -0.47496724167E+02  0.23962973354E+02 -0.38770460601E+02  0.65827893129E+02  0.00000000000E+00 0.  1.
<mgrwt>
<rscale>  2 0.23174422E+03</rscale>
<asrwt>0</asrwt>
<pdfrwt beam="1">  1       21 0.21315221E-01 0.23318441E+03</pdfrwt>
<pdfrwt beam="2">  1       21 0.59015279E-01 0.23318441E+03</pdfrwt>
<totfact> 0.53997404E+04</totfact>
</mgrwt>
</event>
<event>
12    1  0.1074575E-001  0.1972917E+03  0.7546771E-02  0.1152157E+00
         21   -1    0    0  501  502  0.00000000000E+00  0.00000000000E+00  0.10610462978E+03  0.10610462978E+03  0.00000000000E+00 0. -1.
         21   -1    0    0  502  503 -0.00000000000E+00 -0.00000000000E+00 -0.60752493489E+03  0.60752493489E+03  0.00000000000E+00 0. -1.
         -6    2    1    2    0  503 -0.33506529963E+02  0.87405492942E+02 -0.47554835346E+03  0.51464871434E+03  0.17307413135E+03 0.  0.
        -24    2    3    3    0    0 -0.54798700897E+02  0.91792514042E+02 -0.47370900473E+03  0.49233110468E+03  0.80999581560E+02 0.  0.
          6    2    1    2  501    0  0.33506529963E+02 -0.87405492942E+02 -0.25871951652E+02  0.19898085033E+03  0.17367099116E+03 0.  0.
         24    2    5    5    0    0 -0.23546224651E+02  0.66600333736E+01 -0.17169126972E+02  0.88521947533E+02  0.83322119117E+02 0.  0.
          5    1    5    5  501    0  0.57052754614E+02 -0.94065526315E+02 -0.87028246800E+01  0.11045890280E+03  0.47000000000E+01 0. -1.
        -13    1    6    6    0    0 -0.11270146267E+02 -0.31124327284E+02 -0.32071489835E+02  0.46090350465E+02  0.00000000000E+00 0.  1.
         14    1    6    6    0    0 -0.12276078384E+02  0.37784360658E+02  0.14902362863E+02  0.42431597068E+02  0.00000000000E+00 0. -1.
         -5    1    3    3    0  503  0.21292170934E+02 -0.43870211004E+01 -0.18393487305E+01  0.22317609661E+02  0.47000000000E+01 0.  1.
         11    1    4    4    0    0 -0.27443199808E+02  0.23587739205E+01 -0.39443719821E+02  0.48109251329E+02  0.00000000000E+00 0. -1.
        -12    1    4    4    0    0 -0.27355501089E+02  0.89433740121E+02 -0.43426528491E+03  0.44422185335E+03  0.00000000000E+00 0.  1.
<mgrwt>
<rscale>  2 0.19716028E+03</rscale>
<asrwt>0</asrwt>
<pdfrwt beam="1">  1       21 0.16323789E-01 0.19729172E+03</pdfrwt>
<pdfrwt beam="2">  1       21 0.93465373E-01 0.19729172E+03</pdfrwt>
<totfact> 0.32260240E+04</totfact>
</mgrwt>
</event>
<event>
12    1  0.1074575E-001  0.1939287E+03  0.7546771E-02  0.1155499E+00
         21   -1    0    0  503  502  0.00000000000E+00  0.00000000000E+00  0.48647467641E+02  0.48647467641E+02  0.00000000000E+00 0. -1.
         21   -1    0    0  501  503 -0.00000000000E+00 -0.00000000000E+00 -0.81568499291E+03  0.81568499291E+03  0.00000000000E+00 0. -1.
          6    2    1    2  501    0  0.21022284885E+02  0.84288602379E+02 -0.49509433086E+03  0.53172052652E+03  0.17338343898E+03 0.  0.
         24    2    3    3    0    0  0.42632351555E+02  0.10307821260E+02 -0.39271053064E+03  0.40348370067E+03  0.81570627352E+02 0.  0.
         -6    2    1    2    0  502 -0.21022284885E+02 -0.84288602379E+02 -0.27194319441E+03  0.33261193404E+03  0.17067833116E+03 0.  0.
        -24    2    5    5    0    0 -0.78214826987E+02 -0.58849161442E+02 -0.15362028149E+03  0.19866958170E+03  0.79307180293E+02 0.  0.
          5    1    3    3  501    0 -0.21610066670E+02  0.73980781119E+02 -0.10238380022E+03  0.12823682585E+03  0.47000000000E+01 0. -1.
        -11    1    4    4    0    0  0.51113812273E+01  0.22089304480E+02 -0.25293742566E+02  0.33968176334E+02  0.00000000000E+00 0.  1.
         12    1    4    4    0    0  0.37520970328E+02 -0.11781483220E+02 -0.36741678808E+03  0.36951552433E+03  0.00000000000E+00 0. -1.
         -5    1    5    5    0  502  0.57192542103E+02 -0.25439440937E+02 -0.11832291292E+03  0.13394235234E+03  0.47000000000E+01 0.  1.
         11    1    6    6    0    0 -0.67615984999E+02 -0.41536155825E+02 -0.15897104224E+03  0.17767657678E+03  0.00000000000E+00 0. -1.
        -12    1    6    6    0    0 -0.10598841988E+02 -0.17313005617E+02  0.53507607461E+01  0.20993004919E+02  0.00000000000E+00 0.  1.
<mgrwt>
<rscale>  2 0.19332214E+03</rscale>
<asrwt>0</asrwt>
<pdfrwt beam="1">  1       21 0.74842253E-02 0.19392865E+03</pdfrwt>
<pdfrwt beam="2">  1       21 0.12549001E+00 0.19392865E+03</pdfrwt>
<totfact> 0.63605913E+04</totfact>
</mgrwt>
</event>
<event>
12    1  0.1074575E-001  0.2603981E+03  0.7546771E-02  0.1107230E+00
         21   -1    0    0  501  502  0.00000000000E+00  0.00000000000E+00  0.54156970283E+02  0.54156970283E+02  0.00000000000E+00 0.  1.
         21   -1    0    0  502  503 -0.00000000000E+00 -0.00000000000E+00 -0.22730004535E+04  0.22730004535E+04  0.00000000000E+00 0.  1.
         -6    2    1    2    0  503  0.95325905522E+02 -0.16833301152E+03 -0.18906720637E+04  0.19082258409E+04  0.17106132301E+03 0.  0.
        -24    2    3    3    0    0  0.67204446949E+02 -0.19057936415E+03 -0.14698592817E+04  0.14858620117E+04  0.80390784623E+02 0.  0.
          6    2    1    2  501    0 -0.95325905522E+02  0.16833301152E+03 -0.32817141949E+03  0.41893158290E+03  0.17431052621E+03 0.  0.
         24    2    5    5    0    0 -0.12091301855E+03  0.14427823737E+03 -0.19988210280E+03  0.28583924168E+03  0.79467284061E+02 0.  0.
          5    1    5    5  501    0  0.25587113024E+02  0.24054774152E+02 -0.12828931669E+03  0.13309234121E+03  0.47000000000E+01 0. -1.
        -11    1    6    6    0    0 -0.53070884017E+02  0.11501003028E+03 -0.98840909855E+02  0.16066533931E+03  0.00000000000E+00 0.  1.
         12    1    6    6    0    0 -0.67842134529E+02  0.29268207085E+02 -0.10104119294E+03  0.12517390237E+03  0.00000000000E+00 0. -1.
         -5    1    3    3    0  503  0.28121458573E+02  0.22246352635E+02 -0.42081278201E+03  0.42236382911E+03  0.47000000000E+01 0.  1.
         11    1    4    4    0    0  0.47053371450E+02 -0.12552342173E+03 -0.68101747105E+03  0.69408568998E+03  0.00000000000E+00 0. -1.
        -12    1    4    4    0    0  0.20151075499E+02 -0.65055942423E+02 -0.78884181063E+03  0.79177632175E+03  0.00000000000E+00 0.  1.
<mgrwt>
<rscale>  2 0.25985551E+03</rscale>
<asrwt>0</asrwt>
<pdfrwt beam="1">  1       21 0.83318445E-02 0.26039814E+03</pdfrwt>
<pdfrwt beam="2">  1       21 0.34969225E+00 0.26039814E+03</pdfrwt>
<totfact> 0.18111935E+03</totfact>
</mgrwt>
</event>
<event>
11    1  0.1074575E-001  0.1993126E+03  0.7546771E-02  0.1150420E+00
         21   -1    0    0  503  502  0.00000000000E+00  0.00000000000E+00  0.73765940821E+03  0.73765940821E+03  0.00000000000E+00 0.  1.
         21   -1    0    0  501  503 -0.00000000000E+00 -0.00000000000E+00 -0.71274584703E+02  0.71274584703E+02  0.00000000000E+00 0. -1.
          6    2    1    2  501    0 -0.24087523840E+01  0.98225596786E+02  0.13219924582E+03  0.23877634592E+03  0.17286825280E+03 0.  0.
         -6    2    1    2    0  502  0.24087523840E+01 -0.98225596786E+02  0.53418557769E+03  0.57015764699E+03  0.17341119069E+03 0.  0.
        -24    2    4    4    0    0 -0.61460038792E+02 -0.76668707019E+02  0.39778013901E+03  0.41793263038E+03  0.82360291009E+02 0.  0.
          5    1    3    3  501    0 -0.55571616304E+02 -0.18457998883E+00 -0.52131694735E+01  0.56013442532E+02  0.47000000000E+01 0. -1.
        -11    1    3    3    0    0 -0.56180193290E+01  0.64569763330E+01  0.23490206499E+02  0.25000889702E+02  0.00000000000E+00 0.  1.
         12    1    3    3    0    0  0.58780883249E+02  0.91953200442E+02  0.11392220879E+03  0.15776201369E+03  0.00000000000E+00 0. -1.
         -5    1    4    4    0  502  0.63868791176E+02 -0.21556889767E+02  0.13640543868E+03  0.15222501662E+03  0.47000000000E+01 0.  1.
         11    1    5    5    0    0 -0.18836650063E+02 -0.10181193805E+02  0.12823926077E+02  0.24958549095E+02  0.00000000000E+00 0. -1.
        -12    1    5    5    0    0 -0.42623388729E+02 -0.66487513214E+02  0.38495621294E+03  0.39297408128E+03  0.00000000000E+00 0.  1.
<mgrwt>
<rscale>  2 0.19919444E+03</rscale>
<asrwt>0</asrwt>
<pdfrwt beam="1">  1       21 0.11348606E+00 0.19931260E+03</pdfrwt>
<pdfrwt beam="2">  1       21 0.10965321E-01 0.19931260E+03</pdfrwt>
<totfact> 0.41577950E+04</totfact>
</mgrwt>
</event>
<event>
12    1  0.1074575E-001  0.2582375E+03  0.7546771E-02  0.1108458E+00
         21   -1    0    0  503  502  0.00000000000E+00  0.00000000000E+00  0.12542960996E+03  0.12542960996E+03  0.00000000000E+00 0.  1.
         21   -1    0    0  501  503 -0.00000000000E+00 -0.00000000000E+00 -0.54848329237E+03  0.54848329237E+03  0.00000000000E+00 0.  1.
          6    2    1    2  501    0 -0.16533523548E+03  0.93446446047E+02 -0.27686625855E+03  0.37860469078E+03  0.17498173728E+03 0.  0.
         24    2    3    3    0    0 -0.88951412881E+02  0.30641981325E+02 -0.54137612918E+02  0.13486501668E+03  0.80040031971E+02 0.  0.
         -6    2    1    2    0  502  0.16533523548E+03 -0.93446446047E+02 -0.14618742386E+03  0.29530821155E+03  0.17253462998E+03 0.  0.
        -24    2    5    5    0    0  0.22757295048E+02 -0.63504914493E+02 -0.91775588857E+02  0.13971996585E+03  0.80920587644E+02 0.  0.
          5    1    3    3  501    0 -0.76383822601E+02  0.62804464722E+02 -0.22272864564E+03  0.24373967410E+03  0.47000000000E+01 0. -1.
        -11    1    4    4    0    0 -0.90659365145E+02  0.10440405129E+02 -0.64832264657E+02  0.11194349060E+03  0.00000000000E+00 0.  1.
         12    1    4    4    0    0  0.17079522648E+01  0.20201576196E+02  0.10694651739E+02  0.22921526074E+02  0.00000000000E+00 0. -1.
         -5    1    5    5    0  502  0.14257794043E+03 -0.29941531554E+02 -0.54411835003E+02  0.15558824570E+03  0.47000000000E+01 0.  1.
         13    1    6    6    0    0  0.13704282776E+02 -0.37020543883E+02 -0.10242860416E+03  0.10977225053E+03  0.00000000000E+00 0. -1.
        -14    1    6    6    0    0  0.90530122721E+01 -0.26484370610E+02  0.10653015306E+02  0.29947715320E+02  0.00000000000E+00 0.  1.
<mgrwt>
<rscale>  2 0.25782351E+03</rscale>
<asrwt>0</asrwt>
<pdfrwt beam="1">  1       21 0.19296863E-01 0.25823746E+03</pdfrwt>
<pdfrwt beam="2">  1       21 0.84382044E-01 0.25823746E+03</pdfrwt>
<totfact> 0.29084793E+04</totfact>
</mgrwt>
</event>
<event>
12    1  0.1074575E-001  0.2047849E+03  0.7546771E-02  0.1145906E+00
         21   -1    0    0  501  502  0.00000000000E+00  0.00000000000E+00  0.32571211796E+03  0.32571211796E+03  0.00000000000E+00 0.  1.
         21   -1    0    0  502  503 -0.00000000000E+00 -0.00000000000E+00 -0.14534435235E+03  0.14534435235E+03  0.00000000000E+00 0.  1.
         -6    2    1    2    0  503 -0.64495438670E+02  0.88193193866E+02  0.17093283840E+03  0.26674876697E+03  0.17320268006E+03 0.  0.
        -24    2    3    3    0    0 -0.12404310273E+02 -0.13648290540E+02  0.10688589380E+03  0.13556464172E+03  0.81320569624E+02 0.  0.
          6    2    1    2  501    0  0.64495438670E+02 -0.88193193866E+02  0.94349272154E+01  0.20430770334E+03  0.17238015762E+03 0.  0.
         24    2    5    5    0    0  0.65323503764E+02 -0.12697268304E+03 -0.15401933213E+01  0.16372349776E+03  0.80086135751E+02 0.  0.
          5    1    5    5  501    0 -0.82806509370E+00  0.38779489174E+02  0.10975120537E+02  0.40584205588E+02  0.47000000000E+01 0. -1.
        -11    1    6    6    0    0  0.31849345256E+02 -0.21018956797E+02 -0.30551086748E+02  0.48882985174E+02  0.00000000000E+00 0.  1.
         12    1    6    6    0    0  0.33474158508E+02 -0.10595372624E+03  0.29010893427E+02  0.11484051258E+03  0.00000000000E+00 0. -1.
         -5    1    3    3    0  503 -0.52091128397E+02  0.10184148441E+03  0.64046944604E+02  0.13118412525E+03  0.47000000000E+01 0.  1.
         13    1    4    4    0    0  0.42565954017E+01  0.32527520715E+02  0.30676499372E+02  0.44913314529E+02  0.00000000000E+00 0. -1.
        -14    1    4    4    0    0 -0.16660905675E+02 -0.46175811255E+02  0.76209394424E+02  0.90651327191E+02  0.00000000000E+00 0.  1.
<mgrwt>
<rscale>  2 0.20461091E+03</rscale>
<asrwt>0</asrwt>
<pdfrwt beam="1">  1       21 0.50109556E-01 0.20478493E+03</pdfrwt>
<pdfrwt beam="2">  1       21 0.22360670E-01 0.20478493E+03</pdfrwt>
<totfact> 0.70622634E+04</totfact>
</mgrwt>
</event>
<event>
12    1  0.1074575E-001  0.3201330E+03  0.7546771E-02  0.1076023E+00
         21   -1    0    0  503  502  0.00000000000E+00  0.00000000000E+00  0.40618199365E+03  0.40618199365E+03  0.00000000000E+00 0.  1.
         21   -1    0    0  501  503 -0.00000000000E+00 -0.00000000000E+00 -0.50044093078E+03  0.50044093078E+03  0.00000000000E+00 0. -1.
          6    2    1    2  501    0  0.24398629085E+03  0.11690970218E+03 -0.36807896855E+03  0.48535985102E+03  0.16399655275E+03 0.  0.
         24    2    3    3    0    0  0.96243836706E+02  0.13776831781E+02 -0.21396695547E+03  0.24821680498E+03  0.79856415176E+02 0.  0.
         -6    2    1    2    0  502 -0.24398629085E+03 -0.11690970218E+03  0.27382003142E+03  0.42126307341E+03  0.17113730987E+03 0.  0.
        -24    2    5    5    0    0 -0.21262737751E+03 -0.33023455421E+02  0.20890840982E+03  0.31055673909E+03  0.80633828052E+02 0.  0.
          5    1    3    3  501    0  0.14774245414E+03  0.10313287039E+03 -0.15411201308E+03  0.23714304604E+03  0.47000000000E+01 0. -1.
        -13    1    4    4    0    0  0.39286349176E+02  0.21829858503E+02 -0.26616312645E+02  0.52233974123E+02  0.00000000000E+00 0.  1.
         14    1    4    4    0    0  0.56957487530E+02 -0.80530267212E+01 -0.18735064282E+03  0.19598283086E+03  0.00000000000E+00 0. -1.
         -5    1    5    5    0  502 -0.31358913343E+02 -0.83886246754E+02  0.64911621596E+02  0.11070633432E+03  0.47000000000E+01 0.  1.
         13    1    6    6    0    0 -0.63141540362E+02  0.15905030144E+02  0.99671283039E+02  0.11905540209E+03  0.00000000000E+00 0. -1.
        -14    1    6    6    0    0 -0.14948583714E+03 -0.48928485565E+02  0.10923712678E+03  0.19150133700E+03  0.00000000000E+00 0.  1.
<mgrwt>
<rscale>  2 0.31918894E+03</rscale>
<asrwt>0</asrwt>
<pdfrwt beam="1">  1       21 0.62489538E-01 0.32013305E+03</pdfrwt>
<pdfrwt beam="2">  1       21 0.76990912E-01 0.32013305E+03</pdfrwt>
<totfact> 0.32754387E+03</totfact>
</mgrwt>
</event>
<event>
12    1  0.1074575E-001  0.2446747E+03  0.7546771E-02  0.1118636E+00
         21   -1    0    0  503  502  0.00000000000E+00  0.00000000000E+00  0.28186225989E+03  0.28186225989E+03  0.00000000000E+00 0.  1.
         21   -1    0    0  501  503 -0.00000000000E+00 -0.00000000000E+00 -0.20560688245E+03  0.20560688245E+03  0.00000000000E+00 0.  1.
          6    2    1    2  501    0  0.16229227940E+03 -0.59727086157E+02  0.73649770001E+01  0.23328102977E+03  0.15639593087E+03 0.  0.
         24    2    3    3    0    0  0.17591263851E+03 -0.78722220713E+02  0.42199720454E+01  0.20923294512E+03  0.81352152636E+02 0.  0.
         -6    2    1    2    0  502 -0.16229227940E+03  0.59727086157E+02  0.68890400438E+02  0.25418811257E+03  0.17308841823E+03 0.  0.
        -24    2    5    5    0    0 -0.11705864001E+02  0.38509109077E+02  0.76105773937E+01  0.90164401578E+02  0.80322597628E+02 0.  0.
          5    1    3    3  501    0 -0.13620359113E+02  0.18995134556E+02  0.31450049547E+01  0.24048084650E+02  0.47000000000E+01 0. -1.
        -13    1    4    4    0    0  0.10532525678E+03 -0.73964665096E+02  0.32984479052E+02  0.13286142125E+03  0.00000000000E+00 0.  1.
         14    1    4    4    0    0  0.70587381729E+02 -0.47575556168E+01 -0.28764507007E+02  0.76371523870E+02  0.00000000000E+00 0. -1.
         -5    1    5    5    0  502 -0.15058641540E+03  0.21217977080E+02  0.61279823044E+02  0.16402371099E+03  0.47000000000E+01 0.  1.
         11    1    6    6    0    0 -0.30598884826E+02 -0.11839733514E+02 -0.87455357303E+01  0.33955197504E+02  0.00000000000E+00 0. -1.
        -12    1    6    6    0    0  0.18893020825E+02  0.50348842591E+02  0.16356113124E+02  0.56209204074E+02  0.00000000000E+00 0.  1.
<mgrwt>
<rscale>  2 0.24174501E+03</rscale>
<asrwt>0</asrwt>
<pdfrwt beam="1">  1       21 0.43363425E-01 0.24467470E+03</pdfrwt>
<pdfrwt beam="2">  1       21 0.31631828E-01 0.24467470E+03</pdfrwt>
<totfact> 0.47972826E+04</totfact>
</mgrwt>
</event>
<event>
12    1  0.1074575E-001  0.2407998E+03  0.7546771E-02  0.1119350E+00
         21   -1    0    0  503  502  0.00000000000E+00  0.00000000000E+00  0.25374043813E+03  0.25374043813E+03  0.00000000000E+00 0.  1.
         21   -1    0    0  501  503 -0.00000000000E+00 -0.00000000000E+00 -0.25788347088E+03  0.25788347088E+03  0.00000000000E+00 0.  1.
          6    2    1    2  501    0 -0.63460296345E+02  0.15489987059E+03 -0.89136139331E+02  0.25676793310E+03  0.17309922303E+03 0.  0.
         24    2    3    3    0    0  0.31209364389E+01  0.11706788357E+03 -0.10741066266E+03  0.17789862346E+03  0.79976497598E+02 0.  0.
         -6    2    1    2    0  502  0.63460296345E+02 -0.15489987059E+03  0.84993106586E+02  0.25485597590E+03  0.17235591422E+03 0.  0.
        -24    2    5    5    0    0  0.24266487874E+02  0.40762582316E+01  0.57091072702E+01  0.72873540747E+02  0.68355546375E+02 0.  0.
          5    1    3    3  501    0 -0.66581232784E+02  0.37831987019E+02  0.18274523326E+02  0.78869309643E+02  0.47000000000E+01 0. -1.
        -13    1    4    4    0    0 -0.31143010891E+02  0.37990121797E+02 -0.66025056740E+02  0.82294863747E+02  0.00000000000E+00 0.  1.
         14    1    4    4    0    0  0.34263947330E+02  0.79077761777E+02 -0.41385605917E+02  0.95603759714E+02  0.00000000000E+00 0. -1.
         -5    1    5    5    0  502  0.39193808471E+02 -0.15897612883E+03  0.79283999316E+02  0.18198243516E+03  0.47000000000E+01 0.  1.
         11    1    6    6    0    0 -0.27562173254E+01  0.20246198778E+02  0.27731314805E+02  0.34446061019E+02  0.00000000000E+00 0. -1.
        -12    1    6    6    0    0  0.27022705199E+02 -0.16169940546E+02 -0.22022207535E+02  0.38427479728E+02  0.00000000000E+00 0.  1.
<mgrwt>
<rscale>  2 0.24066620E+03</rscale>
<asrwt>0</asrwt>
<pdfrwt beam="1">  1       21 0.39036990E-01 0.24079975E+03</pdfrwt>
<pdfrwt beam="2">  1       21 0.39674380E-01 0.24079975E+03</pdfrwt>
<totfact> 0.37853311E+04</totfact>
</mgrwt>
</event>
<event>
12    1  0.1074575E-001  0.1895708E+03  0.7546771E-02  0.1159205E+00
         21   -1    0    0  501  502  0.00000000000E+00  0.00000000000E+00  0.16555343906E+03  0.16555343906E+03  0.00000000000E+00 0.  1.
         21   -1    0    0  502  503 -0.00000000000E+00 -0.00000000000E+00 -0.27148330479E+03  0.27148330479E+03  0.00000000000E+00 0.  1.
         -6    2    1    2    0  503  0.48923612150E+02 -0.58042682090E+02 -0.15256177368E+03  0.24333550208E+03  0.17370837348E+03 0.  0.
        -24    2    3    3    0    0 -0.29856923717E+02 -0.35951475074E+02 -0.97719919931E+02  0.14472458392E+03  0.95979570666E+02 0.  0.
          6    2    1    2  501    0 -0.48923612150E+02  0.58042682090E+02  0.46631907949E+02  0.19370124177E+03  0.17199756816E+03 0.  0.
         24    2    5    5    0    0 -0.55216610978E+01 -0.12528230846E+02  0.70082796327E+02  0.10746889706E+03  0.80315130490E+02 0.  0.
          5    1    5    5  501    0 -0.43401951052E+02  0.70570912936E+02 -0.23450888378E+02  0.86232344706E+02  0.47000000000E+01 0. -1.
        -13    1    6    6    0    0 -0.38329678277E+02  0.25116856694E+01  0.57692634170E+02  0.69310265035E+02  0.00000000000E+00 0.  1.
         14    1    6    6    0    0  0.32808017179E+02 -0.15039916515E+02  0.12390162157E+02  0.38158632029E+02  0.00000000000E+00 0. -1.
         -5    1    3    3    0  503  0.78780535867E+02 -0.22091207016E+02 -0.54841853748E+02  0.98610918165E+02  0.47000000000E+01 0.  1.
         11    1    4    4    0    0 -0.27501203127E+02  0.27169074565E+02 -0.17007176257E+02  0.42234095591E+02  0.00000000000E+00 0. -1.
        -12    1    4    4    0    0 -0.23557205905E+01 -0.63120549639E+02 -0.80712743674E+02  0.10249048833E+03  0.00000000000E+00 0.  1.
<mgrwt>
<rscale>  2 0.18917794E+03</rscale>
<asrwt>0</asrwt>
<pdfrwt beam="1">  1       21 0.25469760E-01 0.18957076E+03</pdfrwt>
<pdfrwt beam="2">  1       21 0.41766662E-01 0.18957076E+03</pdfrwt>
<totfact> 0.80766643E+04</totfact>
</mgrwt>
</event>
<event>
12    1  0.1074575E-001  0.2181008E+03  0.7546771E-02  0.1135331E+00
         21   -1    0    0  503  502  0.00000000000E+00  0.00000000000E+00  0.49668924158E+03  0.49668924158E+03  0.00000000000E+00 0.  1.
         21   -1    0    0  501  503 -0.00000000000E+00 -0.00000000000E+00 -0.10863316769E+03  0.10863316769E+03  0.00000000000E+00 0.  1.
          6    2    1    2  501    0  0.13207754200E+03 -0.14933928053E+02  0.89700780578E+02  0.23582664284E+03  0.17291754141E+03 0.  0.
         24    2    3    3    0    0  0.81810416918E+02 -0.46975529661E+02 -0.75015189747E+01  0.12170466802E+03  0.76525216288E+02 0.  0.
         -6    2    1    2    0  502 -0.13207754200E+03  0.14933928053E+02  0.29835529331E+03  0.36949576643E+03  0.17275341111E+03 0.  0.
        -24    2    5    5    0    0  0.12413326596E+00  0.21434487699E+02  0.10647004239E+03  0.13634006793E+03  0.82421426370E+02 0.  0.
          5    1    3    3  501    0  0.50267125084E+02  0.32041601608E+02  0.97202299553E+02  0.11412197482E+03  0.47000000000E+01 0. -1.
        -11    1    4    4    0    0  0.73418185809E+02 -0.30288317592E+02  0.25813903147E+02  0.83510297484E+02  0.00000000000E+00 0.  1.
         12    1    4    4    0    0  0.83922311091E+01 -0.16687212069E+02 -0.33315422122E+02  0.38194370538E+02  0.00000000000E+00 0. -1.
         -5    1    5    5    0  502 -0.13220167527E+03 -0.65005596455E+01  0.19188525092E+03  0.23315569850E+03  0.47000000000E+01 0.  1.
         11    1    6    6    0    0  0.51819387018E+01  0.59503367266E+01 -0.13301594186E+02  0.15465814034E+02  0.00000000000E+00 0. -1.
        -12    1    6    6    0    0 -0.50578054358E+01  0.15484150972E+02  0.11977163657E+03  0.12087425389E+03  0.00000000000E+00 0.  1.
<mgrwt>
<rscale>  2 0.21806830E+03</rscale>
<asrwt>0</asrwt>
<pdfrwt beam="1">  1       21 0.76413728E-01 0.21810084E+03</pdfrwt>
<pdfrwt beam="2">  1       21 0.16712795E-01 0.21810084E+03</pdfrwt>
<totfact> 0.48478671E+04</totfact>
</mgrwt>
</event>
<event>
12    1  0.1074575E-001  0.3096370E+03  0.7546771E-02  0.1080538E+00
         21   -1    0    0  503  502  0.00000000000E+00  0.00000000000E+00  0.10616447670E+03  0.10616447670E+03  0.00000000000E+00 0. -1.
         21   -1    0    0  501  503 -0.00000000000E+00 -0.00000000000E+00 -0.12255322056E+04  0.12255322056E+04  0.00000000000E+00 0. -1.
          6    2    1    2  501    0 -0.42178552221E+02  0.25319355320E+03 -0.90135690657E+03  0.95300976022E+03  0.17290842780E+03 0.  0.
         24    2    3    3    0    0 -0.71031674431E+02  0.11807516977E+03 -0.61006050528E+03  0.63057346634E+03  0.80385520271E+02 0.  0.
         -6    2    1    2    0  502  0.42178552221E+02 -0.25319355320E+03 -0.21801082231E+03  0.37868692207E+03  0.17317349869E+03 0.  0.
        -24    2    5    5    0    0  0.85465102416E+02 -0.15084448705E+03 -0.16281090850E+03  0.25451696896E+03  0.90626445131E+02 0.  0.
          5    1    3    3  501    0  0.28853122210E+02  0.13511838343E+03 -0.29129640129E+03  0.32243629388E+03  0.47000000000E+01 0. -1.
        -11    1    4    4    0    0  0.12303671157E+02 -0.18093158856E+01 -0.31279426582E+02  0.33660904254E+02  0.00000000000E+00 0.  1.
         12    1    4    4    0    0 -0.83335345588E+02  0.11988448565E+03 -0.57878107869E+03  0.59691256209E+03  0.00000000000E+00 0. -1.
         -5    1    5    5    0  502 -0.43286550195E+02 -0.10234906615E+03 -0.55199913809E+02  0.12416995311E+03  0.47000000000E+01 0.  1.
         13    1    6    6    0    0  0.70663964088E+02 -0.99420482120E+02 -0.54272183440E+02  0.13350392496E+03  0.00000000000E+00 0. -1.
        -14    1    6    6    0    0  0.14801138328E+02 -0.51424004929E+02 -0.10853872506E+03  0.12101304400E+03  0.00000000000E+00 0.  1.
<mgrwt>
<rscale>  2 0.30959994E+03</rscale>
<asrwt>0</asrwt>
<pdfrwt beam="1">  1       21 0.16332997E-01 0.30963699E+03</pdfrwt>
<pdfrwt beam="2">  1       21 0.18854340E+00 0.30963699E+03</pdfrwt>
<totfact> 0.49226531E+03</totfact>
</mgrwt>
</event>
<event>
12    1  0.1074575E-001  0.1886275E+03  0.7546771E-02  0.1163399E+00
         21   -1    0    0  503  502  0.00000000000E+00  0.00000000000E+00  0.43297754102E+02  0.43297754102E+02  0.00000000000E+00 0.  1.
         21   -1    0    0  501  503 -0.00000000000E+00 -0.00000000000E+00 -0.82652596664E+03  0.82652596664E+03  0.00000000000E+00 0.  1.
          6    2    1    2  501    0 -0.16508396159E+02  0.15359117629E+01 -0.24898896173E+03  0.30326224593E+03  0.17232991781E+03 0.  0.
         24    2    3    3    0    0 -0.61953207981E+02 -0.14839558015E+02 -0.88724716930E+02  0.13581044662E+03  0.80709290385E+02 0.  0.
         -6    2    1    2    0  502  0.16508396159E+02 -0.15359117629E+01 -0.53423925081E+03  0.56656147481E+03  0.18789742273E+03 0.  0.
        -24    2    5    5    0    0  0.59032282420E+02 -0.52984973558E+02 -0.41096521537E+03  0.42629792047E+03  0.80902972542E+02 0.  0.
          5    1    3    3  501    0  0.45444811821E+02  0.16375469778E+02 -0.16026424480E+03  0.16745179931E+03  0.47000000000E+01 0. -1.
        -11    1    4    4    0    0 -0.13291211050E+02  0.12162575595E+02 -0.76813977067E+02  0.78898489270E+02  0.00000000000E+00 0.  1.
         12    1    4    4    0    0 -0.48661996931E+02 -0.27002133610E+02 -0.11910739863E+02  0.56911957346E+02  0.00000000000E+00 0. -1.
         -5    1    5    5    0  502 -0.42523886260E+02  0.51449061795E+02 -0.12327403544E+03  0.14026355434E+03  0.47000000000E+01 0.  1.
         11    1    6    6    0    0  0.71488080901E+02 -0.16132307617E+02 -0.29566682120E+03  0.30461396261E+03  0.00000000000E+00 0. -1.
        -12    1    6    6    0    0 -0.12455798482E+02 -0.36852665941E+02 -0.11529839417E+03  0.12168395786E+03  0.00000000000E+00 0.  1.
<mgrwt>
<rscale>  2 0.18462652E+03</rscale>
<asrwt>0</asrwt>
<pdfrwt beam="1">  1       21 0.66611927E-02 0.18862748E+03</pdfrwt>
<pdfrwt beam="2">  1       21 0.12715785E+00 0.18862748E+03</pdfrwt>
<totfact> 0.75446572E+04</totfact>
</mgrwt>
</event>
<event>
12    1  0.1074575E-001  0.2696644E+03  0.7546771E-02  0.1101599E+00
         21   -1    0    0  501  502  0.00000000000E+00  0.00000000000E+00  0.37886655998E+03  0.37886655998E+03  0.00000000000E+00 0. -1.
         21   -1    0    0  502  503 -0.00000000000E+00 -0.00000000000E+00 -0.19144410244E+03  0.19144410244E+03  0.00000000000E+00 0.  1.
         -6    2    1    2    0  503  0.37671901481E+00  0.20664831082E+03  0.86257313680E+02  0.28312398574E+03  0.17324895629E+03 0.  0.
        -24    2    3    3    0    0 -0.33592032011E+02  0.21707650949E+03  0.54830283188E+02  0.23545458655E+03  0.64667354891E+02 0.  0.
          6    2    1    2  501    0 -0.37671901481E+00 -0.20664831082E+03  0.10116514387E+03  0.28718667668E+03  0.17186661877E+03 0.  0.
         24    2    5    5    0    0 -0.41549909231E+02 -0.18394248291E+03  0.39120761010E+02  0.20919705136E+03  0.81680722202E+02 0.  0.
          5    1    5    5  501    0  0.41173190216E+02 -0.22705827913E+02  0.62044382856E+02  0.77989625322E+02  0.47000000000E+01 0. -1.
        -13    1    6    6    0    0  0.14302024380E+02 -0.32247313135E+02 -0.15550219050E+02  0.38551866599E+02  0.00000000000E+00 0.  1.
         14    1    6    6    0    0 -0.55851933611E+02 -0.15169516977E+03  0.54670980060E+02  0.17064518476E+03  0.00000000000E+00 0. -1.
         -5    1    3    3    0  503  0.33968751026E+02 -0.10428198664E+02  0.31427030492E+02  0.47669399190E+02  0.47000000000E+01 0.  1.
         11    1    4    4    0    0  0.12533382694E+02  0.12151731360E+02  0.11715030010E+02  0.21023610178E+02  0.00000000000E+00 0. -1.
        -12    1    4    4    0    0 -0.46125414706E+02  0.20492477813E+03  0.43115253179E+02  0.21443097637E+03  0.00000000000E+00 0.  1.
<mgrwt>
<rscale>  2 0.26944258E+03</rscale>
<asrwt>0</asrwt>
<pdfrwt beam="1">  1       21 0.58287163E-01 0.26966436E+03</pdfrwt>
<pdfrwt beam="2">  1       21 0.29452939E-01 0.26966436E+03</pdfrwt>
<totfact> 0.29337075E+04</totfact>
</mgrwt>
</event>
<event>
12    1  0.1074575E-001  0.1854942E+03  0.7546771E-02  0.1162684E+00
         21   -1    0    0  501  502  0.00000000000E+00  0.00000000000E+00  0.27894909211E+03  0.27894909211E+03  0.00000000000E+00 0.  1.
         21   -1    0    0  502  503 -0.00000000000E+00 -0.00000000000E+00 -0.12357147580E+03  0.12357147580E+03  0.00000000000E+00 0.  1.
         -6    2    1    2    0  503  0.20639727300E+02 -0.59562159226E+02  0.64902372053E+02  0.19613771938E+03  0.17402309591E+03 0.  0.
        -24    2    3    3    0    0 -0.55885213196E+02 -0.28598664087E+02  0.21884602341E+02  0.10293137271E+03  0.78580474840E+02 0.  0.
          6    2    1    2  501    0 -0.20639727300E+02  0.59562159226E+02  0.90475244254E+02  0.20638284853E+03  0.17445475399E+03 0.  0.
         24    2    5    5    0    0 -0.68171606990E+02  0.78101788291E+02  0.81678020963E+02  0.15439747972E+03  0.80125060385E+02 0.  0.
          5    1    5    5  501    0  0.47531879690E+02 -0.18539629065E+02  0.87972232912E+01  0.51985368810E+02  0.47000000000E+01 0. -1.
        -11    1    6    6    0    0 -0.38687175561E+02  0.71838572143E+02  0.91594042360E+02  0.12266599609E+03  0.00000000000E+00 0.  1.
         12    1    6    6    0    0 -0.29484431429E+02  0.62632161484E+01 -0.99160213965E+01  0.31731483633E+02  0.00000000000E+00 0. -1.
         -5    1    3    3    0  503  0.76524940496E+02 -0.30963495139E+02  0.43017769712E+02  0.93206346673E+02  0.47000000000E+01 0.  1.
         13    1    4    4    0    0 -0.96143201012E+01  0.85029735497E+01 -0.24486580969E+02  0.27646489067E+02  0.00000000000E+00 0. -1.
        -14    1    4    4    0    0 -0.46270893095E+02 -0.37101637637E+02  0.46371183309E+02  0.75284883640E+02  0.00000000000E+00 0.  1.
<mgrwt>
<rscale>  2 0.18539267E+03</rscale>
<asrwt>0</asrwt>
<pdfrwt beam="1">  1       21 0.42915245E-01 0.18549423E+03</pdfrwt>
<pdfrwt beam="2">  1       21 0.19010996E-01 0.18549423E+03</pdfrwt>
<totfact> 0.13280360E+05</totfact>
</mgrwt>
</event>
<event>
12    1  0.1074575E-001  0.2119377E+03  0.7546771E-02  0.1140128E+00
         21   -1    0    0  501  502  0.00000000000E+00  0.00000000000E+00  0.31564333002E+03  0.31564333002E+03  0.00000000000E+00 0. -1.
         21   -1    0    0  502  503 -0.00000000000E+00 -0.00000000000E+00 -0.14288519958E+03  0.14288519958E+03  0.00000000000E+00 0. -1.
         -6    2    1    2    0  503  0.12242654694E+03 -0.70510570800E+01  0.68293456848E+02  0.22224384126E+03  0.17230888523E+03 0.  0.
        -24    2    3    3    0    0  0.56359998479E+02 -0.54757521218E+01 -0.34181016903E+02  0.10021770397E+03  0.75291519997E+02 0.  0.
          6    2    1    2  501    0 -0.12242654694E+03  0.70510570800E+01  0.10446467360E+03  0.23628468833E+03  0.17285719282E+03 0.  0.
         24    2    5    5    0    0 -0.39878522417E+01  0.39014804909E+02  0.38238792303E+02  0.96795036638E+02  0.79806114511E+02 0.  0.
          5    1    5    5  501    0 -0.11843869470E+03 -0.31963747829E+02  0.66225881293E+02  0.13948965170E+03  0.47000000000E+01 0. -1.
        -11    1    6    6    0    0  0.10727707945E+02  0.60586988711E+01  0.55454851113E+02  0.56806971946E+02  0.00000000000E+00 0.  1.
         12    1    6    6    0    0 -0.14715560186E+02  0.32956106038E+02 -0.17216058810E+02  0.39988064691E+02  0.00000000000E+00 0. -1.
         -5    1    3    3    0  503  0.66066548462E+02 -0.15753049582E+01  0.10247447375E+03  0.12202613729E+03  0.47000000000E+01 0.  1.
         13    1    4    4    0    0  0.58599724660E+02  0.14731512885E+02  0.28102938304E-01  0.60423058445E+02  0.00000000000E+00 0. -1.
        -14    1    4    4    0    0 -0.22397261812E+01 -0.20207265007E+02 -0.34209119841E+02  0.39794645528E+02  0.00000000000E+00 0.  1.
<mgrwt>
<rscale>  2 0.21182586E+03</rscale>
<asrwt>0</asrwt>
<pdfrwt beam="1">  1       21 0.48560512E-01 0.21193769E+03</pdfrwt>
<pdfrwt beam="2">  1       21 0.21982338E-01 0.21193769E+03</pdfrwt>
<totfact> 0.77634234E+04</totfact>
</mgrwt>
</event>
<event>
12    1  0.1074575E-001  0.2633035E+03  0.7546771E-02  0.1105197E+00
         21   -1    0    0  501  502  0.00000000000E+00  0.00000000000E+00  0.87527920199E+03  0.87527920199E+03  0.00000000000E+00 0.  1.
         21   -1    0    0  502  503 -0.00000000000E+00 -0.00000000000E+00 -0.81882441783E+02  0.81882441783E+02  0.00000000000E+00 0. -1.
         -6    2    1    2    0  503  0.11104899659E+03  0.17095977578E+03  0.48402859254E+03  0.55101035634E+03  0.16664216098E+03 0.  0.
        -24    2    3    3    0    0  0.12275541068E+03  0.11609862838E+03  0.44375015962E+03  0.48179166100E+03  0.81616285686E+02 0.  0.
          6    2    1    2  501    0 -0.11104899659E+03 -0.17095977578E+03  0.30936816767E+03  0.40615128743E+03  0.16640637169E+03 0.  0.
         24    2    5    5    0    0 -0.18374397708E+02 -0.76495065583E+02  0.21664038143E+03  0.24449518612E+03  0.81582642888E+02 0.  0.
          5    1    5    5  501    0 -0.92674598887E+02 -0.94464710198E+02  0.92727786242E+02  0.16165610132E+03  0.47000000000E+01 0. -1.
        -13    1    6    6    0    0 -0.49703142995E+02 -0.44803907049E+02  0.10773322774E+03  0.12682366053E+03  0.00000000000E+00 0.  1.
         14    1    6    6    0    0  0.31328745288E+02 -0.31691158534E+02  0.10890715369E+03  0.11767152559E+03  0.00000000000E+00 0. -1.
         -5    1    3    3    0  503 -0.11706414080E+02  0.54861147406E+02  0.40278432917E+02  0.69218695332E+02  0.47000000000E+01 0.  1.
         11    1    4    4    0    0 -0.10936202146E+02  0.90916687296E+00  0.31569069112E+02  0.33422047010E+02  0.00000000000E+00 0. -1.
        -12    1    4    4    0    0  0.13369161282E+03  0.11518946150E+03  0.41218109051E+03  0.44836961399E+03  0.00000000000E+00 0.  1.
<mgrwt>
<rscale>  2 0.26326620E+03</rscale>
<asrwt>0</asrwt>
<pdfrwt beam="1">  1       21 0.13465833E+00 0.26330350E+03</pdfrwt>
<pdfrwt beam="2">  1       21 0.12597299E-01 0.26330350E+03</pdfrwt>
<totfact> 0.20420559E+04</totfact>
</mgrwt>
</event>
<event>
12    1  0.1074575E-001  0.2235563E+03  0.7546771E-02  0.1133472E+00
         21   -1    0    0  501  502  0.00000000000E+00  0.00000000000E+00  0.13565638926E+03  0.13565638926E+03  0.00000000000E+00 0.  1.
         21   -1    0    0  502  503 -0.00000000000E+00 -0.00000000000E+00 -0.35566878923E+03  0.35566878923E+03  0.00000000000E+00 0.  1.
         -6    2    1    2    0  503  0.75654348435E+02 -0.96300500388E+02 -0.14588631501E+03  0.26694611261E+03  0.18702952527E+03 0.  0.
        -24    2    3    3    0    0  0.23432146631E+02 -0.46647049711E+02  0.81801556375E+01  0.96795617752E+02  0.81101565505E+02 0.  0.
          6    2    1    2  501    0 -0.75654348435E+02  0.96300500388E+02 -0.74126084965E+02  0.22437906588E+03  0.17278287508E+03 0.  0.
         24    2    5    5    0    0 -0.74870237256E+01 -0.16535740673E+02 -0.59099285033E+02  0.91613497410E+02  0.67607848452E+02 0.  0.
          5    1    5    5  501    0 -0.68167324709E+02  0.11283624106E+03 -0.15026799932E+02  0.13276556847E+03  0.47000000000E+01 0. -1.
        -11    1    6    6    0    0  0.25238073528E+02  0.80895601943E+01 -0.35643782007E+02  0.44417119845E+02  0.00000000000E+00 0.  1.
         12    1    6    6    0    0 -0.32725097253E+02 -0.24625300868E+02 -0.23455503026E+02  0.47196377565E+02  0.00000000000E+00 0. -1.
         -5    1    3    3    0  503  0.52222201804E+02 -0.49653450677E+02 -0.15406647064E+03  0.17015049486E+03  0.47000000000E+01 0.  1.
         13    1    4    4    0    0  0.49840169051E+02 -0.24683906913E+02 -0.12084589393E+02  0.56915507661E+02  0.00000000000E+00 0. -1.
        -14    1    4    4    0    0 -0.26408022420E+02 -0.21963142798E+02  0.20264745031E+02  0.39880110091E+02  0.00000000000E+00 0.  1.
<mgrwt>
<rscale>  2 0.22055252E+03</rscale>
<asrwt>0</asrwt>
<pdfrwt beam="1">  1       21 0.20870214E-01 0.22355628E+03</pdfrwt>
<pdfrwt beam="2">  1       21 0.54718275E-01 0.22355628E+03</pdfrwt>
<totfact> 0.66302507E+04</totfact>
</mgrwt>
</event>
<event>
12    1  0.1074575E-001  0.1877856E+03  0.7546771E-02  0.1160763E+00
         21   -1    0    0  503  502  0.00000000000E+00  0.00000000000E+00  0.82121894835E+02  0.82121894835E+02  0.00000000000E+00 0. -1.
         21   -1    0    0  501  503 -0.00000000000E+00 -0.00000000000E+00 -0.42654804009E+03  0.42654804009E+03  0.00000000000E+00 0.  1.
          6    2    1    2  501    0  0.68632407444E+02 -0.25708105184E+02 -0.17004048821E+03  0.25240096124E+03  0.17152598515E+03 0.  0.
         24    2    3    3    0    0 -0.28718161747E+02 -0.16454371943E+02 -0.93998718580E+02  0.12843642748E+03  0.81022698301E+02 0.  0.
         -6    2    1    2    0  502 -0.68632407444E+02  0.25708105184E+02 -0.17438565704E+03  0.25626897369E+03  0.17289336444E+03 0.  0.
        -24    2    5    5    0    0 -0.21280017466E+02  0.77080524273E+02 -0.11924872911E+03  0.16714240581E+03  0.85569141981E+02 0.  0.
          5    1    3    3  501    0  0.97350569191E+02 -0.92537332409E+01 -0.76041769632E+02  0.12396453376E+03  0.47000000000E+01 0. -1.
        -11    1    4    4    0    0  0.21618145997E+02 -0.16893508046E+02 -0.64497537597E+02  0.70090421646E+02  0.00000000000E+00 0.  1.
         12    1    4    4    0    0 -0.50336307744E+02  0.43913610285E+00 -0.29501180982E+02  0.58346005837E+02  0.00000000000E+00 0. -1.
         -5    1    5    5    0  502 -0.47352389978E+02 -0.51372419089E+02 -0.55136927932E+02  0.89126567877E+02  0.47000000000E+01 0.  1.
         11    1    6    6    0    0 -0.60082322231E+01  0.26069487284E+01  0.13024495547E+02  0.14578495134E+02  0.00000000000E+00 0. -1.
        -12    1    6    6    0    0 -0.15271785243E+02  0.74473575544E+02 -0.13227322466E+03  0.15256391068E+03  0.00000000000E+00 0.  1.
<mgrwt>
<rscale>  2 0.18747026E+03</rscale>
<asrwt>0</asrwt>
<pdfrwt beam="1">  1       21 0.12634138E-01 0.18778559E+03</pdfrwt>
<pdfrwt beam="2">  1       21 0.65622775E-01 0.18778559E+03</pdfrwt>
<totfact> 0.11442806E+05</totfact>
</mgrwt>
</event>
<event>
12    1  0.1074575E-001  0.1841205E+03  0.7546771E-02  0.1164547E+00
         21   -1    0    0  501  502  0.00000000000E+00  0.00000000000E+00  0.17114357892E+03  0.17114357892E+03  0.00000000000E+00 0.  1.
         21   -1    0    0  502  503 -0.00000000000E+00 -0.00000000000E+00 -0.47969330056E+03  0.47969330056E+03  0.00000000000E+00 0.  1.
         -6    2    1    2    0  503  0.35567451833E+02 -0.52561954639E+02 -0.40446529080E+03  0.44323112839E+03  0.16980535625E+03 0.  0.
        -24    2    3    3    0    0  0.30303749972E+02 -0.84348990617E+02 -0.38887127491E+03  0.40712869710E+03  0.80621573247E+02 0.  0.
          6    2    1    2  501    0 -0.35567451833E+02  0.52561954639E+02  0.95915569157E+02  0.20760575110E+03  0.17283676917E+03 0.  0.
         24    2    5    5    0    0 -0.13018340094E+02 -0.36677376283E+02  0.60957790270E+02  0.10903467558E+03  0.81596575753E+02 0.  0.
          5    1    5    5  501    0 -0.22549111740E+02  0.89239330921E+02  0.34957778887E+02  0.98571075515E+02  0.47000000000E+01 0. -1.
        -13    1    6    6    0    0  0.73720966347E+01 -0.15408764330E+02  0.74625140735E+02  0.76555139976E+02  0.00000000000E+00 0.  1.
         14    1    6    6    0    0 -0.20390436729E+02 -0.21268611952E+02 -0.13667350465E+02  0.32479535605E+02  0.00000000000E+00 0. -1.
         -5    1    3    3    0  503  0.52637018611E+01  0.31787035979E+02 -0.15594015889E+02  0.36102431291E+02  0.47000000000E+01 0.  1.
         11    1    4    4    0    0  0.28951297593E+02 -0.97120098902E+02 -0.28531300952E+03  0.30277715344E+03  0.00000000000E+00 0. -1.
        -12    1    4    4    0    0  0.13524523792E+01  0.12771108285E+02 -0.10355826539E+03  0.10435154366E+03  0.00000000000E+00 0.  1.
<mgrwt>
<rscale>  2 0.18340567E+03</rscale>
<asrwt>0</asrwt>
<pdfrwt beam="1">  1       21 0.26329782E-01 0.18412048E+03</pdfrwt>
<pdfrwt beam="2">  1       21 0.73798968E-01 0.18412048E+03</pdfrwt>
<totfact> 0.22719304E+04</totfact>
</mgrwt>
</event>
<event>
11    1  0.1074575E-001  0.2115762E+03  0.7546771E-02  0.1140597E+00
         21   -1    0    0  501  502  0.00000000000E+00  0.00000000000E+00  0.38482426056E+03  0.38482426056E+03  0.00000000000E+00 0. -1.
         21   -1    0    0  502  503 -0.00000000000E+00 -0.00000000000E+00 -0.11708425582E+03  0.11708425582E+03  0.00000000000E+00 0.  1.
         -6    2    1    2    0  503  0.11870562021E+03 -0.24463524960E+02  0.16292148433E+03  0.26703541408E+03  0.17342149230E+03 0.  0.
          6    2    1    2  501    0 -0.11870562021E+03  0.24463524960E+02  0.10481852040E+03  0.23487310229E+03  0.17172350927E+03 0.  0.
         24    2    4    4    0    0 -0.22624425549E+02 -0.24706260292E+02  0.91019837807E+02  0.12596140691E+03  0.80370400194E+02 0.  0.
          5    1    4    4  501    0 -0.96081194662E+02  0.49169785252E+02  0.13798682598E+02  0.10891169538E+03  0.47000000000E+01 0. -1.
        -11    1    5    5    0    0 -0.48522489257E+02 -0.30963927376E+02  0.46147522073E+02  0.73775270624E+02  0.00000000000E+00 0.  1.
         12    1    5    5    0    0  0.25898063707E+02  0.62576670842E+01  0.44872315733E+02  0.52186136286E+02  0.00000000000E+00 0. -1.
         -5    1    3    3    0  503  0.28762972462E+02 -0.48525750862E+02 -0.18527274145E+02  0.59560112229E+02  0.47000000000E+01 0.  1.
         11    1    3    3    0    0  0.40033602240E+02 -0.35861189446E+01  0.10223809633E+03  0.10985525886E+03  0.00000000000E+00 0. -1.
        -12    1    3    3    0    0  0.49909045510E+02  0.27648344846E+02  0.79210662144E+02  0.97620042992E+02  0.00000000000E+00 0.  1.
<mgrwt>
<rscale>  2 0.21122799E+03</rscale>
<asrwt>0</asrwt>
<pdfrwt beam="1">  1       21 0.59203732E-01 0.21157623E+03</pdfrwt>
<pdfrwt beam="2">  1       21 0.18012963E-01 0.21157623E+03</pdfrwt>
<totfact> 0.74147051E+04</totfact>
</mgrwt>
</event>
<event>
12    1  0.1074575E-001  0.2022177E+03  0.7546771E-02  0.1148031E+00
         21   -1    0    0  503  502  0.00000000000E+00  0.00000000000E+00  0.13752622406E+03  0.13752622406E+03  0.00000000000E+00 0. -1.
         21   -1    0    0  501  503 -0.00000000000E+00 -0.00000000000E+00 -0.32240037438E+03  0.32240037438E+03  0.00000000000E+00 0. -1.
          6    2    1    2  501    0  0.45571734596E+02  0.91288695264E+02 -0.27138470969E+02  0.20403060348E+03  0.17458975249E+03 0.  0.
         24    2    3    3    0    0  0.59862676601E+02  0.25837508982E+01  0.20882355806E+02  0.10204585961E+03  0.79919139515E+02 0.  0.
         -6    2    1    2    0  502 -0.45571734596E+02 -0.91288695264E+02 -0.15773567935E+03  0.25589599496E+03  0.17375789714E+03 0.  0.
        -24    2    5    5    0    0  0.32724312994E+01 -0.11598022484E+03 -0.80276406377E+02  0.16093572356E+03  0.77420180414E+02 0.  0.
          5    1    3    3  501    0 -0.14290942006E+02  0.88704944365E+02 -0.48020826775E+02  0.10198474387E+03  0.47000000000E+01 0. -1.
        -13    1    4    4    0    0 -0.35187978604E+01 -0.16820128495E+02 -0.18253473570E+02  0.25069662111E+02  0.00000000000E+00 0.  1.
         14    1    4    4    0    0  0.63381474462E+02  0.19403879394E+02  0.39135829376E+02  0.76976197499E+02  0.00000000000E+00 0. -1.
         -5    1    5    5    0  502 -0.48844165895E+02  0.24691529581E+02 -0.77459272972E+02  0.94960271400E+02  0.47000000000E+01 0.  1.
         11    1    6    6    0    0 -0.11126764017E+01 -0.51148806396E+02 -0.81172428837E+02  0.95949995559E+02  0.00000000000E+00 0. -1.
        -12    1    6    6    0    0  0.43851077010E+01 -0.64831418449E+02  0.89602245966E+00  0.64985728001E+02  0.00000000000E+00 0.  1.
<mgrwt>
<rscale>  2 0.20203800E+03</rscale>
<asrwt>0</asrwt>
<pdfrwt beam="1">  1       21 0.21157881E-01 0.20221768E+03</pdfrwt>
<pdfrwt beam="2">  1       21 0.49600057E-01 0.20221768E+03</pdfrwt>
<totfact> 0.80161182E+04</totfact>
</mgrwt>
</event>
<event>
11    1  0.1074575E-001  0.2033172E+03  0.7546771E-02  0.1147626E+00
         21   -1    0    0  503  502  0.00000000000E+00  0.00000000000E+00  0.82055310738E+03  0.82055310738E+03  0.00000000000E+00 0.  1.
         21   -1    0    0  501  503 -0.00000000000E+00 -0.00000000000E+00 -0.50062124024E+02  0.50062124024E+02  0.00000000000E+00 0.  1.
          6    2    1    2  501    0  0.19963673468E+02 -0.10490930587E+03  0.34643022841E+03  0.40168619932E+03  0.17301268409E+03 0.  0.
         24    2    3    3    0    0  0.91630692889E+01 -0.14312551403E+03  0.27695124673E+03  0.32152043037E+03  0.78131424383E+02 0.  0.
         -6    2    1    2    0  502 -0.19963673468E+02  0.10490930587E+03  0.42406075495E+03  0.46892903208E+03  0.16929974165E+03 0.  0.
          5    1    3    3  501    0  0.10800604179E+02  0.38216208157E+02  0.69478981676E+02  0.80165768949E+02  0.47000000000E+01 0. -1.
        -11    1    4    4    0    0  0.68323458466E+01 -0.79822738507E+02  0.74539419280E+02  0.10942794688E+03  0.00000000000E+00 0.  1.
         12    1    4    4    0    0  0.23307234424E+01 -0.63302775524E+02  0.20241182745E+03  0.21209248349E+03  0.00000000000E+00 0. -1.
         -5    1    5    5    0  502 -0.89287048438E+02  0.57076980229E+02  0.22918963019E+03  0.25254689718E+03  0.47000000000E+01 0.  1.
         13    1    5    5    0    0  0.19807044403E+02 -0.32996417074E+01  0.68063599417E+02  0.70963795057E+02  0.00000000000E+00 0. -1.
        -14    1    5    5    0    0  0.49516330567E+02  0.51131967353E+02  0.12680752535E+03  0.14541833985E+03  0.00000000000E+00 0.  1.
<mgrwt>
<rscale>  2 0.20252512E+03</rscale>
<asrwt>0</asrwt>
<pdfrwt beam="1">  1       21 0.12623893E+00 0.20331724E+03</pdfrwt>
<pdfrwt beam="2">  1       21 0.77018658E-02 0.20331724E+03</pdfrwt>
<totfact> 0.59330449E+04</totfact>
</mgrwt>
</event>
<event>
12    1  0.1074575E-001  0.1786931E+03  0.7546771E-02  0.1169263E+00
         21   -1    0    0  503  502  0.00000000000E+00  0.00000000000E+00  0.80637919434E+02  0.80637919434E+02  0.00000000000E+00 0. -1.
         21   -1    0    0  501  503 -0.00000000000E+00 -0.00000000000E+00 -0.72033018592E+03  0.72033018592E+03  0.00000000000E+00 0. -1.
          6    2    1    2  501    0 -0.81396278899E+01 -0.40314386589E+02 -0.58890971396E+03  0.61519920954E+03  0.17310087495E+03 0.  0.
         24    2    3    3    0    0  0.12794874737E+02 -0.66534244644E+02 -0.21311512034E+03  0.23788051009E+03  0.81108372152E+02 0.  0.
         -6    2    1    2    0  502  0.81396278899E+01  0.40314386589E+02 -0.50782552521E+02  0.18576889581E+03  0.17389569202E+03 0.  0.
        -24    2    5    5    0    0  0.57712915014E+02 -0.15161274999E+02 -0.50541752293E+02  0.11122221373E+03  0.79090247713E+02 0.  0.
          5    1    3    3  501    0 -0.20934502627E+02  0.26219858055E+02 -0.37579459362E+03  0.37731869944E+03  0.47000000000E+01 0. -1.
        -13    1    4    4    0    0  0.33544764274E+02 -0.24331540075E+02 -0.36865961400E+02  0.55465071555E+02  0.00000000000E+00 0.  1.
         14    1    4    4    0    0 -0.20749889538E+02 -0.42202704569E+02 -0.17624915894E+03  0.18241543854E+03  0.00000000000E+00 0. -1.
         -5    1    5    5    0  502 -0.49573287124E+02  0.55475661588E+02 -0.24080022805E+00  0.74546682083E+02  0.47000000000E+01 0.  1.
         13    1    6    6    0    0 -0.16141931039E+01 -0.32026064414E+02 -0.35297900761E+02  0.47688743109E+02  0.00000000000E+00 0. -1.
        -14    1    6    6    0    0  0.59327108118E+02  0.16864789415E+02 -0.15243851531E+02  0.63533470621E+02  0.00000000000E+00 0.  1.
<mgrwt>
<rscale>  2 0.17849941E+03</rscale>
<asrwt>0</asrwt>
<pdfrwt beam="1">  1       21 0.12405834E-01 0.17869307E+03</pdfrwt>
<pdfrwt beam="2">  1       21 0.11082003E+00 0.17869307E+03</pdfrwt>
<totfact> 0.35740956E+04</totfact>
</mgrwt>
</event>
<event>
12    1  0.1074575E-001  0.1857776E+03  0.7546771E-02  0.1162338E+00
         21   -1    0    0  503  502  0.00000000000E+00  0.00000000000E+00  0.77719346054E+02  0.77719346054E+02  0.00000000000E+00 0. -1.
         21   -1    0    0  501  503 -0.00000000000E+00 -0.00000000000E+00 -0.49432156944E+03  0.49432156944E+03  0.00000000000E+00 0.  1.
          6    2    1    2  501    0  0.21325994879E+01 -0.66306971715E+02 -0.29957408916E+03  0.35247562965E+03  0.17347412522E+03 0.  0.
         24    2    3    3    0    0  0.11076261562E+02 -0.10274411498E+03 -0.28151399065E+03  0.31057203005E+03  0.80782561146E+02 0.  0.
         -6    2    1    2    0  502 -0.21325994879E+01  0.66306971715E+02 -0.11702813422E+03  0.21956528584E+03  0.17352857998E+03 0.  0.
        -24    2    5    5    0    0  0.20739363933E+02  0.10562440422E+03 -0.61502925860E+02  0.14763388816E+03  0.80165572792E+02 0.  0.
          5    1    3    3  501    0 -0.89436620742E+01  0.36437143269E+02 -0.18060098512E+02  0.41903599597E+02  0.47000000000E+01 0. -1.
        -13    1    4    4    0    0  0.18849111665E+02 -0.46525060030E+01 -0.11912629180E+03  0.12069800421E+03  0.00000000000E+00 0.  1.
         14    1    4    4    0    0 -0.77728501031E+01 -0.98091608981E+02 -0.16238769885E+03  0.18987402584E+03  0.00000000000E+00 0. -1.
         -5    1    5    5    0  502 -0.22871963421E+02 -0.39317432501E+02 -0.55525208362E+02  0.71931397684E+02  0.47000000000E+01 0.  1.
         13    1    6    6    0    0  0.21469101358E+01 -0.42681785307E+00  0.15251406220E+02  0.15407686014E+02  0.00000000000E+00 0. -1.
        -14    1    6    6    0    0  0.18592453797E+02  0.10605122207E+03 -0.76754332080E+02  0.13222620214E+03  0.00000000000E+00 0.  1.
<mgrwt>
<rscale>  2 0.18576492E+03</rscale>
<asrwt>0</asrwt>
<pdfrwt beam="1">  1       21 0.11956823E-01 0.18577764E+03</pdfrwt>
<pdfrwt beam="2">  1       21 0.76049469E-01 0.18577764E+03</pdfrwt>
<totfact> 0.91282579E+04</totfact>
</mgrwt>
</event>
<event>
12    1  0.1074575E-001  0.2128562E+03  0.7546771E-02  0.1139573E+00
         21   -1    0    0  503  502  0.00000000000E+00  0.00000000000E+00  0.61169727627E+03  0.61169727627E+03  0.00000000000E+00 0.  1.
         21   -1    0    0  501  503 -0.00000000000E+00 -0.00000000000E+00 -0.86921752689E+02  0.86921752689E+02  0.00000000000E+00 0. -1.
          6    2    1    2  501    0 -0.12173506568E+03  0.45691841205E+01  0.12510631836E+03  0.24580203813E+03  0.17299348946E+03 0.  0.
         24    2    3    3    0    0 -0.10289740258E+03  0.57941885630E+02  0.51131774185E+02  0.15253990217E+03  0.81907422470E+02 0.  0.
         -6    2    1    2    0  502  0.12173506568E+03 -0.45691841205E+01  0.39966920522E+03  0.45281699082E+03  0.17454927648E+03 0.  0.
        -24    2    5    5    0    0 -0.36164468661E+01 -0.69273375466E+01  0.21328072616E+03  0.22813651167E+03  0.80601073902E+02 0.  0.
          5    1    3    3  501    0 -0.18837663102E+02 -0.53372701510E+02  0.73974544172E+02  0.93262135956E+02  0.47000000000E+01 0. -1.
        -13    1    4    4    0    0 -0.22485982936E+02 -0.13968617885E+02  0.34350426531E+02  0.43366963429E+02  0.00000000000E+00 0.  1.
         14    1    4    4    0    0 -0.80411419643E+02  0.71910503515E+02  0.16781347654E+02  0.10917293874E+03  0.00000000000E+00 0. -1.
         -5    1    5    5    0  502  0.12535151255E+03  0.23581534261E+01  0.18638847906E+03  0.22468047915E+03  0.47000000000E+01 0.  1.
         13    1    6    6    0    0 -0.15392280786E+02  0.30638852844E+02  0.53248339285E+02  0.63332829149E+02  0.00000000000E+00 0. -1.
        -14    1    6    6    0    0  0.11775833920E+02 -0.37566190391E+02  0.16003238687E+03  0.16480368252E+03  0.00000000000E+00 0.  1.
<mgrwt>
<rscale>  2 0.21253698E+03</rscale>
<asrwt>0</asrwt>
<pdfrwt beam="1">  1       21 0.94107270E-01 0.21285618E+03</pdfrwt>
<pdfrwt beam="2">  1       21 0.13372578E-01 0.21285618E+03</pdfrwt>
<totfact> 0.45276685E+04</totfact>
</mgrwt>
</event>
<event>
12    1  0.1074575E-001  0.2094955E+03  0.7546771E-02  0.1142389E+00
         21   -1    0    0  503  502  0.00000000000E+00  0.00000000000E+00  0.21686170639E+03  0.21686170639E+03  0.00000000000E+00 0. -1.
         21   -1    0    0  501  503 -0.00000000000E+00 -0.00000000000E+00 -0.34177408320E+03  0.34177408320E+03  0.00000000000E+00 0.  1.
          6    2    1    2  501    0 -0.39831881628E+02  0.10700265410E+03 -0.24232465528E+03  0.32032730642E+03  0.17564793737E+03 0.  0.
         24    2    3    3    0    0 -0.59107577754E+02  0.12071559909E+03 -0.24913240153E+03  0.29526672521E+03  0.83961443022E+02 0.  0.
         -6    2    1    2    0  502  0.39831881628E+02 -0.10700265410E+03  0.11741227847E+03  0.23830848317E+03  0.17311598204E+03 0.  0.
        -24    2    5    5    0    0  0.51328125772E+02 -0.54668503042E+01  0.92629458548E+02  0.13305658892E+03  0.80370245211E+02 0.  0.
          5    1    3    3  501    0  0.19275696126E+02 -0.13712944992E+02  0.68077462446E+01  0.25060581207E+02  0.47000000000E+01 0. -1.
        -11    1    4    4    0    0 -0.83169647636E+01 -0.12796052550E+02 -0.30506594341E+02  0.34111041644E+02  0.00000000000E+00 0.  1.
         12    1    4    4    0    0 -0.50790612990E+02  0.13351165164E+03 -0.21862580718E+03  0.26115568357E+03  0.00000000000E+00 0. -1.
         -5    1    5    5    0  502 -0.11496244144E+02 -0.10153580379E+03  0.24782819919E+02  0.10525189426E+03  0.47000000000E+01 0.  1.
         13    1    6    6    0    0  0.55375380267E+02 -0.20467909425E+02  0.25771412633E+02  0.64416874847E+02  0.00000000000E+00 0. -1.
        -14    1    6    6    0    0 -0.40472544950E+01  0.15001059121E+02  0.66858045916E+02  0.68639714068E+02  0.00000000000E+00 0.  1.
<mgrwt>
<rscale>  2 0.20896386E+03</rscale>
<asrwt>0</asrwt>
<pdfrwt beam="1">  1       21 0.33363340E-01 0.20949545E+03</pdfrwt>
<pdfrwt beam="2">  1       21 0.52580628E-01 0.20949545E+03</pdfrwt>
<totfact> 0.29398150E+04</totfact>
</mgrwt>
</event>
<event>
12    1  0.1074575E-001  0.1743814E+03  0.7546771E-02  0.1173845E+00
         21   -1    0    0  501  502  0.00000000000E+00  0.00000000000E+00  0.54471284389E+02  0.54471284389E+02  0.00000000000E+00 0. -1.
         21   -1    0    0  502  503 -0.00000000000E+00 -0.00000000000E+00 -0.55445847673E+03  0.55445847673E+03  0.00000000000E+00 0. -1.
         -6    2    1    2    0  503 -0.14633447793E+01  0.11813248006E+02 -0.26854854015E+03  0.31914931007E+03  0.17203566343E+03 0.  0.
        -24    2    3    3    0    0 -0.26612745070E+02 -0.14703820442E+02 -0.54494610846E+02  0.10194704971E+03  0.80616982066E+02 0.  0.
          6    2    1    2  501    0  0.14633447793E+01 -0.11813248006E+02 -0.23143865219E+03  0.28978045105E+03  0.17397461274E+03 0.  0.
         24    2    5    5    0    0 -0.57461802376E+02  0.23065987704E+02 -0.16738652376E+03  0.19590021241E+03  0.80775902127E+02 0.  0.
          5    1    5    5  501    0  0.58925147155E+02 -0.34879235710E+02 -0.64052128426E+02  0.93880238639E+02  0.47000000000E+01 0. -1.
        -13    1    6    6    0    0 -0.51953102185E+01  0.43008177965E+02 -0.52098621155E+02  0.67756630276E+02  0.00000000000E+00 0.  1.
         14    1    6    6    0    0 -0.52266492157E+02 -0.19942190260E+02 -0.11528790261E+03  0.12814358214E+03  0.00000000000E+00 0. -1.
         -5    1    3    3    0  503  0.25149400291E+02  0.26517068448E+02 -0.21405392930E+03  0.21720226036E+03  0.47000000000E+01 0.  1.
         11    1    4    4    0    0  0.37628808523E+01  0.29489335265E+02 -0.75398557331E+01  0.30669685215E+02  0.00000000000E+00 0. -1.
        -12    1    4    4    0    0 -0.30375625923E+02 -0.44193155707E+02 -0.46954755113E+02  0.71277364495E+02  0.00000000000E+00 0.  1.
<mgrwt>
<rscale>  2 0.17389575E+03</rscale>
<asrwt>0</asrwt>
<pdfrwt beam="1">  1       21 0.83801978E-02 0.17438136E+03</pdfrwt>
<pdfrwt beam="2">  1       21 0.85301303E-01 0.17438136E+03</pdfrwt>
<totfact> 0.13242724E+05</totfact>
</mgrwt>
</event>
<event>
12    1  0.1074575E-001  0.1802762E+03  0.7546771E-02  0.1168509E+00
         21   -1    0    0  501  502  0.00000000000E+00  0.00000000000E+00  0.18971905746E+03  0.18971905746E+03  0.00000000000E+00 0. -1.
         21   -1    0    0  502  503 -0.00000000000E+00 -0.00000000000E+00 -0.18522269585E+03  0.18522269585E+03  0.00000000000E+00 0. -1.
         -6    2    1    2    0  503  0.17049145130E+02 -0.47456515596E+02  0.60144172879E+02  0.18627226523E+03  0.16892969260E+03 0.  0.
        -24    2    3    3    0    0  0.10473343568E+01 -0.49309362882E+02 -0.25299176595E+02  0.99196740773E+02  0.82264420416E+02 0.  0.
          6    2    1    2  501    0 -0.17049145130E+02  0.47456515596E+02 -0.55647811263E+02  0.18866948807E+03  0.17308004683E+03 0.  0.
         24    2    5    5    0    0  0.23751619097E+01  0.27203840854E+02  0.36481893425E+02  0.92246217935E+02  0.80204400279E+02 0.  0.
          5    1    5    5  501    0 -0.19424307040E+02  0.20252674742E+02 -0.92129704689E+02  0.96423270138E+02  0.47000000000E+01 0. -1.
        -11    1    6    6    0    0  0.29487901347E+02  0.27637433418E+02  0.48031748084E+02  0.62772708049E+02  0.00000000000E+00 0.  1.
         12    1    6    6    0    0 -0.27112739437E+02 -0.43359256422E+00 -0.11549854659E+02  0.29473509885E+02  0.00000000000E+00 0. -1.
         -5    1    3    3    0  503  0.16001810774E+02  0.18528472856E+01  0.85443349474E+02  0.87075524462E+02  0.47000000000E+01 0.  1.
         13    1    4    4    0    0  0.38795191168E+02 -0.11316806560E+02 -0.20801155910E+02  0.45451348227E+02  0.00000000000E+00 0. -1.
        -14    1    4    4    0    0 -0.37747856812E+02 -0.37992556322E+02 -0.44980206853E+01  0.53745392545E+02  0.00000000000E+00 0.  1.
<mgrwt>
<rscale>  2 0.17927260E+03</rscale>
<asrwt>0</asrwt>
<pdfrwt beam="1">  1       21 0.29187547E-01 0.18027617E+03</pdfrwt>
<pdfrwt beam="2">  1       21 0.28495799E-01 0.18027617E+03</pdfrwt>
<totfact> 0.13293237E+05</totfact>
</mgrwt>
</event>
<event>
12    1  0.1074575E-001  0.1823675E+03  0.7546771E-02  0.1167699E+00
         21   -1    0    0  503  502  0.00000000000E+00  0.00000000000E+00  0.10121045682E+03  0.10121045682E+03  0.00000000000E+00 0.  1.
         21   -1    0    0  501  503 -0.00000000000E+00 -0.00000000000E+00 -0.41722489691E+03  0.41722489691E+03  0.00000000000E+00 0.  1.
          6    2    1    2  501    0  0.56242065116E+01 -0.98345092582E+01 -0.29060970907E+03  0.34309168509E+03  0.18201525239E+03 0.  0.
         24    2    3    3    0    0  0.73705388894E+02 -0.16972386677E+02 -0.23036952454E+03  0.25178469456E+03  0.67859180034E+02 0.  0.
         -6    2    1    2    0  502 -0.56242065116E+01  0.98345092582E+01 -0.25404731017E+02  0.17534366863E+03  0.17312322923E+03 0.  0.
        -24    2    5    5    0    0  0.47856517688E+02 -0.37513786492E+02 -0.26819098682E+02  0.10374660579E+03  0.79665323048E+02 0.  0.
          5    1    3    3  501    0 -0.68081182382E+02  0.71378774192E+01 -0.60240184532E+02  0.91306990538E+02  0.47000000000E+01 0. -1.
        -11    1    4    4    0    0  0.41818820191E+02 -0.41202533730E+02 -0.16489035144E+03  0.17502939898E+03  0.00000000000E+00 0.  1.
         12    1    4    4    0    0  0.31886568703E+02  0.24230147052E+02 -0.65479173097E+02  0.76755295578E+02  0.00000000000E+00 0. -1.
         -5    1    5    5    0  502 -0.53480724200E+02  0.47348295750E+02  0.14143676649E+01  0.71597062840E+02  0.47000000000E+01 0.  1.
         11    1    6    6    0    0 -0.12573803666E+02 -0.32329067719E+02 -0.25547990633E+02  0.43080958480E+02  0.00000000000E+00 0. -1.
        -12    1    6    6    0    0  0.60430321353E+02 -0.51847187733E+01 -0.12711080487E+01  0.60665647308E+02  0.00000000000E+00 0.  1.
<mgrwt>
<rscale>  2 0.18010733E+03</rscale>
<asrwt>0</asrwt>
<pdfrwt beam="1">  1       21 0.15570840E-01 0.18236749E+03</pdfrwt>
<pdfrwt beam="2">  1       21 0.64188444E-01 0.18236749E+03</pdfrwt>
<totfact> 0.82425691E+04</totfact>
</mgrwt>
</event>
<event>
12    1  0.1074575E-001  0.3185210E+03  0.7546771E-02  0.1076351E+00
         21   -1    0    0  501  502  0.00000000000E+00  0.00000000000E+00  0.41634666069E+03  0.41634666069E+03  0.00000000000E+00 0.  1.
         21   -1    0    0  502  503 -0.00000000000E+00 -0.00000000000E+00 -0.72819242074E+03  0.72819242074E+03  0.00000000000E+00 0.  1.
         -6    2    1    2    0  503 -0.11608099038E+03 -0.24033839332E+03 -0.62276812543E+03  0.69942300101E+03  0.17353690287E+03 0.  0.
        -24    2    3    3    0    0 -0.12080999242E+03 -0.16885629487E+03 -0.33263789429E+03  0.40054226413E+03  0.81722910183E+02 0.  0.
          6    2    1    2  501    0  0.11608099038E+03  0.24033839332E+03  0.31092236538E+03  0.44511608042E+03  0.17383402463E+03 0.  0.
         24    2    5    5    0    0  0.47380978387E+02  0.11327386287E+03  0.67650478446E+02  0.16215250057E+03  0.81491846741E+02 0.  0.
          5    1    5    5  501    0  0.68700011996E+02  0.12706453045E+03  0.24327188693E+03  0.28296357984E+03  0.47000000000E+01 0. -1.
        -13    1    6    6    0    0 -0.97683591132E+01  0.17652716847E+02  0.43809949470E+02  0.48232260204E+02  0.00000000000E+00 0.  1.
         14    1    6    6    0    0  0.57149337500E+02  0.95621146025E+02  0.23840528976E+02  0.11392024037E+03  0.00000000000E+00 0. -1.
         -5    1    3    3    0  503  0.47290020335E+01 -0.71482098447E+02 -0.29013023114E+03  0.29888073688E+03  0.47000000000E+01 0.  1.
         13    1    4    4    0    0 -0.10726083448E+03 -0.15657068662E+03 -0.33178694049E+03  0.38223270452E+03  0.00000000000E+00 0. -1.
        -14    1    4    4    0    0 -0.13549157931E+02 -0.12285608256E+02 -0.85095380317E+00  0.18309559614E+02  0.00000000000E+00 0.  1.
<mgrwt>
<rscale>  2 0.31848045E+03</rscale>
<asrwt>0</asrwt>
<pdfrwt beam="1">  1       21 0.64053332E-01 0.31852097E+03</pdfrwt>
<pdfrwt beam="2">  1       21 0.11202960E+00 0.31852097E+03</pdfrwt>
<totfact> 0.12777431E+03</totfact>
</mgrwt>
</event>
<event>
12    1  0.1074575E-001  0.1883449E+03  0.7546771E-02  0.1160107E+00
         21   -1    0    0  503  502  0.00000000000E+00  0.00000000000E+00  0.23357853232E+04  0.23357853232E+04  0.00000000000E+00 0.  1.
         21   -1    0    0  501  503 -0.00000000000E+00 -0.00000000000E+00 -0.35748831106E+02  0.35748831106E+02  0.00000000000E+00 0.  1.
          6    2    1    2  501    0  0.73558992472E+02 -0.14363504292E+02  0.24879817017E+03  0.31166706047E+03  0.17210052722E+03 0.  0.
         24    2    3    3    0    0  0.11478938631E+03  0.76447926873E+01  0.18109058991E+03  0.22926125401E+03  0.80820014697E+02 0.  0.
         -6    2    1    2    0  502 -0.73558992472E+02  0.14363504292E+02  0.20512383219E+04  0.20598670938E+04  0.17279049551E+03 0.  0.
        -24    2    5    5    0    0  0.27239338331E+02  0.47673625643E+01  0.92296224740E+03  0.92704699348E+03  0.82414250637E+02 0.  0.
          5    1    3    3  501    0 -0.41230393834E+02 -0.22008296979E+02  0.67707580269E+02  0.82405806455E+02  0.47000000000E+01 0. -1.
        -11    1    4    4    0    0  0.52110947561E+02  0.28386786415E+02  0.34873165991E+02  0.68829486450E+02  0.00000000000E+00 0.  1.
         12    1    4    4    0    0  0.62678438745E+02 -0.20741993728E+02  0.14621742391E+03  0.16043176756E+03  0.00000000000E+00 0. -1.
         -5    1    5    5    0  502 -0.10079833080E+03  0.95961417277E+01  0.11282760745E+04  0.11328201003E+04  0.47000000000E+01 0.  1.
         11    1    6    6    0    0  0.46794991183E+02  0.29538581163E+02  0.57559302061E+03  0.57824702711E+03  0.00000000000E+00 0. -1.
        -12    1    6    6    0    0 -0.19555652853E+02 -0.24771218599E+02  0.34736922678E+03  0.34879996638E+03  0.00000000000E+00 0.  1.
<mgrwt>
<rscale>  2 0.18818648E+03</rscale>
<asrwt>0</asrwt>
<pdfrwt beam="1">  1       21 0.35935147E+00 0.18834487E+03</pdfrwt>
<pdfrwt beam="2">  1       21 0.54998220E-02 0.18834487E+03</pdfrwt>
<totfact> 0.35419151E+03</totfact>
</mgrwt>
</event>
<event>
12    1  0.1074575E-001  0.2177688E+03  0.7546771E-02  0.1135789E+00
         21   -1    0    0  501  502  0.00000000000E+00  0.00000000000E+00  0.10905706639E+04  0.10905706639E+04  0.00000000000E+00 0.  1.
         21   -1    0    0  502  503 -0.00000000000E+00 -0.00000000000E+00 -0.43659825831E+02  0.43659825831E+02  0.00000000000E+00 0. -1.
         -6    2    1    2    0  503 -0.45532066704E+02  0.12233535021E+03  0.58041477861E+03  0.61992304094E+03  0.17431051158E+03 0.  0.
        -24    2    3    3    0    0  0.38407114949E+02  0.39202424164E+02  0.20992207914E+03  0.23102228243E+03  0.79322626835E+02 0.  0.
          6    2    1    2  501    0  0.45532066704E+02 -0.12233535021E+03  0.46649605947E+03  0.51430744880E+03  0.17278446511E+03 0.  0.
         24    2    5    5    0    0  0.23144012252E+02 -0.15310101986E+03  0.41416252088E+03  0.44943341183E+03  0.80524719129E+02 0.  0.
          5    1    5    5  501    0  0.22388054452E+02  0.30765669646E+02  0.52333538592E+02  0.64874036967E+02  0.47000000000E+01 0. -1.
        -11    1    6    6    0    0  0.47716125607E+02 -0.11670177447E+03  0.25715906041E+03  0.28640341331E+03  0.00000000000E+00 0.  1.
         12    1    6    6    0    0 -0.24572113355E+02 -0.36399245391E+02  0.15700346046E+03  0.16302999852E+03  0.00000000000E+00 0. -1.
         -5    1    3    3    0  503 -0.83939181653E+02  0.83132926047E+02  0.37049269947E+03  0.38890075851E+03  0.47000000000E+01 0.  1.
         11    1    4    4    0    0  0.54312789951E+02  0.38746393369E+02  0.10166185975E+03  0.12159891397E+03  0.00000000000E+00 0. -1.
        -12    1    4    4    0    0 -0.15905675002E+02  0.45603079479E+00  0.10826021940E+03  0.10942336846E+03  0.00000000000E+00 0.  1.
<mgrwt>
<rscale>  2 0.21746329E+03</rscale>
<asrwt>0</asrwt>
<pdfrwt beam="1">  1       21 0.16778008E+00 0.21776883E+03</pdfrwt>
<pdfrwt beam="2">  1       21 0.67168971E-02 0.21776883E+03</pdfrwt>
<totfact> 0.35379357E+04</totfact>
</mgrwt>
</event>
<event>
12    1  0.1074575E-001  0.2371382E+03  0.7546771E-02  0.1122462E+00
         21   -1    0    0  501  502  0.00000000000E+00  0.00000000000E+00  0.35089986099E+03  0.35089986099E+03  0.00000000000E+00 0. -1.
         21   -1    0    0  502  503 -0.00000000000E+00 -0.00000000000E+00 -0.62681890382E+03  0.62681890382E+03  0.00000000000E+00 0.  1.
         -6    2    1    2    0  503  0.14856849972E+03  0.69274610018E+02 -0.56072302552E+03  0.60711404642E+03  0.16524401141E+03 0.  0.
        -24    2    3    3    0    0  0.64610606262E+02  0.71737249830E+02 -0.19380138343E+03  0.23067205367E+03  0.79560396369E+02 0.  0.
          6    2    1    2  501    0 -0.14856849972E+03 -0.69274610018E+02  0.28480398269E+03  0.37060471839E+03  0.17135628975E+03 0.  0.
         24    2    5    5    0    0 -0.13359479716E+03 -0.14171932517E+02  0.12697555039E+03  0.20269873018E+03  0.83159914146E+02 0.  0.
          5    1    5    5  501    0 -0.14973702564E+02 -0.55102677501E+02  0.15782843230E+03  0.16790598821E+03  0.47000000000E+01 0. -1.
        -13    1    6    6    0    0 -0.31047361437E+02  0.16523195547E+02 -0.18328238142E+01  0.35218090329E+02  0.00000000000E+00 0.  1.
         14    1    6    6    0    0 -0.10254743572E+03 -0.30695128064E+02  0.12880837420E+03  0.16748063985E+03  0.00000000000E+00 0. -1.
         -5    1    3    3    0  503  0.83957893462E+02 -0.24626398120E+01 -0.36692164209E+03  0.37644199275E+03  0.47000000000E+01 0.  1.
         11    1    4    4    0    0  0.51458857833E+02  0.16290766089E+02 -0.41581405126E+02  0.68135279859E+02  0.00000000000E+00 0. -1.
        -12    1    4    4    0    0  0.13151748429E+02  0.55446483741E+02 -0.15221997831E+03  0.16253677381E+03  0.00000000000E+00 0.  1.
<mgrwt>
<rscale>  2 0.23603599E+03</rscale>
<asrwt>0</asrwt>
<pdfrwt beam="1">  1       21 0.53984595E-01 0.23713825E+03</pdfrwt>
<pdfrwt beam="2">  1       21 0.96433677E-01 0.23713825E+03</pdfrwt>
<totfact> 0.28002106E+03</totfact>
</mgrwt>
</event>
<event>
11    1  0.1074575E-001  0.3208628E+03  0.7546771E-02  0.1075509E+00
         21   -1    0    0  503  502  0.00000000000E+00  0.00000000000E+00  0.51742647469E+03  0.51742647469E+03  0.00000000000E+00 0. -1.
         21   -1    0    0  501  503 -0.00000000000E+00 -0.00000000000E+00 -0.23695583612E+03  0.23695583612E+03  0.00000000000E+00 0.  1.
          6    2    1    2  501    0  0.18452224036E+03  0.19723820241E+03 -0.13087129917E+02  0.32112957169E+03  0.17320959317E+03 0.  0.
         -6    2    1    2    0  502 -0.18452224036E+03 -0.19723820241E+03  0.29355776849E+03  0.43325273912E+03  0.16905740694E+03 0.  0.
        -24    2    4    4    0    0 -0.12290136492E+03 -0.19553707573E+03  0.27372143999E+03  0.36832511750E+03  0.86025995977E+02 0.  0.
          5    1    3    3  501    0  0.15978909116E+03  0.21174562985E+03  0.21936938072E+02  0.26621811483E+03  0.47000000000E+01 0. -1.
        -11    1    3    3    0    0 -0.54413807320E+01  0.19874316743E+01 -0.12571479011E+02  0.13841986615E+02  0.00000000000E+00 0.  1.
         12    1    3    3    0    0  0.30174529934E+02 -0.16494859114E+02 -0.22452588978E+02  0.41069470239E+02  0.00000000000E+00 0. -1.
         -5    1    4    4    0  502 -0.61620875437E+02 -0.17011266756E+01  0.19836328497E+02  0.64927621625E+02  0.47000000000E+01 0.  1.
         13    1    5    5    0    0 -0.74320868885E+02 -0.15177031439E+03  0.13990834542E+03  0.21939043963E+03  0.00000000000E+00 0. -1.
        -14    1    5    5    0    0 -0.48580496036E+02 -0.43766761343E+02  0.13381309457E+03  0.14893467787E+03  0.00000000000E+00 0.  1.
<mgrwt>
<rscale>  2 0.32030577E+03</rscale>
<asrwt>0</asrwt>
<pdfrwt beam="1">  1       21 0.79604073E-01 0.32086279E+03</pdfrwt>
<pdfrwt beam="2">  1       21 0.36454744E-01 0.32086279E+03</pdfrwt>
<totfact> 0.94051198E+03</totfact>
</mgrwt>
</event>
<event>
12    1  0.1074575E-001  0.2743116E+03  0.7546771E-02  0.1099200E+00
         21   -1    0    0  501  502  0.00000000000E+00  0.00000000000E+00  0.46584870061E+03  0.46584870061E+03  0.00000000000E+00 0. -1.
         21   -1    0    0  502  503 -0.00000000000E+00 -0.00000000000E+00 -0.27080063031E+03  0.27080063031E+03  0.00000000000E+00 0. -1.
         -6    2    1    2    0  503  0.21010918434E+03 -0.39712975575E+01 -0.13833455675E+03  0.30491930879E+03  0.17227215311E+03 0.  0.
        -24    2    3    3    0    0  0.16520643491E+03 -0.64469556632E+02 -0.92585353503E+02  0.21665053824E+03  0.83161999550E+02 0.  0.
          6    2    1    2  501    0 -0.21010918434E+03  0.39712975575E+01  0.33338262705E+03  0.43173002212E+03  0.17630994139E+03 0.  0.
         24    2    5    5    0    0 -0.10626242121E+03  0.13064081448E+02  0.28950707589E+03  0.31853115763E+03  0.78647180558E+02 0.  0.
          5    1    5    5  501    0 -0.10384676313E+03 -0.90927838905E+01  0.43875551167E+02  0.11319886449E+03  0.47000000000E+01 0. -1.
        -11    1    6    6    0    0 -0.16108434316E+02  0.33355671254E+02  0.11847887152E+03  0.12413430412E+03  0.00000000000E+00 0.  1.
         12    1    6    6    0    0 -0.90153986897E+02 -0.20291589806E+02  0.17102820436E+03  0.19439685352E+03  0.00000000000E+00 0. -1.
         -5    1    3    3    0  503  0.44902749435E+02  0.60498259074E+02 -0.45749203244E+02  0.88268770555E+02  0.47000000000E+01 0.  1.
         13    1    4    4    0    0  0.10322615553E+03 -0.37667454356E+01 -0.76205109223E+02  0.12836294726E+03  0.00000000000E+00 0. -1.
        -14    1    4    4    0    0  0.61980279374E+02 -0.60702811196E+02 -0.16380244279E+02  0.88287590980E+02  0.00000000000E+00 0.  1.
<mgrwt>
<rscale>  2 0.27366488E+03</rscale>
<asrwt>0</asrwt>
<pdfrwt beam="1">  1       21 0.71669031E-01 0.27431157E+03</pdfrwt>
<pdfrwt beam="2">  1       21 0.41661636E-01 0.27431157E+03</pdfrwt>
<totfact> 0.92883858E+03</totfact>
</mgrwt>
</event>
<event>
12    1  0.1074575E-001  0.1839901E+03  0.7546771E-02  0.1164225E+00
         21   -1    0    0  501  502  0.00000000000E+00  0.00000000000E+00  0.38583329302E+03  0.38583329302E+03  0.00000000000E+00 0.  1.
         21   -1    0    0  502  503 -0.00000000000E+00 -0.00000000000E+00 -0.88657361473E+02  0.88657361473E+02  0.00000000000E+00 0. -1.
         -6    2    1    2    0  503 -0.54006400668E+02 -0.23369176580E+02  0.11937317554E+03  0.21932236979E+03  0.17432595080E+03 0.  0.
        -24    2    3    3    0    0 -0.10240164018E+03 -0.18873739220E+02  0.10556146864E+03  0.16857632155E+03  0.80202484880E+02 0.  0.
          6    2    1    2  501    0  0.54006400668E+02  0.23369176580E+02  0.17780275600E+03  0.25516828470E+03  0.17330384805E+03 0.  0.
         24    2    5    5    0    0  0.54898758586E+02  0.50240885616E+02  0.19441057858E+03  0.22321840489E+03  0.80578923640E+02 0.  0.
          5    1    5    5  501    0 -0.89235791788E+00 -0.26871709037E+02 -0.16607822581E+02  0.31949879814E+02  0.47000000000E+01 0. -1.
        -11    1    6    6    0    0  0.51352318950E+02  0.71033010730E+02  0.14408185763E+03  0.16864854276E+03  0.00000000000E+00 0.  1.
         12    1    6    6    0    0  0.35464396358E+01 -0.20792125114E+02  0.50328720950E+02  0.54569862134E+02  0.00000000000E+00 0. -1.
         -5    1    3    3    0  503  0.48395239512E+02 -0.44954373594E+01  0.13811706903E+02  0.50746048241E+02  0.47000000000E+01 0.  1.
         11    1    4    4    0    0 -0.91662812361E+01  0.22211522205E+02  0.33566621134E+01  0.24261896276E+02  0.00000000000E+00 0. -1.
        -12    1    4    4    0    0 -0.93235358944E+02 -0.41085261425E+02  0.10220480653E+03  0.14431442527E+03  0.00000000000E+00 0.  1.
<mgrwt>
<rscale>  2 0.18374756E+03</rscale>
<asrwt>0</asrwt>
<pdfrwt beam="1">  1       21 0.59358967E-01 0.18399007E+03</pdfrwt>
<pdfrwt beam="2">  1       21 0.13639594E-01 0.18399007E+03</pdfrwt>
<totfact> 0.12397611E+05</totfact>
</mgrwt>
</event>
<event>
12    1  0.1074575E-001  0.2933813E+03  0.7546771E-02  0.1088654E+00
         21   -1    0    0  501  502  0.00000000000E+00  0.00000000000E+00  0.16491256104E+04  0.16491256104E+04  0.00000000000E+00 0.  1.
         21   -1    0    0  502  503 -0.00000000000E+00 -0.00000000000E+00 -0.52115420170E+02  0.52115420170E+02  0.00000000000E+00 0. -1.
         -6    2    1    2    0  503 -0.18429588501E+03 -0.14914123303E+03  0.80270946844E+03  0.85464325439E+03  0.17281354382E+03 0.  0.
        -24    2    3    3    0    0 -0.12020320668E+03 -0.97941233821E+02  0.29641093029E+03  0.34172063735E+03  0.69801563153E+02 0.  0.
          6    2    1    2  501    0  0.18429588501E+03  0.14914123303E+03  0.79430072177E+03  0.84659777617E+03  0.17206416645E+03 0.  0.
         24    2    5    5    0    0  0.33630635492E+02  0.27011760889E+02  0.16558497898E+03  0.18863029930E+03  0.79387339543E+02 0.  0.
          5    1    5    5  501    0  0.15066524952E+03  0.12212947214E+03  0.62871574280E+03  0.65796747687E+03  0.47000000000E+01 0. -1.
        -11    1    6    6    0    0  0.11785988618E+02  0.96611723075E+01  0.15930898911E+03  0.16003625149E+03  0.00000000000E+00 0.  1.
         12    1    6    6    0    0  0.21844646874E+02  0.17350588581E+02  0.62759898621E+01  0.28594047806E+02  0.00000000000E+00 0. -1.
         -5    1    3    3    0  503 -0.64092678327E+02 -0.51199999209E+02  0.50629853815E+03  0.51292261704E+03  0.47000000000E+01 0.  1.
         11    1    4    4    0    0 -0.87235569914E+02 -0.26466837863E+02  0.15150799166E+03  0.17681970960E+03  0.00000000000E+00 0. -1.
        -12    1    4    4    0    0 -0.32967636768E+02 -0.71474395958E+02  0.14490293863E+03  0.16490092775E+03  0.00000000000E+00 0.  1.
<mgrwt>
<rscale>  2 0.29327107E+03</rscale>
<asrwt>0</asrwt>
<pdfrwt beam="1">  1       21 0.25371159E+00 0.29338132E+03</pdfrwt>
<pdfrwt beam="2">  1       21 0.80177582E-02 0.29338132E+03</pdfrwt>
<totfact> 0.69619580E+03</totfact>
</mgrwt>
</event>
<event>
12    1  0.1074575E-001  0.1898564E+03  0.7546771E-02  0.1159577E+00
         21   -1    0    0  503  502  0.00000000000E+00  0.00000000000E+00  0.10684327057E+04  0.10684327057E+04  0.00000000000E+00 0. -1.
         21   -1    0    0  501  503 -0.00000000000E+00 -0.00000000000E+00 -0.83324173965E+02  0.83324173965E+02  0.00000000000E+00 0. -1.
          6    2    1    2  501    0 -0.15767848292E+02  0.75360858112E+02  0.47150734823E+02  0.19562369200E+03  0.17354409556E+03 0.  0.
         24    2    3    3    0    0  0.42249848592E+01  0.67042924078E+02 -0.35561513210E+02  0.10999479864E+03  0.79508680909E+02 0.  0.
         -6    2    1    2    0  502  0.15767848292E+02 -0.75360858112E+02  0.93795779692E+03  0.95613318767E+03  0.16881338746E+03 0.  0.
        -24    2    5    5    0    0  0.75690591175E+01 -0.25455348209E+02  0.85232027140E+03  0.85656584443E+03  0.80931671164E+02 0.  0.
          5    1    3    3  501    0 -0.19992833151E+02  0.83179340341E+01  0.82712248033E+02  0.85628893364E+02  0.47000000000E+01 0. -1.
        -11    1    4    4    0    0  0.32091298989E+02  0.56190925882E+02 -0.15799285168E+01  0.64728415679E+02  0.00000000000E+00 0.  1.
         12    1    4    4    0    0 -0.27866314129E+02  0.10851998196E+02 -0.33981584693E+02  0.45266382960E+02  0.00000000000E+00 0. -1.
         -5    1    5    5    0  502  0.81987891744E+01 -0.49905509903E+02  0.85637525523E+02  0.99567343242E+02  0.47000000000E+01 0.  1.
         13    1    6    6    0    0  0.82050352973E+01 -0.49911257280E+02  0.73411716575E+03  0.73585764198E+03  0.00000000000E+00 0. -1.
        -14    1    6    6    0    0 -0.63597617982E+00  0.24455909071E+02  0.11820310565E+03  0.12070820245E+03  0.00000000000E+00 0.  1.
<mgrwt>
<rscale>  2 0.18876846E+03</rscale>
<asrwt>0</asrwt>
<pdfrwt beam="1">  1       21 0.16437425E+00 0.18985636E+03</pdfrwt>
<pdfrwt beam="2">  1       21 0.12819104E-01 0.18985636E+03</pdfrwt>
<totfact> 0.12221968E+04</totfact>
</mgrwt>
</event>
<event>
12    1  0.1074575E-001  0.1834588E+03  0.7546771E-02  0.1165326E+00
         21   -1    0    0  503  502  0.00000000000E+00  0.00000000000E+00  0.63561215443E+03  0.63561215443E+03  0.00000000000E+00 0. -1.
         21   -1    0    0  501  503 -0.00000000000E+00 -0.00000000000E+00 -0.52523174885E+02  0.52523174885E+02  0.00000000000E+00 0.  1.
          6    2    1    2  501    0  0.22530304740E+02 -0.53247460349E+02  0.25848112791E+03  0.31696946049E+03  0.17410984675E+03 0.  0.
         24    2    3    3    0    0  0.21372250063E+02 -0.45656912023E+02  0.53898893391E+02  0.11218924125E+03  0.84498570723E+02 0.  0.
         -6    2    1    2    0  502 -0.22530304740E+02  0.53247460349E+02  0.32460785164E+03  0.37116586883E+03  0.17044335766E+03 0.  0.
        -24    2    5    5    0    0  0.23219836917E+02 -0.76254706797E+01  0.24535416071E+03  0.26115756587E+03  0.86065680751E+02 0.  0.
          5    1    3    3  501    0  0.11580546776E+01 -0.75905483260E+01  0.20458223452E+03  0.20478021924E+03  0.47000000000E+01 0. -1.
        -11    1    4    4    0    0 -0.19647425950E+02 -0.52946155129E+02  0.26986706715E+02  0.62590726379E+02  0.00000000000E+00 0.  1.
         12    1    4    4    0    0  0.41019676013E+02  0.72892431057E+01  0.26912186676E+02  0.49598514866E+02  0.00000000000E+00 0. -1.
         -5    1    5    5    0  502 -0.45750141657E+02  0.60872931029E+02  0.79253690930E+02  0.11000830296E+03  0.47000000000E+01 0.  1.
         11    1    6    6    0    0 -0.77363041412E+00 -0.38864530129E+02  0.18533133604E+03  0.18936407876E+03  0.00000000000E+00 0. -1.
        -12    1    6    6    0    0  0.23993467331E+02  0.31239059450E+02  0.60022824671E+02  0.71793487109E+02  0.00000000000E+00 0.  1.
<mgrwt>
<rscale>  2 0.18258361E+03</rscale>
<asrwt>0</asrwt>
<pdfrwt beam="1">  1       21 0.97786480E-01 0.18345884E+03</pdfrwt>
<pdfrwt beam="2">  1       21 0.80804889E-02 0.18345884E+03</pdfrwt>
<totfact> 0.10245210E+05</totfact>
</mgrwt>
</event>
<event>
12    1  0.1074575E-001  0.2584906E+03  0.7546771E-02  0.1108086E+00
         21   -1    0    0  503  502  0.00000000000E+00  0.00000000000E+00  0.34470603161E+03  0.34470603161E+03  0.00000000000E+00 0.  1.
         21   -1    0    0  501  503 -0.00000000000E+00 -0.00000000000E+00 -0.29861047259E+03  0.29861047259E+03  0.00000000000E+00 0. -1.
          6    2    1    2  501    0  0.20876223337E+01  0.18991685954E+03 -0.16762301568E+03  0.30808258394E+03  0.17534147096E+03 0.  0.
         24    2    3    3    0    0 -0.11024014648E+02  0.21490289138E+03 -0.14817648718E+03  0.27349249457E+03  0.80852282687E+02 0.  0.
         -6    2    1    2    0  502 -0.20876223337E+01 -0.18991685954E+03  0.21371857469E+03  0.33523392026E+03  0.17502394242E+03 0.  0.
        -24    2    5    5    0    0  0.29045432396E+02 -0.75454404441E+02  0.17762646851E+03  0.21115470825E+03  0.80611067544E+02 0.  0.
          5    1    3    3  501    0  0.13111636982E+02 -0.24986031842E+02 -0.19446528504E+02  0.34590089367E+02  0.47000000000E+01 0. -1.
        -13    1    4    4    0    0 -0.24999217397E+02  0.14371076567E+02 -0.19789510019E+02  0.34973038457E+02  0.00000000000E+00 0.  1.
         14    1    4    4    0    0  0.13975202749E+02  0.20053181481E+03 -0.12838697716E+03  0.23851945612E+03  0.00000000000E+00 0. -1.
         -5    1    5    5    0  502 -0.31133054730E+02 -0.11446245509E+03  0.36092106185E+02  0.12407921201E+03  0.47000000000E+01 0.  1.
         11    1    6    6    0    0  0.87866012598E+00  0.14907483102E+02  0.50505139248E+02  0.52666632572E+02  0.00000000000E+00 0. -1.
        -12    1    6    6    0    0  0.28166772270E+02 -0.90361887543E+02  0.12712132926E+03  0.15848807568E+03  0.00000000000E+00 0.  1.
<mgrwt>
<rscale>  2 0.25843679E+03</rscale>
<asrwt>0</asrwt>
<pdfrwt beam="1">  1       21 0.53031697E-01 0.25849062E+03</pdfrwt>
<pdfrwt beam="2">  1       21 0.45940073E-01 0.25849062E+03</pdfrwt>
<totfact> 0.14735463E+04</totfact>
</mgrwt>
</event>
<event>
12    1  0.1074575E-001  0.1821557E+03  0.7546771E-02  0.1165794E+00
         21   -1    0    0  503  502  0.00000000000E+00  0.00000000000E+00  0.31109965605E+02  0.31109965605E+02  0.00000000000E+00 0. -1.
         21   -1    0    0  501  503 -0.00000000000E+00 -0.00000000000E+00 -0.18069211631E+04  0.18069211631E+04  0.00000000000E+00 0. -1.
          6    2    1    2  501    0  0.29607387206E+02 -0.47589861708E+02 -0.14763997175E+04  0.14875629908E+04  0.17304951082E+03 0.  0.
         24    2    3    3    0    0 -0.50387183884E+02 -0.23980977457E+02 -0.84548507756E+03  0.85114183793E+03  0.80519912576E+02 0.  0.
         -6    2    1    2    0  502 -0.29607387206E+02  0.47589861708E+02 -0.29941147996E+03  0.35046813796E+03  0.17331846144E+03 0.  0.
        -24    2    5    5    0    0 -0.12726685848E+01 -0.12916366904E+02 -0.59350638830E+02  0.10123901160E+03  0.80983868275E+02 0.  0.
          5    1    3    3  501    0  0.79994571090E+02 -0.23608884251E+02 -0.63091463998E+03  0.63642115283E+03  0.47000000000E+01 0. -1.
        -11    1    4    4    0    0 -0.36157033653E+02  0.24645612685E+02 -0.28088218312E+03  0.28427018504E+03  0.00000000000E+00 0.  1.
         12    1    4    4    0    0 -0.14230150231E+02 -0.48626590142E+02 -0.56460289444E+03  0.56687165289E+03  0.00000000000E+00 0. -1.
         -5    1    5    5    0  502 -0.28334718621E+02  0.60506228612E+02 -0.24006084113E+03  0.24922912636E+03  0.47000000000E+01 0.  1.
         13    1    6    6    0    0 -0.16542557160E+02  0.31053240660E+02 -0.21388745589E+02  0.41175701460E+02  0.00000000000E+00 0. -1.
        -14    1    6    6    0    0  0.15269888575E+02 -0.43969607564E+02 -0.37961893242E+02  0.60063310140E+02  0.00000000000E+00 0.  1.
<mgrwt>
<rscale>  2 0.18209165E+03</rscale>
<asrwt>0</asrwt>
<pdfrwt beam="1">  1       21 0.47861473E-02 0.18215565E+03</pdfrwt>
<pdfrwt beam="2">  1       21 0.27798795E+00 0.18215565E+03</pdfrwt>
<totfact> 0.13380955E+04</totfact>
</mgrwt>
</event>
<event>
12    1  0.1074575E-001  0.1805596E+03  0.7546771E-02  0.1167919E+00
         21   -1    0    0  503  502  0.00000000000E+00  0.00000000000E+00  0.13932240182E+04  0.13932240182E+04  0.00000000000E+00 0.  1.
         21   -1    0    0  501  503 -0.00000000000E+00 -0.00000000000E+00 -0.45472073338E+03  0.45472073338E+03  0.00000000000E+00 0. -1.
          6    2    1    2  501    0  0.35833300554E+02  0.34143105691E+02 -0.43081590918E+03  0.46712322461E+03  0.17364326153E+03 0.  0.
         24    2    3    3    0    0  0.70794055218E+01 -0.35822308416E+02 -0.13048030404E+03  0.15737250006E+03  0.80047724938E+02 0.  0.
         -6    2    1    2    0  502 -0.35833300554E+02 -0.34143105691E+02  0.13693191940E+04  0.13808215270E+04  0.17083107799E+03 0.  0.
        -24    2    5    5    0    0 -0.32461797565E+02 -0.88118752500E+02  0.10879183186E+04  0.10942324830E+04  0.70425676773E+02 0.  0.
          5    1    3    3  501    0  0.28753895033E+02  0.69965414106E+02 -0.30033560513E+03  0.30975072455E+03  0.47000000000E+01 0. -1.
        -13    1    4    4    0    0 -0.92401575492E+00 -0.52149997253E+02 -0.12897999786E+03  0.13912697750E+03  0.00000000000E+00 0.  1.
         14    1    4    4    0    0  0.80034212768E+01  0.16327688837E+02 -0.15003061823E+01  0.18245522561E+02  0.00000000000E+00 0. -1.
         -5    1    5    5    0  502 -0.33715029890E+01  0.53975646809E+02  0.28140087538E+03  0.28658904401E+03  0.47000000000E+01 0.  1.
         11    1    6    6    0    0  0.21957286726E+02 -0.34785460505E+02  0.36637364663E+03  0.36867573780E+03  0.00000000000E+00 0. -1.
        -12    1    6    6    0    0 -0.54419084291E+02 -0.53333291995E+02  0.72154467201E+03  0.72555674518E+03  0.00000000000E+00 0.  1.
<mgrwt>
<rscale>  2 0.17988005E+03</rscale>
<asrwt>0</asrwt>
<pdfrwt beam="1">  1       21 0.21434215E+00 0.18055957E+03</pdfrwt>
<pdfrwt beam="2">  1       21 0.69957037E-01 0.18055957E+03</pdfrwt>
<totfact> 0.20577450E+02</totfact>
</mgrwt>
</event>
<event>
12    1  0.1074575E-001  0.1776109E+03  0.7546771E-02  0.1170337E+00
         21   -1    0    0  501  502  0.00000000000E+00  0.00000000000E+00  0.56284672756E+02  0.56284672756E+02  0.00000000000E+00 0.  1.
         21   -1    0    0  502  503 -0.00000000000E+00 -0.00000000000E+00 -0.58550581780E+03  0.58550581780E+03  0.00000000000E+00 0.  1.
         -6    2    1    2    0  503  0.27307120386E+02 -0.16000979200E+02 -0.19550829077E+03  0.26413846614E+03  0.17476821043E+03 0.  0.
        -24    2    3    3    0    0 -0.64257615685E+01  0.40767668736E+02 -0.45615352061E+02  0.10027703143E+03  0.79192357346E+02 0.  0.
          6    2    1    2  501    0 -0.27307120386E+02  0.16000979200E+02 -0.33371285428E+03  0.37765202442E+03  0.17393985247E+03 0.  0.
         24    2    5    5    0    0 -0.24213345222E+02  0.64910104966E+02 -0.29866000689E+03  0.31721638809E+03  0.81417623062E+02 0.  0.
          5    1    5    5  501    0 -0.30937751639E+01 -0.48909125766E+02 -0.35052847389E+02  0.60435636325E+02  0.47000000000E+01 0. -1.
        -13    1    6    6    0    0 -0.16579096658E+02  0.43190682423E+01 -0.20301885924E+03  0.20374046727E+03  0.00000000000E+00 0.  1.
         14    1    6    6    0    0 -0.76342485640E+01  0.60591036723E+02 -0.95641147647E+02  0.11347592082E+03  0.00000000000E+00 0. -1.
         -5    1    3    3    0  503  0.33732881954E+02 -0.56768647936E+02 -0.14989293871E+03  0.16386143472E+03  0.47000000000E+01 0.  1.
         13    1    4    4    0    0 -0.40233622535E+02  0.37796891494E+02 -0.31145991609E+02  0.63383137996E+02  0.00000000000E+00 0. -1.
        -14    1    4    4    0    0  0.33807860967E+02  0.29707772418E+01 -0.14469360453E+02  0.36893893431E+02  0.00000000000E+00 0.  1.
<mgrwt>
<rscale>  2 0.17740681E+03</rscale>
<asrwt>0</asrwt>
<pdfrwt beam="1">  1       21 0.86591801E-02 0.17761092E+03</pdfrwt>
<pdfrwt beam="2">  1       21 0.90077821E-01 0.17761092E+03</pdfrwt>
<totfact> 0.11023093E+05</totfact>
</mgrwt>
</event>
<event>
12    1  0.1074575E-001  0.2754478E+03  0.7546771E-02  0.1098366E+00
         21   -1    0    0  501  502  0.00000000000E+00  0.00000000000E+00  0.59789133607E+03  0.59789133607E+03  0.00000000000E+00 0.  1.
         21   -1    0    0  502  503 -0.00000000000E+00 -0.00000000000E+00 -0.12684356691E+03  0.12684356691E+03  0.00000000000E+00 0.  1.
         -6    2    1    2    0  503  0.18619717762E+03  0.10434189481E+03  0.25746894296E+03  0.37618446389E+03  0.17224364812E+03 0.  0.
        -24    2    3    3    0    0  0.19147907781E+03  0.10767781492E+03  0.27241008200E+03  0.35932165071E+03  0.81523290072E+02 0.  0.
          6    2    1    2  501    0 -0.18619717762E+03 -0.10434189481E+03  0.21357882620E+03  0.34855043909E+03  0.17411166997E+03 0.  0.
         24    2    5    5    0    0 -0.55205837166E+02 -0.78900666070E+02  0.42494563347E+02  0.13152992763E+03  0.78875435885E+02 0.  0.
          5    1    5    5  501    0 -0.13099134046E+03 -0.25441228744E+02  0.17108426285E+03  0.21702051145E+03  0.47000000000E+01 0. -1.
        -11    1    6    6    0    0 -0.66117778377E+02 -0.40322302356E+02  0.47923674904E+02  0.91072099466E+02  0.00000000000E+00 0.  1.
         12    1    6    6    0    0  0.10911941211E+02 -0.38578363714E+02 -0.54291115568E+01  0.40457828169E+02  0.00000000000E+00 0. -1.
         -5    1    3    3    0  503 -0.52819001861E+01 -0.33359201011E+01 -0.14941139049E+02  0.16862813187E+02  0.47000000000E+01 0.  1.
         13    1    4    4    0    0  0.34570952652E+02  0.28217136867E+02  0.14063451725E+02  0.46788227736E+02  0.00000000000E+00 0. -1.
        -14    1    4    4    0    0  0.15690812516E+03  0.79460678048E+02  0.25834663028E+03  0.31253342297E+03  0.00000000000E+00 0.  1.
<mgrwt>
<rscale>  2 0.27515309E+03</rscale>
<asrwt>0</asrwt>
<pdfrwt beam="1">  1       21 0.91983281E-01 0.27544781E+03</pdfrwt>
<pdfrwt beam="2">  1       21 0.19514395E-01 0.27544781E+03</pdfrwt>
<totfact> 0.23127864E+04</totfact>
</mgrwt>
</event>
<event>
12    1  0.1074575E-001  0.1822595E+03  0.7546771E-02  0.1165656E+00
         21   -1    0    0  501  502  0.00000000000E+00  0.00000000000E+00  0.40317381191E+02  0.40317381191E+02  0.00000000000E+00 0. -1.
         21   -1    0    0  502  503 -0.00000000000E+00 -0.00000000000E+00 -0.10972897309E+04  0.10972897309E+04  0.00000000000E+00 0. -1.
         -6    2    1    2    0  503 -0.29674800958E+02  0.51354125261E+02 -0.81270163611E+03  0.83288803892E+03  0.17233889882E+03 0.  0.
        -24    2    3    3    0    0 -0.21297161934E+02  0.62477128961E+02 -0.81137032660E+03  0.81813105983E+03  0.81606760807E+02 0.  0.
          6    2    1    2  501    0  0.29674800958E+02 -0.51354125261E+02 -0.24427071357E+03  0.30471907314E+03  0.17224311898E+03 0.  0.
         24    2    5    5    0    0 -0.13863821781E+02  0.30472185050E+02 -0.13922656581E+03  0.16454946265E+03  0.81066203885E+02 0.  0.
          5    1    5    5  501    0  0.43538622739E+02 -0.81826310312E+02 -0.10504414776E+03  0.14016961050E+03  0.47000000000E+01 0. -1.
        -13    1    6    6    0    0 -0.22574519015E+02 -0.18472559364E+02 -0.89912222435E+02  0.94525404530E+02  0.00000000000E+00 0.  1.
         14    1    6    6    0    0  0.87106972343E+01  0.48944744414E+02 -0.49314343379E+02  0.70024058116E+02  0.00000000000E+00 0. -1.
         -5    1    3    3    0  503 -0.83776390243E+01 -0.11123003700E+02 -0.13313095049E+01  0.14756979093E+02  0.47000000000E+01 0.  1.
         11    1    4    4    0    0  0.11837183937E+02  0.89247298743E+00 -0.44429713054E+03  0.44445568467E+03  0.00000000000E+00 0. -1.
        -12    1    4    4    0    0 -0.33134345871E+02  0.61584655974E+02 -0.36707319606E+03  0.37367537515E+03  0.00000000000E+00 0.  1.
<mgrwt>
<rscale>  2 0.18223688E+03</rscale>
<asrwt>0</asrwt>
<pdfrwt beam="1">  1       21 0.62026740E-02 0.18225953E+03</pdfrwt>
<pdfrwt beam="2">  1       21 0.16881381E+00 0.18225953E+03</pdfrwt>
<totfact> 0.40779405E+04</totfact>
</mgrwt>
</event>
<event>
12    1  0.1074575E-001  0.1803575E+03  0.7546771E-02  0.1168087E+00
         21   -1    0    0  503  502  0.00000000000E+00  0.00000000000E+00  0.59253744760E+03  0.59253744760E+03  0.00000000000E+00 0.  1.
         21   -1    0    0  501  503 -0.00000000000E+00 -0.00000000000E+00 -0.96410734645E+02  0.96410734645E+02  0.00000000000E+00 0.  1.
          6    2    1    2  501    0  0.69133540908E+01  0.38031939951E+02  0.18892874103E+02  0.17877078529E+03  0.17351608012E+03 0.  0.
         24    2    3    3    0    0  0.63265823605E+02 -0.54679396502E+01  0.18025143738E+02  0.10742176076E+03  0.84747071206E+02 0.  0.
         -6    2    1    2    0  502 -0.69133540908E+01 -0.38031939951E+02  0.47723383885E+03  0.51017739695E+03  0.17616644543E+03 0.  0.
        -24    2    5    5    0    0 -0.38932388526E+02 -0.83911719057E+02  0.36013207039E+03  0.38031174763E+03  0.79906256265E+02 0.  0.
          5    1    3    3  501    0 -0.56352469514E+02  0.43499879601E+02  0.86773036501E+00  0.71349024532E+02  0.47000000000E+01 0. -1.
        -13    1    4    4    0    0  0.38888893139E+02  0.31202396097E+02 -0.15350688745E+02  0.52168756711E+02  0.00000000000E+00 0.  1.
         14    1    4    4    0    0  0.24376930466E+02 -0.36670335747E+02  0.33375832483E+02  0.55253004051E+02  0.00000000000E+00 0. -1.
         -5    1    5    5    0  502  0.32019034435E+02  0.45879779107E+02  0.11710176846E+03  0.12986564932E+03  0.47000000000E+01 0.  1.
         13    1    6    6    0    0  0.33304716335E+01 -0.30711910600E+02  0.29307563002E+02  0.42582235065E+02  0.00000000000E+00 0. -1.
        -14    1    6    6    0    0 -0.42262860160E+02 -0.53199808457E+02  0.33082450739E+03  0.33772951257E+03  0.00000000000E+00 0.  1.
<mgrwt>
<rscale>  2 0.17970705E+03</rscale>
<asrwt>0</asrwt>
<pdfrwt beam="1">  1       21 0.91159605E-01 0.18035753E+03</pdfrwt>
<pdfrwt beam="2">  1       21 0.14832421E-01 0.18035753E+03</pdfrwt>
<totfact> 0.41094817E+04</totfact>
</mgrwt>
</event>
<event>
12    1  0.1074575E-001  0.2157005E+03  0.7546771E-02  0.1137177E+00
         21   -1    0    0  501  502  0.00000000000E+00  0.00000000000E+00  0.14224242763E+03  0.14224242763E+03  0.00000000000E+00 0. -1.
         21   -1    0    0  502  503 -0.00000000000E+00 -0.00000000000E+00 -0.43544603273E+03  0.43544603273E+03  0.00000000000E+00 0. -1.
         -6    2    1    2    0  503  0.10732305474E+03 -0.68702648907E+02 -0.29099657614E+03  0.36222329265E+03  0.17403566982E+03 0.  0.
        -24    2    3    3    0    0  0.12765542142E+03 -0.87152764378E+02 -0.28442529806E+03  0.33360365619E+03  0.80635837513E+02 0.  0.
          6    2    1    2  501    0 -0.10732305474E+03  0.68702648907E+02 -0.22070289583E+01  0.21546516771E+03  0.17372989228E+03 0.  0.
         24    2    5    5    0    0 -0.10063189886E+03  0.17000749582E+02 -0.55415138765E+02  0.14082569484E+03  0.79656978156E+02 0.  0.
          5    1    5    5  501    0 -0.66911558844E+01  0.51701899324E+02  0.53208109806E+02  0.74639472868E+02  0.47000000000E+01 0. -1.
        -11    1    6    6    0    0 -0.50044133423E+02  0.47245036105E+02 -0.41144416283E+02  0.80183363099E+02  0.00000000000E+00 0.  1.
         12    1    6    6    0    0 -0.50587765434E+02 -0.30244286523E+02 -0.14270722482E+02  0.60642331741E+02  0.00000000000E+00 0. -1.
         -5    1    3    3    0  503 -0.20332366673E+02  0.18450115471E+02 -0.65712780752E+01  0.28619636458E+02  0.47000000000E+01 0.  1.
         11    1    4    4    0    0 -0.10440734566E+02 -0.15270524314E+02 -0.26068186242E+02  0.31964796027E+02  0.00000000000E+00 0. -1.
        -12    1    4    4    0    0  0.13809615598E+03 -0.71882240063E+02 -0.25835711182E+03  0.30163886017E+03  0.00000000000E+00 0.  1.
<mgrwt>
<rscale>  2 0.21563882E+03</rscale>
<asrwt>0</asrwt>
<pdfrwt beam="1">  1       21 0.21883450E-01 0.21570050E+03</pdfrwt>
<pdfrwt beam="2">  1       21 0.66991699E-01 0.21570050E+03</pdfrwt>
<totfact> 0.39319480E+04</totfact>
</mgrwt>
</event>
<event>
12    1  0.1074575E-001  0.1756641E+03  0.7546771E-02  0.1172644E+00
         21   -1    0    0  503  502  0.00000000000E+00  0.00000000000E+00  0.11925134687E+03  0.11925134687E+03  0.00000000000E+00 0. -1.
         21   -1    0    0  501  503 -0.00000000000E+00 -0.00000000000E+00 -0.27422026538E+03  0.27422026538E+03  0.00000000000E+00 0. -1.
          6    2    1    2  501    0  0.26950837661E+02 -0.57406558341E+01 -0.26413320566E+02  0.17763874105E+03  0.17348935425E+03 0.  0.
         24    2    3    3    0    0  0.45624603208E+02 -0.61784150662E+02 -0.30717305413E+02  0.11822327911E+03  0.84464816226E+02 0.  0.
         -6    2    1    2    0  502 -0.26950837661E+02  0.57406558341E+01 -0.12855559794E+03  0.21583287120E+03  0.17116653806E+03 0.  0.
        -24    2    5    5    0    0 -0.43527407406E+02 -0.51186385202E+02 -0.11435561752E+03  0.15468387195E+03  0.79594043485E+02 0.  0.
          5    1    3    3  501    0 -0.18673765547E+02  0.56043494827E+02  0.43039848468E+01  0.59415461942E+02  0.47000000000E+01 0. -1.
        -11    1    4    4    0    0  0.16887542003E+02  0.19483021713E+02 -0.17143820489E+02  0.30962683845E+02  0.00000000000E+00 0.  1.
         12    1    4    4    0    0  0.28737061205E+02 -0.81267172374E+02 -0.13573484924E+02  0.87260595262E+02  0.00000000000E+00 0. -1.
         -5    1    5    5    0  502  0.16576569745E+02  0.56927041036E+02 -0.14199980420E+02  0.61148999253E+02  0.47000000000E+01 0.  1.
         11    1    6    6    0    0 -0.87452642092E+01  0.20014414754E+02 -0.11024892163E+02  0.24466399229E+02  0.00000000000E+00 0. -1.
        -12    1    6    6    0    0 -0.34782143197E+02 -0.71200799956E+02 -0.10333072536E+03  0.13021747272E+03  0.00000000000E+00 0.  1.
<mgrwt>
<rscale>  2 0.17508780E+03</rscale>
<asrwt>0</asrwt>
<pdfrwt beam="1">  1       21 0.18346361E-01 0.17566405E+03</pdfrwt>
<pdfrwt beam="2">  1       21 0.42187733E-01 0.17566405E+03</pdfrwt>
<totfact> 0.14736143E+05</totfact>
</mgrwt>
</event>
<event>
12    1  0.1074575E-001  0.2200048E+03  0.7546771E-02  0.1133901E+00
         21   -1    0    0  501  502  0.00000000000E+00  0.00000000000E+00  0.44592107847E+03  0.44592107847E+03  0.00000000000E+00 0. -1.
         21   -1    0    0  502  503 -0.00000000000E+00 -0.00000000000E+00 -0.12669775217E+03  0.12669775217E+03  0.00000000000E+00 0.  1.
         -6    2    1    2    0  503  0.89822573284E+01 -0.13612247806E+03  0.26811926991E+03  0.34675660614E+03  0.17245924452E+03 0.  0.
        -24    2    3    3    0    0  0.70355965315E+02 -0.79312925172E+02  0.19579765396E+03  0.23609241380E+03  0.78500984722E+02 0.  0.
          6    2    1    2  501    0 -0.89822573284E+01  0.13612247806E+03  0.51104056387E+02  0.22586222449E+03  0.17260391042E+03 0.  0.
         24    2    5    5    0    0 -0.69422029234E+02  0.58052287332E+02  0.29928282733E+02  0.12477600338E+03  0.80522436036E+02 0.  0.
          5    1    5    5  501    0  0.60439771906E+02  0.78070190732E+02  0.21175773654E+02  0.10108622111E+03  0.47000000000E+01 0. -1.
        -13    1    6    6    0    0 -0.30672517881E+02  0.72859026584E+02  0.13689473794E+02  0.80228690634E+02  0.00000000000E+00 0.  1.
         14    1    6    6    0    0 -0.38749511353E+02 -0.14806739252E+02  0.16238808939E+02  0.44547312749E+02  0.00000000000E+00 0. -1.
         -5    1    3    3    0  503 -0.61373707986E+02 -0.56809552893E+02  0.72321615957E+02  0.11066419234E+03  0.47000000000E+01 0.  1.
         11    1    4    4    0    0  0.31007390741E+02 -0.77956561498E+02  0.16835177856E+03  0.18809839209E+03  0.00000000000E+00 0. -1.
        -12    1    4    4    0    0  0.39348574574E+02 -0.13563636733E+01  0.27445875393E+02  0.47994021706E+02  0.00000000000E+00 0.  1.
<mgrwt>
<rscale>  2 0.21997644E+03</rscale>
<asrwt>0</asrwt>
<pdfrwt beam="1">  1       21 0.68603242E-01 0.22000482E+03</pdfrwt>
<pdfrwt beam="2">  1       21 0.19491962E-01 0.22000482E+03</pdfrwt>
<totfact> 0.46286459E+04</totfact>
</mgrwt>
</event>
<event>
12    1  0.1074575E-001  0.1822658E+03  0.7546771E-02  0.1165655E+00
         21   -1    0    0  503  502  0.00000000000E+00  0.00000000000E+00  0.10587638800E+03  0.10587638800E+03  0.00000000000E+00 0. -1.
         21   -1    0    0  501  503 -0.00000000000E+00 -0.00000000000E+00 -0.35910651331E+03  0.35910651331E+03  0.00000000000E+00 0. -1.
          6    2    1    2  501    0  0.52945114295E+02 -0.15406421668E+02 -0.20936377643E+03  0.27751270154E+03  0.17360750466E+03 0.  0.
         24    2    3    3    0    0  0.68208761742E+02 -0.59346367151E+02 -0.19342604487E+03  0.22811837970E+03  0.80311480192E+02 0.  0.
         -6    2    1    2    0  502 -0.52945114295E+02  0.15406421668E+02 -0.43866348874E+02  0.18747019977E+03  0.17372471408E+03 0.  0.
        -24    2    5    5    0    0 -0.26163450473E+01 -0.38435705692E+02  0.16455848288E+02  0.92113935359E+02  0.82036780842E+02 0.  0.
          5    1    3    3  501    0 -0.15263647447E+02  0.43939945482E+02 -0.15937731567E+02  0.49394321838E+02  0.47000000000E+01 0. -1.
        -11    1    4    4    0    0 -0.21712463025E+01 -0.11785274921E+02  0.44480188993E+01  0.12782483624E+02  0.00000000000E+00 0.  1.
         12    1    4    4    0    0  0.70380008045E+02 -0.47561092230E+02 -0.19787406377E+03  0.21533589607E+03  0.00000000000E+00 0. -1.
         -5    1    5    5    0  502 -0.50328769248E+02  0.53842127361E+02 -0.60322197162E+02  0.95356264415E+02  0.47000000000E+01 0.  1.
         11    1    6    6    0    0 -0.87045812994E+01  0.22141282058E+02  0.20068383197E+02  0.31124686519E+02  0.00000000000E+00 0. -1.
        -12    1    6    6    0    0  0.60882362521E+01 -0.60576987750E+02 -0.36125349083E+01  0.60989248840E+02  0.00000000000E+00 0.  1.
<mgrwt>
<rscale>  2 0.18223786E+03</rscale>
<asrwt>0</asrwt>
<pdfrwt beam="1">  1       21 0.16288675E-01 0.18226579E+03</pdfrwt>
<pdfrwt beam="2">  1       21 0.55247155E-01 0.18226579E+03</pdfrwt>
<totfact> 0.10466663E+05</totfact>
</mgrwt>
</event>
<event>
11    1  0.1074575E-001  0.2064435E+03  0.7546771E-02  0.1144672E+00
         21   -1    0    0  503  502  0.00000000000E+00  0.00000000000E+00  0.11046207724E+04  0.11046207724E+04  0.00000000000E+00 0. -1.
         21   -1    0    0  501  503 -0.00000000000E+00 -0.00000000000E+00 -0.38394806551E+02  0.38394806551E+02  0.00000000000E+00 0.  1.
          6    2    1    2  501    0  0.11214183639E+03  0.68223528777E+01  0.51421548906E+03  0.55410873654E+03  0.17319522728E+03 0.  0.
         -6    2    1    2    0  502 -0.11214183639E+03 -0.68223528777E+01  0.55201047676E+03  0.58890684239E+03  0.17167808999E+03 0.  0.
        -24    2    4    4    0    0 -0.12111019973E+03  0.35261644063E+02  0.50196635622E+03  0.52274039817E+03  0.73322827812E+02 0.  0.
          5    1    3    3  501    0  0.12683249759E+03  0.53273672089E+02  0.45924923404E+03  0.47943353611E+03  0.47000000000E+01 0. -1.
        -13    1    3    3    0    0 -0.10000225940E+02 -0.16035995030E+02  0.27859211213E+02  0.33664421945E+02  0.00000000000E+00 0.  1.
         14    1    3    3    0    0 -0.46904352585E+01 -0.30415324181E+02  0.27107043811E+02  0.41010778487E+02  0.00000000000E+00 0. -1.
         -5    1    4    4    0  502  0.89683633333E+01 -0.42083996941E+02  0.50044120539E+02  0.66166444214E+02  0.47000000000E+01 0.  1.
         13    1    5    5    0    0 -0.50564728390E+02  0.52446937364E+02  0.23110080304E+03  0.24231189439E+03  0.00000000000E+00 0. -1.
        -14    1    5    5    0    0 -0.70545471337E+02 -0.17185293301E+02  0.27086555318E+03  0.28042850378E+03  0.00000000000E+00 0.  1.
<mgrwt>
<rscale>  2 0.20612499E+03</rscale>
<asrwt>0</asrwt>
<pdfrwt beam="1">  1       21 0.16994163E+00 0.20644351E+03</pdfrwt>
<pdfrwt beam="2">  1       21 0.59068942E-02 0.20644351E+03</pdfrwt>
<totfact> 0.42891460E+04</totfact>
</mgrwt>
</event>
<event>
12    1  0.1074575E-001  0.2096103E+03  0.7546771E-02  0.1142003E+00
         21   -1    0    0  503  502  0.00000000000E+00  0.00000000000E+00  0.94159469580E+03  0.94159469580E+03  0.00000000000E+00 0. -1.
         21   -1    0    0  501  503 -0.00000000000E+00 -0.00000000000E+00 -0.48499491771E+02  0.48499491771E+02  0.00000000000E+00 0.  1.
          6    2    1    2  501    0 -0.99544646487E+02 -0.62682802003E+02  0.34583170681E+03  0.40406190867E+03  0.17270838514E+03 0.  0.
         24    2    3    3    0    0 -0.96267768070E+02 -0.35274289906E+02  0.35186391546E+03  0.37541854978E+03  0.81357936427E+02 0.  0.
         -6    2    1    2    0  502  0.99544646487E+02  0.62682802003E+02  0.54726349722E+03  0.58603227889E+03  0.17348840366E+03 0.  0.
        -24    2    5    5    0    0  0.89937682528E+02  0.10859176493E+03  0.41867850841E+03  0.44907930893E+03  0.80619936478E+02 0.  0.
          5    1    3    3  501    0 -0.32768784169E+01 -0.27408512097E+02 -0.60322086516E+01  0.28643358894E+02  0.47000000000E+01 0. -1.
        -13    1    4    4    0    0 -0.47598639579E+02 -0.23923442427E+01  0.54894591480E+02  0.72696423395E+02  0.00000000000E+00 0.  1.
         14    1    4    4    0    0 -0.48669128491E+02 -0.32881945663E+02  0.29696932398E+03  0.30272212639E+03  0.00000000000E+00 0. -1.
         -5    1    5    5    0  502  0.96069639589E+01 -0.45908962930E+02  0.12858498881E+03  0.13695296996E+03  0.47000000000E+01 0.  1.
         11    1    6    6    0    0 -0.14140082927E+02  0.12209886489E+02  0.30184068166E+02  0.35497904788E+02  0.00000000000E+00 0. -1.
        -12    1    6    6    0    0  0.10407776546E+03  0.96381878444E+02  0.38849444024E+03  0.41358140415E+03  0.00000000000E+00 0.  1.
<mgrwt>
<rscale>  2 0.20944887E+03</rscale>
<asrwt>0</asrwt>
<pdfrwt beam="1">  1       21 0.14486071E+00 0.20961034E+03</pdfrwt>
<pdfrwt beam="2">  1       21 0.74614610E-02 0.20961034E+03</pdfrwt>
<totfact> 0.43929942E+04</totfact>
</mgrwt>
</event>
<event>
12    1  0.1074575E-001  0.2051351E+03  0.7546771E-02  0.1145671E+00
         21   -1    0    0  503  502  0.00000000000E+00  0.00000000000E+00  0.43277294854E+03  0.43277294854E+03  0.00000000000E+00 0. -1.
         21   -1    0    0  501  503 -0.00000000000E+00 -0.00000000000E+00 -0.11312249716E+03  0.11312249716E+03  0.00000000000E+00 0.  1.
          6    2    1    2  501    0  0.10685019273E+03 -0.95479707697E+01  0.55786459576E+02  0.21167301488E+03  0.17373890964E+03 0.  0.
         24    2    3    3    0    0  0.52591950348E+02  0.48272005848E+02  0.74781867086E+02  0.13000281181E+03  0.78818168233E+02 0.  0.
         -6    2    1    2    0  502 -0.10685019273E+03  0.95479707697E+01  0.26386399180E+03  0.33422243082E+03  0.17484936277E+03 0.  0.
        -24    2    5    5    0    0 -0.11178968653E+03 -0.11652836468E+02  0.27626400812E+03  0.30873276171E+03  0.79758343498E+02 0.  0.
          5    1    3    3  501    0  0.54258242381E+02 -0.57819976618E+02 -0.18995407510E+02  0.81670203066E+02  0.47000000000E+01 0. -1.
        -11    1    4    4    0    0 -0.89460432850E+01  0.40981146958E+02  0.16952249493E+02  0.45242290606E+02  0.00000000000E+00 0.  1.
         12    1    4    4    0    0  0.61537993633E+02  0.72908588905E+01  0.57829617593E+02  0.84760521204E+02  0.00000000000E+00 0. -1.
         -5    1    5    5    0  502  0.49394938035E+01  0.21200807238E+02 -0.12400016320E+02  0.25489669109E+02  0.47000000000E+01 0.  1.
         11    1    6    6    0    0 -0.46459625106E+02 -0.19223840862E+02  0.20780543493E+03  0.21380166419E+03  0.00000000000E+00 0. -1.
        -12    1    6    6    0    0 -0.65330061427E+02  0.75710043943E+01  0.68458573188E+02  0.94931097521E+02  0.00000000000E+00 0.  1.
<mgrwt>
<rscale>  2 0.20489831E+03</rscale>
<asrwt>0</asrwt>
<pdfrwt beam="1">  1       21 0.66580453E-01 0.20513514E+03</pdfrwt>
<pdfrwt beam="2">  1       21 0.17403461E-01 0.20513514E+03</pdfrwt>
<totfact> 0.61434987E+04</totfact>
</mgrwt>
</event>
<event>
12    1  0.1074575E-001  0.2139516E+03  0.7546771E-02  0.1138790E+00
         21   -1    0    0  503  502  0.00000000000E+00  0.00000000000E+00  0.18009528405E+04  0.18009528405E+04  0.00000000000E+00 0. -1.
         21   -1    0    0  501  503 -0.00000000000E+00 -0.00000000000E+00 -0.25430281642E+02  0.25430281642E+02  0.00000000000E+00 0. -1.
          6    2    1    2  501    0 -0.88061825313E+02 -0.89874808315E+02  0.80223878635E+03  0.82986086500E+03  0.17102519898E+03 0.  0.
         24    2    3    3    0    0 -0.50120636955E+02 -0.34742818255E+02  0.69891733850E+03  0.70666800121E+03  0.84705821617E+02 0.  0.
         -6    2    1    2    0  502  0.88061825313E+02  0.89874808315E+02  0.97328377254E+03  0.99652225718E+03  0.17304028695E+03 0.  0.
        -24    2    5    5    0    0  0.58697146281E+02  0.11532499134E+03  0.53318824994E+03  0.55468953408E+03  0.81520308689E+02 0.  0.
          5    1    3    3  501    0 -0.37941188357E+02 -0.55131990060E+02  0.10332144785E+03  0.12319286379E+03  0.47000000000E+01 0. -1.
        -13    1    4    4    0    0  0.11193784609E+02  0.19475274569E+02  0.14053675792E+03  0.14232065015E+03  0.00000000000E+00 0.  1.
         14    1    4    4    0    0 -0.61314421564E+02 -0.54218092824E+02  0.55838058058E+03  0.56434735106E+03  0.00000000000E+00 0. -1.
         -5    1    5    5    0  502  0.29364679031E+02 -0.25450183020E+02  0.44009552260E+03  0.44183272310E+03  0.47000000000E+01 0.  1.
         13    1    6    6    0    0 -0.97537659033E+00  0.83828948590E+02  0.33497530074E+03  0.34530666962E+03  0.00000000000E+00 0. -1.
        -14    1    6    6    0    0  0.59672522872E+02  0.31496042745E+02  0.19821294921E+03  0.20938286446E+03  0.00000000000E+00 0.  1.
<mgrwt>
<rscale>  2 0.21354387E+03</rscale>
<asrwt>0</asrwt>
<pdfrwt beam="1">  1       21 0.27706957E+00 0.21395165E+03</pdfrwt>
<pdfrwt beam="2">  1       21 0.39123524E-02 0.21395165E+03</pdfrwt>
<totfact> 0.18452533E+04</totfact>
</mgrwt>
</event>
<event>
12    1  0.1074575E-001  0.2062751E+03  0.7546771E-02  0.1144811E+00
         21   -1    0    0  503  502  0.00000000000E+00  0.00000000000E+00  0.19237436573E+03  0.19237436573E+03  0.00000000000E+00 0. -1.
         21   -1    0    0  501  503 -0.00000000000E+00 -0.00000000000E+00 -0.28698845332E+03  0.28698845332E+03  0.00000000000E+00 0. -1.
          6    2    1    2  501    0 -0.62878726341E+02 -0.89491782534E+02 -0.16338330885E+03  0.26314162483E+03  0.17489109679E+03 0.  0.
         24    2    3    3    0    0 -0.78781314298E+01 -0.10980017698E+02 -0.74874322645E+01  0.80071209425E+02  0.78566603550E+02 0.  0.
         -6    2    1    2    0  502  0.62878726341E+02  0.89491782534E+02  0.68769221262E+02  0.21622119422E+03  0.17337786961E+03 0.  0.
        -24    2    5    5    0    0  0.10416091221E+03  0.81144538904E+02  0.37639049875E+02  0.16363723358E+03  0.89030973886E+02 0.  0.
          5    1    3    3  501    0 -0.55000594911E+02 -0.78511764836E+02 -0.15589587659E+03  0.18307041540E+03  0.47000000000E+01 0. -1.
        -13    1    4    4    0    0  0.18359195458E+02 -0.25248568279E+01  0.28954719061E+02  0.34377473959E+02  0.00000000000E+00 0.  1.
         14    1    4    4    0    0 -0.26237326888E+02 -0.84551608701E+01 -0.36442151326E+02  0.45693735466E+02  0.00000000000E+00 0. -1.
         -5    1    5    5    0  502 -0.41282185870E+02  0.83472436305E+01  0.31130171387E+02  0.52583960644E+02  0.47000000000E+01 0.  1.
         11    1    6    6    0    0  0.78610539885E+02  0.68906235270E+02  0.65938230551E+02  0.12359424132E+03  0.00000000000E+00 0. -1.
        -12    1    6    6    0    0  0.25550372326E+02  0.12238303634E+02 -0.28299180675E+02  0.40042992255E+02  0.00000000000E+00 0.  1.
<mgrwt>
<rscale>  2 0.20595398E+03</rscale>
<asrwt>0</asrwt>
<pdfrwt beam="1">  1       21 0.29596056E-01 0.20627508E+03</pdfrwt>
<pdfrwt beam="2">  1       21 0.44152070E-01 0.20627508E+03</pdfrwt>
<totfact> 0.53559931E+04</totfact>
</mgrwt>
</event>
<event>
12    1  0.1074575E-001  0.1889699E+03  0.7546771E-02  0.1159600E+00
         21   -1    0    0  501  502  0.00000000000E+00  0.00000000000E+00  0.30518701521E+03  0.30518701521E+03  0.00000000000E+00 0.  1.
         21   -1    0    0  502  503 -0.00000000000E+00 -0.00000000000E+00 -0.39976884143E+03  0.39976884143E+03  0.00000000000E+00 0.  1.
         -6    2    1    2    0  503  0.71919264567E+02 -0.68354555097E+01 -0.34399135062E+03  0.39204252571E+03  0.17363233742E+03 0.  0.
        -24    2    3    3    0    0  0.11210940572E+03 -0.18265640506E+02 -0.21344078115E+03  0.25488773081E+03  0.80676116579E+02 0.  0.
          6    2    1    2  501    0 -0.71919264567E+02  0.68354555097E+01  0.24940952440E+03  0.31291333093E+03  0.17461539949E+03 0.  0.
         24    2    5    5    0    0 -0.99539418301E+02 -0.82714731477E+01  0.10863826635E+03  0.16858824897E+03  0.81505899867E+02 0.  0.
          5    1    5    5  501    0  0.27620153735E+02  0.15106928657E+02  0.14077125806E+03  0.14432508195E+03  0.47000000000E+01 0. -1.
        -13    1    6    6    0    0 -0.17496752457E+02 -0.34920076020E+02  0.53385256368E+02  0.66147816693E+02  0.00000000000E+00 0.  1.
         14    1    6    6    0    0 -0.82042665844E+02  0.26648602873E+02  0.55253009978E+02  0.10244043228E+03  0.00000000000E+00 0. -1.
         -5    1    3    3    0  503 -0.40190141157E+02  0.11430184996E+02 -0.13055056947E+03  0.13715479490E+03  0.47000000000E+01 0.  1.
         13    1    4    4    0    0  0.35445103671E+02 -0.45620366563E+02 -0.94517077374E+02  0.11077477662E+03  0.00000000000E+00 0. -1.
        -14    1    4    4    0    0  0.76664302052E+02  0.27354726057E+02 -0.11892370377E+03  0.14411295419E+03  0.00000000000E+00 0.  1.
<mgrwt>
<rscale>  2 0.18874254E+03</rscale>
<asrwt>0</asrwt>
<pdfrwt beam="1">  1       21 0.46951848E-01 0.18896995E+03</pdfrwt>
<pdfrwt beam="2">  1       21 0.61502899E-01 0.18896995E+03</pdfrwt>
<totfact> 0.10694079E+04</totfact>
</mgrwt>
</event>
<event>
12    1  0.1074575E-001  0.2642014E+03  0.7546771E-02  0.1105376E+00
         21   -1    0    0  503  502  0.00000000000E+00  0.00000000000E+00  0.11988439609E+04  0.11988439609E+04  0.00000000000E+00 0.  1.
         21   -1    0    0  501  503 -0.00000000000E+00 -0.00000000000E+00 -0.66994280595E+02  0.66994280595E+02  0.00000000000E+00 0.  1.
          6    2    1    2  501    0  0.36199065800E+02  0.18950894123E+03  0.32779663491E+03  0.42101425521E+03  0.18049475910E+03 0.  0.
         24    2    3    3    0    0  0.63684085979E+02  0.41051904420E+02  0.16752556236E+03  0.20077841614E+03  0.80661246474E+02 0.  0.
         -6    2    1    2    0  502 -0.36199065800E+02 -0.18950894123E+03  0.80405304537E+03  0.84482398626E+03  0.17321159551E+03 0.  0.
        -24    2    5    5    0    0 -0.51560312940E+02 -0.14787861548E+03  0.76573435209E+03  0.78600677628E+03  0.83252649172E+02 0.  0.
          5    1    3    3  501    0 -0.27485020179E+02  0.14845703681E+03  0.16027107255E+03  0.22023583906E+03  0.47000000000E+01 0. -1.
        -11    1    4    4    0    0  0.49266137292E+02  0.12174980121E+02  0.28806765878E+02  0.58354195950E+02  0.00000000000E+00 0.  1.
         12    1    4    4    0    0  0.14417948687E+02  0.28876924299E+02  0.13871879648E+03  0.14242422019E+03  0.00000000000E+00 0. -1.
         -5    1    5    5    0  502  0.15361247140E+02 -0.41630325748E+02  0.38318693285E+02  0.58817209987E+02  0.47000000000E+01 0.  1.
         13    1    6    6    0    0  0.67902012580E+01  0.81100124644E+01  0.56382584962E+02  0.57366148749E+02  0.00000000000E+00 0. -1.
        -14    1    6    6    0    0 -0.58350514198E+02 -0.15598862794E+03  0.70935176713E+03  0.72864062753E+03  0.00000000000E+00 0.  1.
<mgrwt>
<rscale>  2 0.26296242E+03</rscale>
<asrwt>0</asrwt>
<pdfrwt beam="1">  1       21 0.18443752E+00 0.26420138E+03</pdfrwt>
<pdfrwt beam="2">  1       21 0.10306813E-01 0.26420138E+03</pdfrwt>
<totfact> 0.12436228E+04</totfact>
</mgrwt>
</event>
<event>
12    1  0.1074575E-001  0.2608246E+03  0.7546771E-02  0.1106754E+00
         21   -1    0    0  501  502  0.00000000000E+00  0.00000000000E+00  0.19751507120E+03  0.19751507120E+03  0.00000000000E+00 0. -1.
         21   -1    0    0  502  503 -0.00000000000E+00 -0.00000000000E+00 -0.34395373285E+03  0.34395373285E+03  0.00000000000E+00 0.  1.
         -6    2    1    2    0  503  0.19411269041E+03  0.23992667596E+01 -0.82977602251E+02  0.27303488537E+03  0.17313946140E+03 0.  0.
        -24    2    3    3    0    0  0.18222438301E+03  0.29913467704E+02 -0.19185529049E+02  0.20239579060E+03  0.80594231889E+02 0.  0.
          6    2    1    2  501    0 -0.19411269041E+03 -0.23992667596E+01 -0.63461059400E+02  0.26843391868E+03  0.17419520537E+03 0.  0.
         24    2    5    5    0    0 -0.11685330842E+03 -0.69644647501E+02 -0.34317117264E+02  0.16183930014E+03  0.80679749127E+02 0.  0.
          5    1    5    5  501    0 -0.77259381992E+02  0.67245380741E+02 -0.29143942135E+02  0.10659461853E+03  0.47000000000E+01 0. -1.
        -13    1    6    6    0    0 -0.73696718266E+02 -0.78193353675E+02 -0.23828135663E+01  0.10747597240E+03  0.00000000000E+00 0.  1.
         14    1    6    6    0    0 -0.43156590155E+02  0.85487061742E+01 -0.31934303698E+02  0.54363327747E+02  0.00000000000E+00 0. -1.
         -5    1    3    3    0  503  0.11888307402E+02 -0.27514200945E+02 -0.63792073202E+02  0.70639094770E+02  0.47000000000E+01 0.  1.
         11    1    4    4    0    0  0.11371334269E+03  0.14027780935E+02 -0.50745992987E+02  0.12531024997E+03  0.00000000000E+00 0. -1.
        -12    1    4    4    0    0  0.68511040322E+02  0.15885686770E+02  0.31560463938E+02  0.77085540629E+02  0.00000000000E+00 0.  1.
<mgrwt>
<rscale>  2 0.26064843E+03</rscale>
<asrwt>0</asrwt>
<pdfrwt beam="1">  1       21 0.30386935E-01 0.26082458E+03</pdfrwt>
<pdfrwt beam="2">  1       21 0.52915958E-01 0.26082458E+03</pdfrwt>
<totfact> 0.34046762E+04</totfact>
</mgrwt>
</event>
<event>
12    1  0.1074575E-001  0.2167673E+03  0.7546771E-02  0.1136359E+00
         21   -1    0    0  501  502  0.00000000000E+00  0.00000000000E+00  0.35713697158E+03  0.35713697158E+03  0.00000000000E+00 0. -1.
         21   -1    0    0  502  503 -0.00000000000E+00 -0.00000000000E+00 -0.24762159831E+03  0.24762159831E+03  0.00000000000E+00 0.  1.
         -6    2    1    2    0  503 -0.11079100719E+03  0.71223706253E+02 -0.15238616886E+03  0.26478730753E+03  0.17188167488E+03 0.  0.
        -24    2    3    3    0    0 -0.87764817697E+02  0.54220098416E+02 -0.18192246227E+03  0.22338911058E+03  0.78513885069E+02 0.  0.
          6    2    1    2  501    0  0.11079100719E+03 -0.71223706253E+02  0.26190154213E+03  0.33997126236E+03  0.17216439195E+03 0.  0.
         24    2    5    5    0    0 -0.65607796211E+01 -0.34109155254E+02  0.80919466773E+02  0.12105225139E+03  0.83061478216E+02 0.  0.
          5    1    5    5  501    0  0.11735178681E+03 -0.37114551000E+02  0.18098207536E+03  0.21891901097E+03  0.47000000000E+01 0. -1.
        -11    1    6    6    0    0 -0.31072208084E+02 -0.39828462029E+02  0.81488741150E+02  0.95875979458E+02  0.00000000000E+00 0.  1.
         12    1    6    6    0    0  0.24511428463E+02  0.57193067757E+01 -0.56927437662E+00  0.25176271936E+02  0.00000000000E+00 0. -1.
         -5    1    3    3    0  503 -0.23026189492E+02  0.17003607838E+02  0.29536293410E+02  0.41398196947E+02  0.47000000000E+01 0.  1.
         11    1    4    4    0    0 -0.12324936358E+02 -0.83070068259E+01 -0.82389489854E+02  0.83719403110E+02  0.00000000000E+00 0. -1.
        -12    1    4    4    0    0 -0.75439881338E+02  0.62527105241E+02 -0.99532972419E+02  0.13966970747E+03  0.00000000000E+00 0.  1.
<mgrwt>
<rscale>  2 0.21671111E+03</rscale>
<asrwt>0</asrwt>
<pdfrwt beam="1">  1       21 0.54944150E-01 0.21676725E+03</pdfrwt>
<pdfrwt beam="2">  1       21 0.38095630E-01 0.21676725E+03</pdfrwt>
<totfact> 0.20481159E+04</totfact>
</mgrwt>
</event>
<event>
12    1  0.1074575E-001  0.1825758E+03  0.7546771E-02  0.1165468E+00
         21   -1    0    0  503  502  0.00000000000E+00  0.00000000000E+00  0.23223560208E+03  0.23223560208E+03  0.00000000000E+00 0. -1.
         21   -1    0    0  501  503 -0.00000000000E+00 -0.00000000000E+00 -0.28570170712E+03  0.28570170712E+03  0.00000000000E+00 0. -1.
          6    2    1    2  501    0  0.46561058510E+01 -0.56145918459E+02 -0.20967815741E+03  0.27765388875E+03  0.17306850887E+03 0.  0.
         24    2    3    3    0    0  0.43107473800E+02  0.16454492049E+02 -0.87113855679E+02  0.13002792436E+03  0.84790522213E+02 0.  0.
         -6    2    1    2    0  502 -0.46561058510E+01  0.56145918459E+02  0.15621205237E+03  0.24028342044E+03  0.17366598213E+03 0.  0.
        -24    2    5    5    0    0  0.63384203717E+02  0.47595229290E+02  0.10563134277E+03  0.15494236235E+03  0.81032659738E+02 0.  0.
          5    1    3    3  501    0 -0.38451367949E+02 -0.72600410507E+02 -0.12256430173E+03  0.14762596439E+03  0.47000000000E+01 0. -1.
        -11    1    4    4    0    0 -0.12986929020E+02 -0.23722751692E+02 -0.30606350737E+02  0.40843334568E+02  0.00000000000E+00 0.  1.
         12    1    4    4    0    0  0.56094402820E+02  0.40177243740E+02 -0.56507504942E+02  0.89184589796E+02  0.00000000000E+00 0. -1.
         -5    1    5    5    0  502 -0.68040309568E+02  0.85506891690E+01  0.50580709598E+02  0.85341058083E+02  0.47000000000E+01 0.  1.
         11    1    6    6    0    0  0.57161099175E+02 -0.71652670589E+01  0.45799951691E+02  0.73595977375E+02  0.00000000000E+00 0. -1.
        -12    1    6    6    0    0  0.62231045415E+01  0.54760496349E+02  0.59831391081E+02  0.81346384979E+02  0.00000000000E+00 0.  1.
<mgrwt>
<rscale>  2 0.18243356E+03</rscale>
<asrwt>0</asrwt>
<pdfrwt beam="1">  1       21 0.35728554E-01 0.18257578E+03</pdfrwt>
<pdfrwt beam="2">  1       21 0.43954109E-01 0.18257578E+03</pdfrwt>
<totfact> 0.37754439E+04</totfact>
</mgrwt>
</event>
<event>
12    1  0.1074575E-001  0.4545495E+03  0.7546771E-02  0.1026536E+00
         21   -1    0    0  501  502  0.00000000000E+00  0.00000000000E+00  0.19574770245E+03  0.19574770245E+03  0.00000000000E+00 0. -1.
         21   -1    0    0  502  503 -0.00000000000E+00 -0.00000000000E+00 -0.14165162738E+04  0.14165162738E+04  0.00000000000E+00 0.  1.
         -6    2    1    2    0  503 -0.39575314483E+03  0.14248435835E+03 -0.19946926868E+03  0.49437868451E+03  0.16643302114E+03 0.  0.
        -24    2    3    3    0    0 -0.39114562917E+03  0.15686127335E+03 -0.17096871218E+03  0.46178579254E+03  0.80096537727E+02 0.  0.
          6    2    1    2  501    0  0.39575314483E+03 -0.14248435835E+03 -0.10212993026E+04  0.11178852917E+04  0.17231632499E+03 0.  0.
         24    2    5    5    0    0  0.23257807862E+03 -0.13270667383E+02 -0.57094885864E+03  0.62174025992E+03  0.79433483887E+02 0.  0.
          5    1    5    5  501    0  0.16317506622E+03 -0.12921369097E+03 -0.45035044399E+03  0.49614503179E+03  0.47000000000E+01 0. -1.
        -11    1    6    6    0    0  0.18402232272E+03 -0.34147956673E+02 -0.49506987054E+03  0.52926786689E+03  0.00000000000E+00 0.  1.
         12    1    6    6    0    0  0.48555755893E+02  0.20877289290E+02 -0.75878988101E+02  0.92472393036E+02  0.00000000000E+00 0. -1.
         -5    1    3    3    0  503 -0.46075156614E+01 -0.14376914999E+02 -0.28500556504E+02  0.32592891963E+02  0.47000000000E+01 0.  1.
         11    1    4    4    0    0 -0.32365490076E+03  0.16018062355E+03 -0.13792148207E+03  0.38656521075E+03  0.00000000000E+00 0. -1.
        -12    1    4    4    0    0 -0.67490728411E+02 -0.33193502041E+01 -0.33047230112E+02  0.75220581793E+02  0.00000000000E+00 0.  1.
<mgrwt>
<rscale>  2 0.45399913E+03</rscale>
<asrwt>0</asrwt>
<pdfrwt beam="1">  1       21 0.30115031E-01 0.45454951E+03</pdfrwt>
<pdfrwt beam="2">  1       21 0.21792558E+00 0.45454951E+03</pdfrwt>
<totfact> 0.90587129E+02</totfact>
</mgrwt>
</event>
<event>
11    1  0.1074575E-001  0.1807415E+03  0.7546771E-02  0.1168367E+00
         21   -1    0    0  503  502  0.00000000000E+00  0.00000000000E+00  0.12578017974E+02  0.12578017974E+02  0.00000000000E+00 0.  1.
         21   -1    0    0  501  503 -0.00000000000E+00 -0.00000000000E+00 -0.26755959694E+04  0.26755959694E+04  0.00000000000E+00 0.  1.
          6    2    1    2  501    0  0.30802066708E+02  0.39389712478E+02 -0.10284798563E+04  0.10442405376E+04  0.17368698529E+03 0.  0.
         24    2    3    3    0    0 -0.34059180060E+01  0.88965812585E+02 -0.69032320568E+03  0.70072927685E+03  0.80925120080E+02 0.  0.
         -6    2    1    2    0  502 -0.30802066708E+02 -0.39389712478E+02 -0.16345380951E+04  0.16439334498E+04  0.16823223827E+03 0.  0.
          5    1    3    3  501    0  0.34207984714E+02 -0.49576100107E+02 -0.33815665062E+03  0.34351126077E+03  0.47000000000E+01 0. -1.
        -11    1    4    4    0    0 -0.69831456499E+01  0.73078454444E+02 -0.26183162631E+03  0.27192834601E+03  0.00000000000E+00 0.  1.
         12    1    4    4    0    0  0.35772276439E+01  0.15887358141E+02 -0.42849157937E+03  0.42880093085E+03  0.00000000000E+00 0. -1.
         -5    1    5    5    0  502  0.26798670995E+02 -0.33159825668E+02 -0.11470922173E+03  0.12246647849E+03  0.47000000000E+01 0.  1.
         11    1    5    5    0    0 -0.56948270297E+02 -0.25300718265E+01 -0.99931918164E+03  0.10009437215E+04  0.00000000000E+00 0. -1.
        -12    1    5    5    0    0 -0.65246740633E+00 -0.36998149834E+01 -0.52050969179E+03  0.52052324981E+03  0.00000000000E+00 0.  1.
<mgrwt>
<rscale>  2 0.17941819E+03</rscale>
<asrwt>0</asrwt>
<pdfrwt beam="1">  1       21 0.19350784E-02 0.18074149E+03</pdfrwt>
<pdfrwt beam="2">  1       21 0.41163043E+00 0.18074149E+03</pdfrwt>
<totfact> 0.97241062E+03</totfact>
</mgrwt>
</event>
<event>
12    1  0.1074575E-001  0.2126817E+03  0.7546771E-02  0.1140009E+00
         21   -1    0    0  501  502  0.00000000000E+00  0.00000000000E+00  0.14034197381E+03  0.14034197381E+03  0.00000000000E+00 0. -1.
         21   -1    0    0  502  503 -0.00000000000E+00 -0.00000000000E+00 -0.32460805728E+03  0.32460805728E+03  0.00000000000E+00 0.  1.
         -6    2    1    2    0  503  0.20519695013E+02 -0.12376597735E+03 -0.12570688191E+03  0.24705412176E+03  0.17173946514E+03 0.  0.
        -24    2    3    3    0    0  0.30151323678E+02 -0.11283889659E+03 -0.22285587877E+02  0.14250641292E+03  0.78547510415E+02 0.  0.
          6    2    1    2  501    0 -0.20519695013E+02  0.12376597735E+03 -0.58559201563E+02  0.21789590934E+03  0.16825686371E+03 0.  0.
         24    2    5    5    0    0 -0.53763289785E+02  0.10200998378E+03 -0.86189762390E+02  0.16927494944E+03  0.89043838912E+02 0.  0.
          5    1    5    5  501    0  0.33243594772E+02  0.21755993565E+02  0.27630560827E+02  0.48620959894E+02  0.47000000000E+01 0. -1.
        -11    1    6    6    0    0 -0.92905626842E+01  0.87679411728E+02 -0.85096770269E+02  0.12253756202E+03  0.00000000000E+00 0.  1.
         12    1    6    6    0    0 -0.44472727101E+02  0.14330572056E+02 -0.10929921208E+01  0.46737387422E+02  0.00000000000E+00 0. -1.
         -5    1    3    3    0  503 -0.96316286651E+01 -0.10927080761E+02 -0.10342129403E+03  0.10454770884E+03  0.47000000000E+01 0.  1.
         13    1    4    4    0    0  0.38400316992E+02 -0.10322579701E+03 -0.42993772923E+02  0.11823118888E+03  0.00000000000E+00 0. -1.
        -14    1    4    4    0    0 -0.82489933139E+01 -0.96130995792E+01  0.20708185046E+02  0.24275224039E+02  0.00000000000E+00 0.  1.
<mgrwt>
<rscale>  2 0.21197771E+03</rscale>
<asrwt>0</asrwt>
<pdfrwt beam="1">  1       21 0.21591073E-01 0.21268173E+03</pdfrwt>
<pdfrwt beam="2">  1       21 0.49939701E-01 0.21268173E+03</pdfrwt>
<totfact> 0.75731234E+04</totfact>
</mgrwt>
</event>
<event>
12    1  0.1074575E-001  0.1946556E+03  0.7546771E-02  0.1154839E+00
         21   -1    0    0  503  502  0.00000000000E+00  0.00000000000E+00  0.22341362512E+03  0.22341362512E+03  0.00000000000E+00 0. -1.
         21   -1    0    0  501  503 -0.00000000000E+00 -0.00000000000E+00 -0.17265730001E+03  0.17265730001E+03  0.00000000000E+00 0. -1.
          6    2    1    2  501    0  0.51437669292E+02 -0.68735450721E+02  0.59180851908E+02  0.20123310405E+03  0.17211040911E+03 0.  0.
         24    2    3    3    0    0 -0.38189748956E+02 -0.24780457377E+02  0.17229957289E+02  0.92849142595E+02  0.79066831600E+02 0.  0.
         -6    2    1    2    0  502 -0.51437669292E+02  0.68735450721E+02 -0.84245268024E+01  0.19483782108E+03  0.17470090974E+03 0.  0.
        -24    2    5    5    0    0 -0.69872018083E+02  0.14786897055E+02  0.45745520132E+02  0.11605485564E+03  0.79216953178E+02 0.  0.
          5    1    3    3  501    0  0.89627418248E+02 -0.43954993344E+02  0.41950894619E+02  0.10838396146E+03  0.47000000000E+01 0. -1.
        -13    1    4    4    0    0 -0.15403153081E+02 -0.33203895822E+02  0.43644690626E+02  0.56961520717E+02  0.00000000000E+00 0.  1.
         14    1    4    4    0    0 -0.22786595875E+02  0.84234384447E+01 -0.26414733337E+02  0.35887621878E+02  0.00000000000E+00 0. -1.
         -5    1    5    5    0  502  0.18434348791E+02  0.53948553666E+02 -0.54170046935E+02  0.78782965436E+02  0.47000000000E+01 0.  1.
         11    1    6    6    0    0 -0.44196405178E+02  0.47533278570E+02  0.30772783133E+02  0.71831044709E+02  0.00000000000E+00 0. -1.
        -12    1    6    6    0    0 -0.25675612905E+02 -0.32746381515E+02  0.14972736999E+02  0.44223810935E+02  0.00000000000E+00 0.  1.
<mgrwt>
<rscale>  2 0.19407260E+03</rscale>
<asrwt>0</asrwt>
<pdfrwt beam="1">  1       21 0.34371327E-01 0.19465560E+03</pdfrwt>
<pdfrwt beam="2">  1       21 0.26562661E-01 0.19465560E+03</pdfrwt>
<totfact> 0.10993157E+05</totfact>
</mgrwt>
</event>
<event>
12    1  0.1074575E-001  0.1821245E+03  0.7546771E-02  0.1166829E+00
         21   -1    0    0  503  502  0.00000000000E+00  0.00000000000E+00  0.17340554053E+03  0.17340554053E+03  0.00000000000E+00 0. -1.
         21   -1    0    0  501  503 -0.00000000000E+00 -0.00000000000E+00 -0.18851470602E+03  0.18851470602E+03  0.00000000000E+00 0. -1.
          6    2    1    2  501    0  0.47634438403E+02 -0.19181111496E+02 -0.25346742503E+02  0.17950821317E+03  0.17012873502E+03 0.  0.
         24    2    3    3    0    0  0.72136688624E+02  0.32984686519E+02  0.86014197802E+01  0.11245451476E+03  0.79248609303E+02 0.  0.
         -6    2    1    2    0  502 -0.47634438403E+02  0.19181111496E+02  0.10237577011E+02  0.18241203337E+03  0.17473519158E+03 0.  0.
        -24    2    5    5    0    0 -0.44706513210E+02 -0.45951096996E+02  0.39520136158E+02  0.11078567231E+03  0.81249297775E+02 0.  0.
          5    1    3    3  501    0 -0.24502250221E+02 -0.52165798015E+02 -0.33948162283E+02  0.67053698412E+02  0.47000000000E+01 0. -1.
        -11    1    4    4    0    0 -0.10973403730E+02  0.15808531390E+02  0.18891056276E+02  0.26966595287E+02  0.00000000000E+00 0.  1.
         12    1    4    4    0    0  0.83110092353E+02  0.17176155128E+02 -0.10289636496E+02  0.85487919469E+02  0.00000000000E+00 0. -1.
         -5    1    5    5    0  502 -0.29279251925E+01  0.65132208492E+02 -0.29282559147E+02  0.71626361063E+02  0.47000000000E+01 0.  1.
         13    1    6    6    0    0 -0.44713265256E+02 -0.65674510522E+02  0.17749438879E+02  0.81409213254E+02  0.00000000000E+00 0. -1.
        -14    1    6    6    0    0  0.67520461736E-02  0.19723413526E+02  0.21770697279E+02  0.29376459057E+02  0.00000000000E+00 0.  1.
<mgrwt>
<rscale>  2 0.18101064E+03</rscale>
<asrwt>0</asrwt>
<pdfrwt beam="1">  1       21 0.26677775E-01 0.18212452E+03</pdfrwt>
<pdfrwt beam="2">  1       21 0.29002263E-01 0.18212452E+03</pdfrwt>
<totfact> 0.15272409E+05</totfact>
</mgrwt>
</event>
<event>
12    1  0.1074575E-001  0.1997005E+03  0.7546771E-02  0.1150169E+00
         21   -1    0    0  501  502  0.00000000000E+00  0.00000000000E+00  0.41357427159E+02  0.41357427159E+02  0.00000000000E+00 0. -1.
         21   -1    0    0  502  503 -0.00000000000E+00 -0.00000000000E+00 -0.10525753374E+04  0.10525753374E+04  0.00000000000E+00 0. -1.
         -6    2    1    2    0  503  0.82075880494E+02  0.55952196765E+02 -0.34458928654E+03  0.39827384391E+03  0.17324312357E+03 0.  0.
        -24    2    3    3    0    0  0.96666137061E+02  0.88029790291E+02 -0.22096018226E+03  0.26963445252E+03  0.82375662708E+02 0.  0.
          6    2    1    2  501    0 -0.82075880494E+02 -0.55952196765E+02 -0.66662862369E+03  0.69565892064E+03  0.17228033393E+03 0.  0.
         24    2    5    5    0    0 -0.11387443891E+03 -0.70475113862E+02 -0.46688404403E+03  0.49282388781E+03  0.83429876642E+02 0.  0.
          5    1    5    5  501    0  0.31798558417E+02  0.14522917097E+02 -0.19974457966E+03  0.20283503283E+03  0.47000000000E+01 0. -1.
        -13    1    6    6    0    0 -0.15710078462E+02 -0.17506897619E+02 -0.22767294179E+03  0.22888483229E+03  0.00000000000E+00 0.  1.
         14    1    6    6    0    0 -0.98164360448E+02 -0.52968216244E+02 -0.23921110224E+03  0.26393905552E+03  0.00000000000E+00 0. -1.
         -5    1    3    3    0  503 -0.14590256568E+02 -0.32077593526E+02 -0.12362910428E+03  0.12863939139E+03  0.47000000000E+01 0.  1.
         11    1    4    4    0    0  0.55861024388E+02  0.11209521827E+01 -0.58286519712E+02  0.80740503836E+02  0.00000000000E+00 0. -1.
        -12    1    4    4    0    0  0.40805112673E+02  0.86908838108E+02 -0.16267366255E+03  0.18889394868E+03  0.00000000000E+00 0.  1.
<mgrwt>
<rscale>  2 0.19949148E+03</rscale>
<asrwt>0</asrwt>
<pdfrwt beam="1">  1       21 0.63626812E-02 0.19970047E+03</pdfrwt>
<pdfrwt beam="2">  1       21 0.16193466E+00 0.19970047E+03</pdfrwt>
<totfact> 0.43258304E+04</totfact>
</mgrwt>
</event>
<event>
12    1  0.1074575E-001  0.2340334E+03  0.7546771E-02  0.1123894E+00
         21   -1    0    0  503  502  0.00000000000E+00  0.00000000000E+00  0.85947654769E+02  0.85947654769E+02  0.00000000000E+00 0.  1.
         21   -1    0    0  501  503 -0.00000000000E+00 -0.00000000000E+00 -0.63635502973E+03  0.63635502973E+03  0.00000000000E+00 0.  1.
          6    2    1    2  501    0  0.14312062507E+03  0.67346130724E+02 -0.27167001611E+03  0.35834368096E+03  0.17200750388E+03 0.  0.
         24    2    3    3    0    0  0.13621063786E+03  0.86891732864E+02 -0.28151077161E+03  0.33491914350E+03  0.82577279241E+02 0.  0.
         -6    2    1    2    0  502 -0.14312062507E+03 -0.67346130724E+02 -0.27873735886E+03  0.36395900354E+03  0.17248949646E+03 0.  0.
        -24    2    5    5    0    0 -0.11798044190E+02 -0.50265641672E+02 -0.13798882944E+03  0.17064681590E+03  0.86102207566E+02 0.  0.
          5    1    3    3  501    0  0.69099872101E+01 -0.19545602140E+02  0.98407555038E+01  0.23424537459E+02  0.47000000000E+01 0. -1.
        -11    1    4    4    0    0  0.11292566262E+03  0.50119717849E+02 -0.13929170264E+03  0.18618907008E+03  0.00000000000E+00 0.  1.
         12    1    4    4    0    0  0.23284975242E+02  0.36772015015E+02 -0.14221906897E+03  0.14873007342E+03  0.00000000000E+00 0. -1.
         -5    1    5    5    0  502 -0.13132258088E+03 -0.17080489052E+02 -0.14074852942E+03  0.19331218764E+03  0.47000000000E+01 0.  1.
         13    1    6    6    0    0  0.91853453175E+01 -0.38112725704E+02 -0.14087382398E+03  0.14622716817E+03  0.00000000000E+00 0. -1.
        -14    1    6    6    0    0 -0.20983389507E+02 -0.12152915967E+02  0.28849945396E+01  0.24419647729E+02  0.00000000000E+00 0.  1.
<mgrwt>
<rscale>  2 0.23394461E+03</rscale>
<asrwt>0</asrwt>
<pdfrwt beam="1">  1       21 0.13222716E-01 0.23403342E+03</pdfrwt>
<pdfrwt beam="2">  1       21 0.97900775E-01 0.23403342E+03</pdfrwt>
<totfact> 0.41676657E+04</totfact>
</mgrwt>
</event>
<event>
12    1  0.1074575E-001  0.1847244E+03  0.7546771E-02  0.1163703E+00
         21   -1    0    0  501  502  0.00000000000E+00  0.00000000000E+00  0.27632150657E+03  0.27632150657E+03  0.00000000000E+00 0. -1.
         21   -1    0    0  502  503 -0.00000000000E+00 -0.00000000000E+00 -0.25148575912E+03  0.25148575912E+03  0.00000000000E+00 0. -1.
         -6    2    1    2    0  503  0.20760539104E+02 -0.59491893076E+02 -0.17670355132E+03  0.25441891655E+03  0.17185620362E+03 0.  0.
        -24    2    3    3    0    0  0.59227217592E+02 -0.86211872185E+02 -0.10474122023E+03  0.16842874424E+03  0.80356508519E+02 0.  0.
          6    2    1    2  501    0 -0.20760539104E+02  0.59491893076E+02  0.20153929877E+03  0.27338834914E+03  0.17364565981E+03 0.  0.
         24    2    5    5    0    0 -0.58016241097E+02  0.55895978980E+01  0.56323696242E+02  0.11400483063E+03  0.80172406803E+02 0.  0.
          5    1    5    5  501    0  0.37255701993E+02  0.53902295178E+02  0.14521560253E+03  0.15938351851E+03  0.47000000000E+01 0. -1.
        -11    1    6    6    0    0  0.26617359298E+01  0.24904318072E+02 -0.50665852446E+01  0.25553476922E+02  0.00000000000E+00 0.  1.
         12    1    6    6    0    0 -0.60677977027E+02 -0.19314720173E+02  0.61390281486E+02  0.88451353706E+02  0.00000000000E+00 0. -1.
         -5    1    3    3    0  503 -0.38466678488E+02  0.26719979109E+02 -0.71962331088E+02  0.85990172305E+02  0.47000000000E+01 0.  1.
         13    1    4    4    0    0  0.46770878309E+02 -0.31759325323E+02 -0.96672456324E+02  0.11198988175E+03  0.00000000000E+00 0. -1.
        -14    1    4    4    0    0  0.12456339283E+02 -0.54452546862E+02 -0.80687639074E+01  0.56438862490E+02  0.00000000000E+00 0.  1.
<mgrwt>
<rscale>  2 0.18430267E+03</rscale>
<asrwt>0</asrwt>
<pdfrwt beam="1">  1       21 0.42511001E-01 0.18472439E+03</pdfrwt>
<pdfrwt beam="2">  1       21 0.38690117E-01 0.18472439E+03</pdfrwt>
<totfact> 0.34432889E+04</totfact>
</mgrwt>
</event>
<event>
12    1  0.1074575E-001  0.1928265E+03  0.7546771E-02  0.1158218E+00
         21   -1    0    0  503  502  0.00000000000E+00  0.00000000000E+00  0.28166922322E+02  0.28166922322E+02  0.00000000000E+00 0.  1.
         21   -1    0    0  501  503 -0.00000000000E+00 -0.00000000000E+00 -0.18648147162E+04  0.18648147162E+04  0.00000000000E+00 0.  1.
          6    2    1    2  501    0  0.49503078472E+02 -0.29770681668E+02 -0.14770876303E+04  0.14896207297E+04  0.18397065628E+03 0.  0.
         24    2    3    3    0    0  0.89570707640E+02 -0.95235696251E+01 -0.13275195696E+04  0.13333899541E+04  0.86642668159E+02 0.  0.
         -6    2    1    2    0  502 -0.49503078472E+02  0.29770681668E+02 -0.35956016355E+03  0.40336090884E+03  0.17343489643E+03 0.  0.
        -24    2    5    5    0    0 -0.45417113444E+02  0.47727498334E+02 -0.36893565343E+03  0.38216816986E+03  0.74822225231E+02 0.  0.
          5    1    3    3  501    0 -0.40067629168E+02 -0.20247112043E+02 -0.14956806069E+03  0.15623077556E+03  0.47000000000E+01 0. -1.
        -13    1    4    4    0    0  0.19103773277E+02  0.12900465362E+02 -0.83794449549E+03  0.83826150674E+03  0.00000000000E+00 0.  1.
         14    1    4    4    0    0  0.70466934363E+02 -0.22424034987E+02 -0.48957507415E+03  0.49512844739E+03  0.00000000000E+00 0. -1.
         -5    1    5    5    0  502 -0.40859650280E+01 -0.17956816666E+02  0.93754898812E+01  0.21192738981E+02  0.47000000000E+01 0.  1.
         11    1    6    6    0    0 -0.12851730370E+02  0.59151346126E+02 -0.28605818224E+03  0.29239242868E+03  0.00000000000E+00 0. -1.
        -12    1    6    6    0    0 -0.32565383074E+02 -0.11423847793E+02 -0.82877471193E+02  0.89775741181E+02  0.00000000000E+00 0.  1.
<mgrwt>
<rscale>  2 0.19026992E+03</rscale>
<asrwt>0</asrwt>
<pdfrwt beam="1">  1       21 0.43333719E-02 0.19282648E+03</pdfrwt>
<pdfrwt beam="2">  1       21 0.28689462E+00 0.19282648E+03</pdfrwt>
<totfact> 0.13908522E+04</totfact>
</mgrwt>
</event>
<event>
12    1  0.1074575E-001  0.4002322E+03  0.7546771E-02  0.1043866E+00
         21   -1    0    0  501  502  0.00000000000E+00  0.00000000000E+00  0.20209328629E+03  0.20209328629E+03  0.00000000000E+00 0.  1.
         21   -1    0    0  502  503 -0.00000000000E+00 -0.00000000000E+00 -0.13857103228E+04  0.13857103228E+04  0.00000000000E+00 0.  1.
         -6    2    1    2    0  503 -0.35403296858E+03  0.69621985883E+02 -0.11120420978E+04  0.11812217314E+04  0.16870266106E+03 0.  0.
        -24    2    3    3    0    0 -0.13113650060E+03  0.62062154495E+02 -0.60488705804E+03  0.62717452153E+03  0.80068936898E+02 0.  0.
          6    2    1    2  501    0  0.35403296858E+03 -0.69621985883E+02 -0.71574938786E+02  0.40658187770E+03  0.17320302436E+03 0.  0.
         24    2    5    5    0    0  0.22394216363E+03 -0.39029533249E+02  0.24567532430E+02  0.24188524609E+03  0.78939923418E+02 0.  0.
          5    1    5    5  501    0  0.13009080495E+03 -0.30592452634E+02 -0.96142471217E+02  0.16469663161E+03  0.47000000000E+01 0. -1.
        -13    1    6    6    0    0  0.60083196335E+02 -0.32913010557E+02 -0.21079496512E+02  0.71677066897E+02  0.00000000000E+00 0.  1.
         14    1    6    6    0    0  0.16385896730E+03 -0.61165226919E+01  0.45647028943E+02  0.17020817919E+03  0.00000000000E+00 0. -1.
         -5    1    3    3    0  503 -0.22289646798E+03  0.75598313883E+01 -0.50715503972E+03  0.55404720990E+03  0.47000000000E+01 0.  1.
         13    1    4    4    0    0 -0.19300701505E+02 -0.19386473925E+02 -0.10091090464E+03  0.10455315932E+03  0.00000000000E+00 0. -1.
        -14    1    4    4    0    0 -0.11183579910E+03  0.81448628420E+02 -0.50397615341E+03  0.52262136220E+03  0.00000000000E+00 0.  1.
<mgrwt>
<rscale>  2 0.39974965E+03</rscale>
<asrwt>0</asrwt>
<pdfrwt beam="1">  1       21 0.31091275E-01 0.40023225E+03</pdfrwt>
<pdfrwt beam="2">  1       21 0.21318620E+00 0.40023225E+03</pdfrwt>
<totfact> 0.93720408E+02</totfact>
</mgrwt>
</event>
<event>
12    1  0.1074575E-001  0.2039688E+03  0.7546771E-02  0.1146457E+00
         21   -1    0    0  501  502  0.00000000000E+00  0.00000000000E+00  0.34544081684E+03  0.34544081684E+03  0.00000000000E+00 0. -1.
         21   -1    0    0  502  503 -0.00000000000E+00 -0.00000000000E+00 -0.12838823495E+03  0.12838823495E+03  0.00000000000E+00 0. -1.
         -6    2    1    2    0  503 -0.11067113818E+03 -0.52066466247E+01  0.49337236175E+02  0.20985094779E+03  0.17125433547E+03 0.  0.
        -24    2    3    3    0    0 -0.29016093091E+02 -0.51790465486E+02  0.59557615535E+02  0.11517178048E+03  0.78697163076E+02 0.  0.
          6    2    1    2  501    0  0.11067113818E+03  0.52066466247E+01  0.16771534571E+03  0.26397810400E+03  0.17111631194E+03 0.  0.
         24    2    5    5    0    0  0.13788687528E+03 -0.49250828599E+01  0.95851103837E+02  0.18632562466E+03  0.80577648783E+02 0.  0.
          5    1    5    5  501    0 -0.27215737095E+02  0.10131729485E+02  0.71864241876E+02  0.77652479345E+02  0.47000000000E+01 0. -1.
        -13    1    6    6    0    0 -0.76414124763E+01  0.85786258712E+01 -0.10228587048E+00  0.11488884579E+02  0.00000000000E+00 0.  1.
         14    1    6    6    0    0  0.14552828775E+03 -0.13503708731E+02  0.95953389707E+02  0.17483674008E+03  0.00000000000E+00 0. -1.
         -5    1    3    3    0  503 -0.81655045091E+02  0.46583818862E+02 -0.10220379360E+02  0.94679167312E+02  0.47000000000E+01 0.  1.
         13    1    4    4    0    0 -0.49749189609E+02 -0.16473711066E+02  0.14692737482E+02  0.54426478462E+02  0.00000000000E+00 0. -1.
        -14    1    4    4    0    0  0.20733096519E+02 -0.35316754421E+02  0.44864878053E+02  0.60745302014E+02  0.00000000000E+00 0.  1.
<mgrwt>
<rscale>  2 0.20393979E+03</rscale>
<asrwt>0</asrwt>
<pdfrwt beam="1">  1       21 0.53144741E-01 0.20396877E+03</pdfrwt>
<pdfrwt beam="2">  1       21 0.19752036E-01 0.20396877E+03</pdfrwt>
<totfact> 0.78841923E+04</totfact>
</mgrwt>
</event>
<event>
12    1  0.1074575E-001  0.2015790E+03  0.7546771E-02  0.1148632E+00
         21   -1    0    0  501  502  0.00000000000E+00  0.00000000000E+00  0.30288163842E+03  0.30288163842E+03  0.00000000000E+00 0. -1.
         21   -1    0    0  502  503 -0.00000000000E+00 -0.00000000000E+00 -0.14674767754E+03  0.14674767754E+03  0.00000000000E+00 0. -1.
         -6    2    1    2    0  503  0.84416438063E+02 -0.57576999623E+02  0.14551594322E+03  0.24777083355E+03  0.17255216696E+03 0.  0.
        -24    2    3    3    0    0  0.43864305202E+02 -0.56577641241E+01  0.46308716272E+01  0.92172710509E+02  0.80735841018E+02 0.  0.
          6    2    1    2  501    0 -0.84416438063E+02  0.57576999623E+02  0.10618017650E+02  0.20185848241E+03  0.17376092404E+03 0.  0.
         24    2    5    5    0    0 -0.11966270585E+03  0.42875180848E+02 -0.21434916769E+02  0.15177931036E+03  0.80125271247E+02 0.  0.
          5    1    5    5  501    0  0.35246267790E+02  0.14701818775E+02  0.32052934419E+02  0.50079172051E+02  0.47000000000E+01 0. -1.
        -11    1    6    6    0    0 -0.86366733035E+02 -0.10803332198E+02 -0.14387901090E+02  0.88220951363E+02  0.00000000000E+00 0.  1.
         12    1    6    6    0    0 -0.33295972818E+02  0.53678513045E+02 -0.70470156799E+01  0.63558358999E+02  0.00000000000E+00 0. -1.
         -5    1    3    3    0  503  0.40552132861E+02 -0.51919235498E+02  0.14088507160E+03  0.15559812304E+03  0.47000000000E+01 0.  1.
         11    1    4    4    0    0  0.43683436373E+02 -0.32285597306E+02  0.23858325337E+02  0.59328088581E+02  0.00000000000E+00 0. -1.
        -12    1    4    4    0    0  0.18086882908E+00  0.26627833181E+02 -0.19227453710E+02  0.32844621929E+02  0.00000000000E+00 0.  1.
<mgrwt>
<rscale>  2 0.20131827E+03</rscale>
<asrwt>0</asrwt>
<pdfrwt beam="1">  1       21 0.46597175E-01 0.20157903E+03</pdfrwt>
<pdfrwt beam="2">  1       21 0.22576566E-01 0.20157903E+03</pdfrwt>
<totfact> 0.80765611E+04</totfact>
</mgrwt>
</event>
<event>
12    1  0.1074575E-001  0.2005691E+03  0.7546771E-02  0.1149339E+00
         21   -1    0    0  503  502  0.00000000000E+00  0.00000000000E+00  0.10013984582E+04  0.10013984582E+04  0.00000000000E+00 0.  1.
         21   -1    0    0  501  503 -0.00000000000E+00 -0.00000000000E+00 -0.15416362270E+03  0.15416362270E+03  0.00000000000E+00 0.  1.
          6    2    1    2  501    0  0.22890270396E+02 -0.98990500387E+02 -0.73274558485E+02  0.21353482815E+03  0.17293026995E+03 0.  0.
         24    2    3    3    0    0 -0.39467093009E+02 -0.87951255003E+02 -0.14500469103E+02  0.12700859345E+03  0.81411574839E+02 0.  0.
         -6    2    1    2    0  502 -0.22890270396E+02  0.98990500387E+02  0.92050939403E+03  0.94202725280E+03  0.17249555608E+03 0.  0.
        -24    2    5    5    0    0 -0.10739642394E+02  0.21235356488E+02  0.19315462310E+03  0.21041222222E+03  0.79989465261E+02 0.  0.
          5    1    3    3  501    0  0.62357363406E+02 -0.11039245385E+02 -0.58774089383E+02  0.86526234706E+02  0.47000000000E+01 0. -1.
        -11    1    4    4    0    0 -0.14980898166E+02 -0.74615778988E+01 -0.36408646365E+02  0.40071086643E+02  0.00000000000E+00 0.  1.
         12    1    4    4    0    0 -0.24486194843E+02 -0.80489677104E+02  0.21908177262E+02  0.86937506803E+02  0.00000000000E+00 0. -1.
         -5    1    5    5    0  502 -0.12150628002E+02  0.77755143899E+02  0.72735477093E+03  0.73161503057E+03  0.47000000000E+01 0.  1.
         11    1    6    6    0    0 -0.42759122465E+02 -0.17521331964E+00  0.77518520904E+02  0.88529624063E+02  0.00000000000E+00 0. -1.
        -12    1    6    6    0    0  0.32019480071E+02  0.21410569808E+02  0.11563610220E+03  0.12188259816E+03  0.00000000000E+00 0.  1.
<mgrwt>
<rscale>  2 0.20047536E+03</rscale>
<asrwt>0</asrwt>
<pdfrwt beam="1">  1       21 0.15406130E+00 0.20056910E+03</pdfrwt>
<pdfrwt beam="2">  1       21 0.23717481E-01 0.20056910E+03</pdfrwt>
<totfact> 0.46323383E+03</totfact>
</mgrwt>
</event>
<event>
12    1  0.1074575E-001  0.2299184E+03  0.7546771E-02  0.1126787E+00
         21   -1    0    0  503  502  0.00000000000E+00  0.00000000000E+00  0.44779928007E+03  0.44779928007E+03  0.00000000000E+00 0.  1.
         21   -1    0    0  501  503 -0.00000000000E+00 -0.00000000000E+00 -0.12338267271E+03  0.12338267271E+03  0.00000000000E+00 0. -1.
          6    2    1    2  501    0 -0.82808347492E+02  0.12758637835E+03  0.10156252368E+03  0.25135116108E+03  0.17241506200E+03 0.  0.
         24    2    3    3    0    0  0.39664214254E+01  0.22841668279E+02  0.71331020022E+02  0.11193326904E+03  0.83087110859E+02 0.  0.
         -6    2    1    2    0  502  0.82808347492E+02 -0.12758637835E+03  0.22285408368E+03  0.31983079170E+03  0.17173318360E+03 0.  0.
        -24    2    5    5    0    0  0.12445573834E+03 -0.10531899611E+03  0.18626640968E+03  0.25990509299E+03  0.79209596895E+02 0.  0.
          5    1    3    3  501    0 -0.86774768917E+02  0.10474471008E+03  0.30231503661E+02  0.13941789205E+03  0.47000000000E+01 0. -1.
        -11    1    4    4    0    0 -0.33508468576E+02  0.29578226202E+02  0.54003395063E+02  0.70100325319E+02  0.00000000000E+00 0.  1.
         12    1    4    4    0    0  0.37474890001E+02 -0.67365579229E+01  0.17327624959E+02  0.41832943716E+02  0.00000000000E+00 0. -1.
         -5    1    5    5    0  502 -0.41647390850E+02 -0.22267382249E+02  0.36587673999E+02  0.59925698707E+02  0.47000000000E+01 0.  1.
         13    1    6    6    0    0 -0.54312501052E+01 -0.26979424331E+02  0.44285241725E+02  0.52139912252E+02  0.00000000000E+00 0. -1.
        -14    1    6    6    0    0  0.12988698845E+03 -0.78339571775E+02  0.14198116795E+03  0.20776518074E+03  0.00000000000E+00 0.  1.
<mgrwt>
<rscale>  2 0.22979055E+03</rscale>
<asrwt>0</asrwt>
<pdfrwt beam="1">  1       21 0.68892196E-01 0.22991838E+03</pdfrwt>
<pdfrwt beam="2">  1       21 0.18981950E-01 0.22991838E+03</pdfrwt>
<totfact> 0.47972449E+04</totfact>
</mgrwt>
</event>
<event>
12    1  0.1074575E-001  0.1765331E+03  0.7546771E-02  0.1171303E+00
         21   -1    0    0  503  502  0.00000000000E+00  0.00000000000E+00  0.32467105999E+02  0.32467105999E+02  0.00000000000E+00 0. -1.
         21   -1    0    0  501  503 -0.00000000000E+00 -0.00000000000E+00 -0.14273837685E+04  0.14273837685E+04  0.00000000000E+00 0. -1.
          6    2    1    2  501    0  0.73904696688E+01 -0.21926478311E+02 -0.11167443585E+04  0.11306112978E+04  0.17501015684E+03 0.  0.
         24    2    3    3    0    0  0.46449683144E+01 -0.81791593299E+02 -0.79700381233E+03  0.80526920610E+03  0.80820646894E+02 0.  0.
         -6    2    1    2    0  502 -0.73904696688E+01  0.21926478311E+02 -0.27817230400E+03  0.32923957669E+03  0.17459518508E+03 0.  0.
        -24    2    5    5    0    0  0.37981743857E+02  0.64557684293E+02 -0.13935184716E+03  0.17702503494E+03  0.79426810459E+02 0.  0.
          5    1    3    3  501    0  0.27455013544E+01  0.59865114988E+02 -0.31974054616E+03  0.32534209170E+03  0.47000000000E+01 0. -1.
        -11    1    4    4    0    0  0.71661600250E+01  0.15855554378E+02 -0.12141981226E+03  0.12266019429E+03  0.00000000000E+00 0.  1.
         12    1    4    4    0    0 -0.25211917106E+01 -0.97647147678E+02 -0.67558400007E+03  0.68260901181E+03  0.00000000000E+00 0. -1.
         -5    1    5    5    0  502 -0.45372213526E+02 -0.42631205982E+02 -0.13882045684E+03  0.15221454175E+03  0.47000000000E+01 0.  1.
         11    1    6    6    0    0 -0.14806046112E+01  0.34605864182E+02 -0.65075496269E+01  0.35243527462E+02  0.00000000000E+00 0. -1.
        -12    1    6    6    0    0  0.39462348468E+02  0.29951820111E+02 -0.13284429754E+03  0.14178150748E+03  0.00000000000E+00 0.  1.
<mgrwt>
<rscale>  2 0.17643019E+03</rscale>
<asrwt>0</asrwt>
<pdfrwt beam="1">  1       21 0.49949409E-02 0.17653313E+03</pdfrwt>
<pdfrwt beam="2">  1       21 0.21959744E+00 0.17653313E+03</pdfrwt>
<totfact> 0.27607399E+04</totfact>
</mgrwt>
</event>
<event>
12    1  0.1074575E-001  0.2395246E+03  0.7546771E-02  0.1120750E+00
         21   -1    0    0  501  502  0.00000000000E+00  0.00000000000E+00  0.23699614444E+03  0.23699614444E+03  0.00000000000E+00 0.  1.
         21   -1    0    0  502  503 -0.00000000000E+00 -0.00000000000E+00 -0.23949310723E+03  0.23949310723E+03  0.00000000000E+00 0. -1.
         -6    2    1    2    0  503  0.94269693345E+02 -0.13271617650E+03  0.15883707078E+02  0.24005068044E+03  0.17570338199E+03 0.  0.
        -24    2    3    3    0    0  0.67030140310E+02 -0.11196582054E+03 -0.53731548422E+02  0.16232716842E+03  0.80210009558E+02 0.  0.
          6    2    1    2  501    0 -0.94269693345E+02  0.13271617650E+03 -0.18380669860E+02  0.23643857123E+03  0.17048457512E+03 0.  0.
         24    2    5    5    0    0 -0.58936667322E+02  0.14812444553E+02 -0.45518007370E+02  0.11031070825E+03  0.80022647357E+02 0.  0.
          5    1    5    5  501    0 -0.35333026023E+02  0.11790373194E+03  0.27137337510E+02  0.12612786298E+03  0.47000000000E+01 0. -1.
        -13    1    6    6    0    0  0.15149550429E+02  0.21265383332E+02 -0.12315479079E+02  0.28868606330E+02  0.00000000000E+00 0.  1.
         14    1    6    6    0    0 -0.74086217751E+02 -0.64529387790E+01 -0.33202528291E+02  0.81442101916E+02  0.00000000000E+00 0. -1.
         -5    1    3    3    0  503  0.27239553035E+02 -0.20750355955E+02  0.69615255500E+02  0.77723512016E+02  0.47000000000E+01 0.  1.
         13    1    4    4    0    0  0.77595077008E+02 -0.56032146112E+02 -0.40248794281E+02  0.10382948914E+03  0.00000000000E+00 0. -1.
        -14    1    4    4    0    0 -0.10564936697E+02 -0.55933674428E+02 -0.13482754141E+02  0.58497679285E+02  0.00000000000E+00 0.  1.
<mgrwt>
<rscale>  2 0.23856850E+03</rscale>
<asrwt>0</asrwt>
<pdfrwt beam="1">  1       21 0.36460945E-01 0.23952461E+03</pdfrwt>
<pdfrwt beam="2">  1       21 0.36845093E-01 0.23952461E+03</pdfrwt>
<totfact> 0.50454713E+04</totfact>
</mgrwt>
</event>
<event>
12    1  0.1074575E-001  0.1802284E+03  0.7546771E-02  0.1167665E+00
         21   -1    0    0  503  502  0.00000000000E+00  0.00000000000E+00  0.11135644985E+03  0.11135644985E+03  0.00000000000E+00 0. -1.
         21   -1    0    0  501  503 -0.00000000000E+00 -0.00000000000E+00 -0.32049294149E+03  0.32049294149E+03  0.00000000000E+00 0. -1.
          6    2    1    2  501    0  0.49162571062E+02 -0.44933361146E+01 -0.16982192484E+03  0.24738279136E+03  0.17297864274E+03 0.  0.
         24    2    3    3    0    0  0.45954330766E+02 -0.59672191231E+01 -0.19746136131E+03  0.21912516256E+03  0.82930328789E+02 0.  0.
         -6    2    1    2    0  502 -0.49162571062E+02  0.44933361146E+01 -0.39314566803E+02  0.18446659998E+03  0.17333534805E+03 0.  0.
        -24    2    5    5    0    0  0.27640053687E+02  0.36072240207E+02 -0.87534710377E-02  0.92472538684E+02  0.80535652060E+02 0.  0.
          5    1    3    3  501    0  0.32082402956E+01  0.14738830085E+01  0.27639436477E+02  0.28257628805E+02  0.47000000000E+01 0. -1.
        -11    1    4    4    0    0  0.53584202851E+02  0.88463709976E+01 -0.61093955271E+02  0.81743479529E+02  0.00000000000E+00 0.  1.
         12    1    4    4    0    0 -0.76298720843E+01 -0.14813590121E+02 -0.13636740604E+03  0.13738168303E+03  0.00000000000E+00 0. -1.
         -5    1    5    5    0  502 -0.76802624749E+02 -0.31578904092E+02 -0.39305813332E+02  0.91994061295E+02  0.47000000000E+01 0.  1.
         13    1    6    6    0    0  0.35586971407E+02  0.45759964084E+02 -0.26065513752E+02  0.63559561468E+02  0.00000000000E+00 0. -1.
        -14    1    6    6    0    0 -0.79469177202E+01 -0.96877238767E+01  0.26056760281E+02  0.28912977216E+02  0.00000000000E+00 0.  1.
<mgrwt>
<rscale>  2 0.18014262E+03</rscale>
<asrwt>0</asrwt>
<pdfrwt beam="1">  1       21 0.17131761E-01 0.18022844E+03</pdfrwt>
<pdfrwt beam="2">  1       21 0.49306607E-01 0.18022844E+03</pdfrwt>
<totfact> 0.12118642E+05</totfact>
</mgrwt>
</event>
<event>
12    1  0.1074575E-001  0.1914054E+03  0.7546771E-02  0.1157227E+00
         21   -1    0    0  503  502  0.00000000000E+00  0.00000000000E+00  0.92978564858E+02  0.92978564858E+02  0.00000000000E+00 0. -1.
         21   -1    0    0  501  503 -0.00000000000E+00 -0.00000000000E+00 -0.56865425330E+03  0.56865425330E+03  0.00000000000E+00 0. -1.
          6    2    1    2  501    0 -0.79243432807E+02 -0.18245773300E+02 -0.42134711570E+03  0.46278441691E+03  0.17327317953E+03 0.  0.
         24    2    3    3    0    0 -0.86156936485E+01 -0.63698863021E+02 -0.18384965074E+03  0.21082926859E+03  0.80724909973E+02 0.  0.
         -6    2    1    2    0  502  0.79243432807E+02  0.18245773300E+02 -0.54328572746E+02  0.19884840125E+03  0.17313769947E+03 0.  0.
        -24    2    5    5    0    0  0.74169336600E+02 -0.12499697426E+01 -0.10005067608E+03  0.14866442789E+03  0.81168475520E+02 0.  0.
          5    1    3    3  501    0 -0.70627739158E+02  0.45453089721E+02 -0.23749746496E+03  0.25195514832E+03  0.47000000000E+01 0. -1.
        -13    1    4    4    0    0  0.34476905949E+02 -0.41822806602E+02 -0.10902311816E+03  0.12175321141E+03  0.00000000000E+00 0.  1.
         14    1    4    4    0    0 -0.43092599598E+02 -0.21876056419E+02 -0.74826532578E+02  0.89076057177E+02  0.00000000000E+00 0. -1.
         -5    1    5    5    0  502  0.50740962066E+01  0.19495743043E+02  0.45722103335E+02  0.50183973363E+02  0.47000000000E+01 0.  1.
         11    1    6    6    0    0  0.13715031761E+02  0.71878601255E+00  0.13971985484E+02  0.19591710694E+02  0.00000000000E+00 0. -1.
        -12    1    6    6    0    0  0.60454304839E+02 -0.19687557551E+01 -0.11402266157E+03  0.12907271719E+03  0.00000000000E+00 0.  1.
<mgrwt>
<rscale>  2 0.19137473E+03</rscale>
<asrwt>0</asrwt>
<pdfrwt beam="1">  1       21 0.14304395E-01 0.19140539E+03</pdfrwt>
<pdfrwt beam="2">  1       21 0.87485269E-01 0.19140539E+03</pdfrwt>
<totfact> 0.47994916E+04</totfact>
</mgrwt>
</event>
<event>
12    1  0.1074575E-001  0.1766086E+03  0.7546771E-02  0.1171924E+00
         21   -1    0    0  501  502  0.00000000000E+00  0.00000000000E+00  0.20310282715E+03  0.20310282715E+03  0.00000000000E+00 0. -1.
         21   -1    0    0  502  503 -0.00000000000E+00 -0.00000000000E+00 -0.15859647839E+03  0.15859647839E+03  0.00000000000E+00 0. -1.
         -6    2    1    2    0  503 -0.23130048726E+02  0.55525103205E+01 -0.17620441275E+02  0.17748546769E+03  0.17499937647E+03 0.  0.
        -24    2    3    3    0    0 -0.25513319350E+02 -0.47389173479E+02 -0.53837881113E+02  0.11312480571E+03  0.83678199056E+02 0.  0.
          6    2    1    2  501    0  0.23130048726E+02 -0.55525103205E+01  0.62126790043E+02  0.18421383785E+03  0.17178233462E+03 0.  0.
         24    2    5    5    0    0  0.72313248384E+01 -0.69127580150E+02  0.27940745512E+02  0.11015079331E+03  0.80756409103E+02 0.  0.
          5    1    5    5  501    0  0.15898723888E+02  0.63575069830E+02  0.34186044530E+02  0.74063044535E+02  0.47000000000E+01 0. -1.
        -13    1    6    6    0    0  0.39730216989E+02 -0.59248201411E+02  0.26673575647E+02  0.76159826354E+02  0.00000000000E+00 0.  1.
         14    1    6    6    0    0 -0.32498892151E+02 -0.98793787395E+01  0.12671698656E+01  0.33990966959E+02  0.00000000000E+00 0. -1.
         -5    1    3    3    0  503  0.23832706234E+01  0.52941683800E+02  0.36217439838E+02  0.64360661982E+02  0.47000000000E+01 0.  1.
         13    1    4    4    0    0  0.22320238940E+02 -0.27687838892E+02  0.36932495637E+01  0.35755413313E+02  0.00000000000E+00 0. -1.
        -14    1    4    4    0    0 -0.47833558289E+02 -0.19701334587E+02 -0.57531130676E+02  0.77369392398E+02  0.00000000000E+00 0.  1.
<mgrwt>
<rscale>  2 0.17580639E+03</rscale>
<asrwt>0</asrwt>
<pdfrwt beam="1">  1       21 0.31246589E-01 0.17660864E+03</pdfrwt>
<pdfrwt beam="2">  1       21 0.24399458E-01 0.17660864E+03</pdfrwt>
<totfact> 0.15693530E+05</totfact>
</mgrwt>
</event>
<event>
12    1  0.1074575E-001  0.2210856E+03  0.7546771E-02  0.1134712E+00
         21   -1    0    0  503  502  0.00000000000E+00  0.00000000000E+00  0.21018698566E+03  0.21018698566E+03  0.00000000000E+00 0.  1.
         21   -1    0    0  501  503 -0.00000000000E+00 -0.00000000000E+00 -0.22529934306E+03  0.22529934306E+03  0.00000000000E+00 0.  1.
          6    2    1    2  501    0  0.78697112557E+02  0.11278442200E+03 -0.26612223775E+02  0.21410188185E+03  0.16191925143E+03 0.  0.
         24    2    3    3    0    0  0.68648087704E+01  0.12093798421E+02 -0.36060577292E+02  0.89965493431E+02  0.81240625391E+02 0.  0.
         -6    2    1    2    0  502 -0.78697112557E+02 -0.11278442200E+03  0.11499866368E+02  0.22138444687E+03  0.17310478047E+03 0.  0.
        -24    2    5    5    0    0 -0.35088783887E+02 -0.93768734956E+02  0.69036865080E+02  0.14657883944E+03  0.81825845679E+02 0.  0.
          5    1    3    3  501    0  0.71832303787E+02  0.10069062358E+03  0.94483535167E+01  0.12413638841E+03  0.47000000000E+01 0. -1.
        -11    1    4    4    0    0 -0.16585770534E+02  0.36695272746E+02 -0.38731912969E+02  0.55872998025E+02  0.00000000000E+00 0.  1.
         12    1    4    4    0    0  0.23450579304E+02 -0.24601474325E+02  0.26713356778E+01  0.34092495405E+02  0.00000000000E+00 0. -1.
         -5    1    5    5    0  502 -0.43608328671E+02 -0.19015687045E+02 -0.57536998712E+02  0.74805607437E+02  0.47000000000E+01 0.  1.
         11    1    6    6    0    0  0.59448774601E+01 -0.24423007305E+02 -0.15708901843E+02  0.29641093956E+02  0.00000000000E+00 0. -1.
        -12    1    6    6    0    0 -0.41033661347E+02 -0.69345727651E+02  0.84745766923E+02  0.11693774548E+03  0.00000000000E+00 0.  1.
<mgrwt>
<rscale>  2 0.21889213E+03</rscale>
<asrwt>0</asrwt>
<pdfrwt beam="1">  1       21 0.32336459E-01 0.22108556E+03</pdfrwt>
<pdfrwt beam="2">  1       21 0.34661438E-01 0.22108556E+03</pdfrwt>
<totfact> 0.72925777E+04</totfact>
</mgrwt>
</event>
<event>
12    1  0.1074575E-001  0.1921478E+03  0.7546771E-02  0.1156557E+00
         21   -1    0    0  501  502  0.00000000000E+00  0.00000000000E+00  0.47079661886E+02  0.47079661886E+02  0.00000000000E+00 0. -1.
         21   -1    0    0  502  503 -0.00000000000E+00 -0.00000000000E+00 -0.10544937548E+04  0.10544937548E+04  0.00000000000E+00 0. -1.
         -6    2    1    2    0  503  0.81884304623E+02  0.14725715691E+01 -0.78280468534E+03  0.80604214208E+03  0.17382045799E+03 0.  0.
        -24    2    3    3    0    0  0.85098759957E+02 -0.20610876199E+02 -0.77126717622E+03  0.78048406107E+03  0.81459838619E+02 0.  0.
          6    2    1    2  501    0 -0.81884304623E+02 -0.14725715691E+01 -0.22460940753E+03  0.29553127456E+03  0.17373007938E+03 0.  0.
         24    2    5    5    0    0  0.36221144386E+01 -0.36592368981E+02 -0.15796840830E+03  0.18147926603E+03  0.81416121239E+02 0.  0.
          5    1    5    5  501    0 -0.85506419061E+02  0.35119797412E+02 -0.66640999232E+02  0.11405200853E+03  0.47000000000E+01 0. -1.
        -11    1    6    6    0    0  0.13743882690E+02 -0.55557145038E+02 -0.67524742728E+02  0.88515996049E+02  0.00000000000E+00 0.  1.
         12    1    6    6    0    0 -0.10121768251E+02  0.18964776058E+02 -0.90443665575E+02  0.92963269983E+02  0.00000000000E+00 0. -1.
         -5    1    3    3    0  503 -0.32144553342E+01  0.22083447768E+02 -0.11537509123E+02  0.25558081015E+02  0.47000000000E+01 0.  1.
         13    1    4    4    0    0  0.43785864728E+02  0.17424939315E+02 -0.16430611523E+03  0.17093077535E+03  0.00000000000E+00 0. -1.
        -14    1    4    4    0    0  0.41312895228E+02 -0.38035815514E+02 -0.60696106099E+03  0.60955328572E+03  0.00000000000E+00 0.  1.
<mgrwt>
<rscale>  2 0.19212731E+03</rscale>
<asrwt>0</asrwt>
<pdfrwt beam="1">  1       21 0.72430247E-02 0.19214775E+03</pdfrwt>
<pdfrwt beam="2">  1       21 0.16222981E+00 0.19214775E+03</pdfrwt>
<totfact> 0.34585436E+04</totfact>
</mgrwt>
</event>
<event>
12    1  0.1074575E-001  0.2240442E+03  0.7546771E-02  0.1131515E+00
         21   -1    0    0  503  502  0.00000000000E+00  0.00000000000E+00  0.76481983175E+03  0.76481983175E+03  0.00000000000E+00 0.  1.
         21   -1    0    0  501  503 -0.00000000000E+00 -0.00000000000E+00 -0.68241252928E+02  0.68241252928E+02  0.00000000000E+00 0.  1.
          6    2    1    2  501    0 -0.13566783634E+03 -0.37270117910E+02  0.44126553095E+03  0.49338394414E+03  0.17005182747E+03 0.  0.
         24    2    3    3    0    0 -0.15239268086E+03  0.11863776369E+01  0.38998949471E+03  0.42697653216E+03  0.83619473552E+02 0.  0.
         -6    2    1    2    0  502  0.13566783634E+03  0.37270117910E+02  0.25531304787E+03  0.33967714053E+03  0.17435877919E+03 0.  0.
        -24    2    5    5    0    0  0.13832127444E+03  0.38196771696E+02  0.11940734980E+03  0.20366115548E+03  0.81412423728E+02 0.  0.
          5    1    3    3  501    0  0.16724844522E+02 -0.38456495547E+02  0.51276036246E+02  0.66407411990E+02  0.47000000000E+01 0. -1.
        -13    1    4    4    0    0  0.18868021186E+01  0.16869591064E+02  0.23153864839E+02  0.28709660080E+02  0.00000000000E+00 0.  1.
         14    1    4    4    0    0 -0.15427948298E+03 -0.15683213427E+02  0.36683562987E+03  0.39826687208E+03  0.00000000000E+00 0. -1.
         -5    1    5    5    0  502 -0.26534380932E+01 -0.92665378651E+00  0.13590569807E+03  0.13601598505E+03  0.47000000000E+01 0.  1.
         13    1    6    6    0    0  0.24635082036E+02  0.11325440011E+02 -0.10389687724E+02  0.29036157964E+02  0.00000000000E+00 0. -1.
        -14    1    6    6    0    0  0.11368619240E+03  0.26871331686E+02  0.12979703752E+03  0.17462499752E+03  0.00000000000E+00 0.  1.
<mgrwt>
<rscale>  2 0.22320570E+03</rscale>
<asrwt>0</asrwt>
<pdfrwt beam="1">  1       21 0.11766458E+00 0.22404421E+03</pdfrwt>
<pdfrwt beam="2">  1       21 0.10498655E-01 0.22404421E+03</pdfrwt>
<totfact> 0.40587246E+04</totfact>
</mgrwt>
</event>
<event>
12    1  0.1074575E-001  0.2047534E+03  0.7546771E-02  0.1146003E+00
         21   -1    0    0  501  502  0.00000000000E+00  0.00000000000E+00  0.24258244069E+04  0.24258244069E+04  0.00000000000E+00 0. -1.
         21   -1    0    0  502  503 -0.00000000000E+00 -0.00000000000E+00 -0.32534447652E+02  0.32534447652E+02  0.00000000000E+00 0.  1.
         -6    2    1    2    0  503  0.99475147677E+02 -0.44647211461E+02  0.35101195757E+03  0.40584249725E+03  0.17207573832E+03 0.  0.
        -24    2    3    3    0    0 -0.14069742230E+02 -0.27781661467E+01  0.14280530583E+03  0.16497415394E+03  0.81347650498E+02 0.  0.
          6    2    1    2  501    0 -0.99475147677E+02  0.44647211461E+02  0.20422780017E+04  0.20525163573E+04  0.17330690222E+03 0.  0.
         24    2    5    5    0    0 -0.31649233461E+02  0.31536361814E+02  0.16843994772E+04  0.16880010938E+04  0.10074660245E+03 0.  0.
          5    1    5    5  501    0 -0.67825914216E+02  0.13110849647E+02  0.35787852455E+03  0.36451526354E+03  0.47000000000E+01 0. -1.
        -13    1    6    6    0    0 -0.21941364616E+02  0.33504337980E+02  0.22298369179E+03  0.22655174011E+03  0.00000000000E+00 0.  1.
         14    1    6    6    0    0 -0.97078688455E+01 -0.19679761665E+01  0.14614157854E+04  0.14614493537E+04  0.00000000000E+00 0. -1.
         -5    1    3    3    0  503  0.11354488991E+03 -0.41869045314E+02  0.20820665174E+03  0.24086834331E+03  0.47000000000E+01 0.  1.
         11    1    4    4    0    0 -0.99022105858E+00 -0.27696915729E+02  0.13191956551E+03  0.13479937478E+03  0.00000000000E+00 0. -1.
        -12    1    4    4    0    0 -0.13079521171E+02  0.24918749582E+02  0.10885740325E+02  0.30174779158E+02  0.00000000000E+00 0.  1.
<mgrwt>
<rscale>  2 0.20449266E+03</rscale>
<asrwt>0</asrwt>
<pdfrwt beam="1">  1       21 0.37320361E+00 0.20475341E+03</pdfrwt>
<pdfrwt beam="2">  1       21 0.50053015E-02 0.20475341E+03</pdfrwt>
<totfact> 0.33597031E+03</totfact>
</mgrwt>
</event>
<event>
12    1  0.1074575E-001  0.2497988E+03  0.7546771E-02  0.1113525E+00
         21   -1    0    0  501  502  0.00000000000E+00  0.00000000000E+00  0.46051246461E+03  0.46051246461E+03  0.00000000000E+00 0.  1.
         21   -1    0    0  502  503 -0.00000000000E+00 -0.00000000000E+00 -0.18639715415E+03  0.18639715415E+03  0.00000000000E+00 0.  1.
         -6    2    1    2    0  503 -0.10293117178E+03 -0.14804054872E+03 -0.32375594710E+02  0.25188807189E+03  0.17288317280E+03 0.  0.
        -24    2    3    3    0    0 -0.10521105065E+03 -0.56087300533E+02  0.21458327273E+02  0.14520733860E+03  0.80059733408E+02 0.  0.
          6    2    1    2  501    0  0.10293117178E+03  0.14804054872E+03  0.30649090517E+03  0.39502154687E+03  0.17203057097E+03 0.  0.
         24    2    5    5    0    0  0.11813264097E+03  0.16683531185E+03  0.29563339396E+03  0.36810866266E+03  0.79470382879E+02 0.  0.
          5    1    5    5  501    0 -0.15201469188E+02 -0.18794763135E+02  0.10857511212E+02  0.26912884210E+02  0.47000000000E+01 0. -1.
        -13    1    6    6    0    0  0.74787964839E+01  0.73955703854E+02  0.88572626051E+02  0.11563082900E+03  0.00000000000E+00 0.  1.
         14    1    6    6    0    0  0.11065384448E+03  0.92879608000E+02  0.20706076791E+03  0.25247783366E+03  0.00000000000E+00 0. -1.
         -5    1    3    3    0  503  0.22798788690E+01 -0.91953248186E+02 -0.53833921983E+02  0.10668073329E+03  0.47000000000E+01 0.  1.
         11    1    4    4    0    0 -0.55916709936E+02 -0.57881214553E+02  0.43154933357E+02  0.91319558262E+02  0.00000000000E+00 0. -1.
        -12    1    4    4    0    0 -0.49294340712E+02  0.17939140198E+01 -0.21696606084E+02  0.53887780334E+02  0.00000000000E+00 0.  1.
<mgrwt>
<rscale>  2 0.24965130E+03</rscale>
<asrwt>0</asrwt>
<pdfrwt beam="1">  1       21 0.70848071E-01 0.24979876E+03</pdfrwt>
<pdfrwt beam="2">  1       21 0.28676485E-01 0.24979876E+03</pdfrwt>
<totfact> 0.20343116E+04</totfact>
</mgrwt>
</event>
<event>
12    1  0.1074575E-001  0.1955484E+03  0.7546771E-02  0.1153698E+00
         21   -1    0    0  501  502  0.00000000000E+00  0.00000000000E+00  0.23228625256E+04  0.23228625256E+04  0.00000000000E+00 0. -1.
         21   -1    0    0  502  503 -0.00000000000E+00 -0.00000000000E+00 -0.24739549231E+02  0.24739549231E+02  0.00000000000E+00 0.  1.
         -6    2    1    2    0  503 -0.83744740777E+02 -0.32125156859E+02  0.46908607382E+03  0.50821347708E+03  0.17376416870E+03 0.  0.
        -24    2    3    3    0    0 -0.12740992603E+02  0.16555426979E+02  0.37937597791E+03  0.38378951313E+03  0.54146493113E+02 0.  0.
          6    2    1    2  501    0  0.83744740777E+02  0.32125156859E+02  0.18290369025E+04  0.18393885977E+04  0.17300062238E+03 0.  0.
         24    2    5    5    0    0  0.69386884589E+00  0.58838215661E+02  0.76517361679E+03  0.77194388460E+03  0.83332347093E+02 0.  0.
          5    1    5    5  501    0  0.83050871931E+02 -0.26713058802E+02  0.10638632857E+04  0.10674447131E+04  0.47000000000E+01 0. -1.
        -11    1    6    6    0    0  0.16768198142E+02  0.36622001060E+02  0.12816038278E+03  0.13434071291E+03  0.00000000000E+00 0.  1.
         12    1    6    6    0    0 -0.16074329296E+02  0.22216214601E+02  0.63701323401E+03  0.63760317169E+03  0.00000000000E+00 0. -1.
         -5    1    3    3    0  503 -0.71003748174E+02 -0.48680583838E+02  0.89710095913E+02  0.12442396395E+03  0.47000000000E+01 0.  1.
         11    1    4    4    0    0  0.64026194162E+01  0.27881997219E+02  0.11598419642E+03  0.11946017380E+03  0.00000000000E+00 0. -1.
        -12    1    4    4    0    0 -0.19143612020E+02 -0.11326570240E+02  0.26339178149E+03  0.26432933933E+03  0.00000000000E+00 0.  1.
<mgrwt>
<rscale>  2 0.19537868E+03</rscale>
<asrwt>0</asrwt>
<pdfrwt beam="1">  1       21 0.35736329E+00 0.19554844E+03</pdfrwt>
<pdfrwt beam="2">  1       21 0.38060863E-02 0.19554844E+03</pdfrwt>
<totfact> 0.67111421E+03</totfact>
</mgrwt>
</event>
<event>
12    1  0.1074575E-001  0.1995290E+03  0.7546771E-02  0.1150148E+00
         21   -1    0    0  503  502  0.00000000000E+00  0.00000000000E+00  0.47724109057E+03  0.47724109057E+03  0.00000000000E+00 0.  1.
         21   -1    0    0  501  503 -0.00000000000E+00 -0.00000000000E+00 -0.23851661633E+03  0.23851661633E+03  0.00000000000E+00 0.  1.
          6    2    1    2  501    0  0.31556993357E+02  0.93898259945E+02 -0.16923956980E+03  0.26163685456E+03  0.17320243828E+03 0.  0.
         24    2    3    3    0    0  0.67188305228E+02  0.15017657517E+02 -0.82819369463E+02  0.13923472691E+03  0.88246602336E+02 0.  0.
         -6    2    1    2    0  502 -0.31556993357E+02 -0.93898259945E+02  0.40796404404E+03  0.45412085234E+03  0.17314260092E+03 0.  0.
        -24    2    5    5    0    0 -0.32031540698E+02 -0.39676902344E+02  0.38248591941E+03  0.39402588042E+03  0.79753618836E+02 0.  0.
          5    1    3    3  501    0 -0.35631311872E+02  0.78880602428E+02 -0.86420200335E+02  0.12240212764E+03  0.47000000000E+01 0. -1.
        -13    1    4    4    0    0  0.69345849425E+02  0.42299876761E+02 -0.75517526827E+02  0.11090997820E+03  0.00000000000E+00 0.  1.
         14    1    4    4    0    0 -0.21575441968E+01 -0.27282219243E+02 -0.73018426359E+01  0.28324748713E+02  0.00000000000E+00 0. -1.
         -5    1    5    5    0  502  0.47454734171E+00 -0.54221357601E+02  0.25478124630E+02  0.60094971919E+02  0.47000000000E+01 0.  1.
         11    1    6    6    0    0 -0.26168415682E+02 -0.29207857585E+02  0.62298949362E+02  0.73614156353E+02  0.00000000000E+00 0. -1.
        -12    1    6    6    0    0 -0.58631250162E+01 -0.10469044760E+02  0.32018697005E+03  0.32041172407E+03  0.00000000000E+00 0.  1.
<mgrwt>
<rscale>  2 0.19951599E+03</rscale>
<asrwt>0</asrwt>
<pdfrwt beam="1">  1       21 0.73421706E-01 0.19952897E+03</pdfrwt>
<pdfrwt beam="2">  1       21 0.36694864E-01 0.19952897E+03</pdfrwt>
<totfact> 0.11885293E+04</totfact>
</mgrwt>
</event>
<event>
12    1  0.1074575E-001  0.2363283E+03  0.7546771E-02  0.1122283E+00
         21   -1    0    0  501  502  0.00000000000E+00  0.00000000000E+00  0.41045805277E+03  0.41045805277E+03  0.00000000000E+00 0. -1.
         21   -1    0    0  502  503 -0.00000000000E+00 -0.00000000000E+00 -0.20326065086E+03  0.20326065086E+03  0.00000000000E+00 0.  1.
         -6    2    1    2    0  503 -0.15382940769E+03  0.50101435168E+02 -0.72900231176E+02  0.24731665597E+03  0.17227142578E+03 0.  0.
        -24    2    3    3    0    0 -0.29627195477E+02  0.52666177417E+02 -0.76874892225E+02  0.12293556677E+03  0.74511123775E+02 0.  0.
          6    2    1    2  501    0  0.15382940769E+03 -0.50101435168E+02  0.28009763308E+03  0.36640204766E+03  0.17211082474E+03 0.  0.
         24    2    5    5    0    0  0.80325405274E+02  0.27318396569E+01  0.66167321576E+02  0.13406078683E+03  0.84466244388E+02 0.  0.
          5    1    5    5  501    0  0.73504002416E+02 -0.52833274824E+02  0.21393031151E+03  0.23234126082E+03  0.47000000000E+01 0. -1.
        -13    1    6    6    0    0  0.97787793936E+02  0.63029499351E+01  0.50060048459E+02  0.11003721313E+03  0.00000000000E+00 0.  1.
         14    1    6    6    0    0 -0.17462388661E+02 -0.35711102781E+01  0.16107273116E+02  0.24023573706E+02  0.00000000000E+00 0. -1.
         -5    1    3    3    0  503 -0.12420221221E+03 -0.25647422497E+01  0.39746610486E+01  0.12438108920E+03  0.47000000000E+01 0.  1.
         11    1    4    4    0    0  0.15524903390E+02  0.31047939607E+02 -0.45996934636E+01  0.35016486960E+02  0.00000000000E+00 0. -1.
        -12    1    4    4    0    0 -0.45152098867E+02  0.21618237811E+02 -0.72275198761E+02  0.87919079807E+02  0.00000000000E+00 0.  1.
<mgrwt>
<rscale>  2 0.23629907E+03</rscale>
<asrwt>0</asrwt>
<pdfrwt beam="1">  1       21 0.63147393E-01 0.23632834E+03</pdfrwt>
<pdfrwt beam="2">  1       21 0.31270869E-01 0.23632834E+03</pdfrwt>
<totfact> 0.22261115E+04</totfact>
</mgrwt>
</event>
<event>
12    1  0.1074575E-001  0.2205613E+03  0.7546771E-02  0.1133555E+00
         21   -1    0    0  503  502  0.00000000000E+00  0.00000000000E+00  0.60915787643E+03  0.60915787643E+03  0.00000000000E+00 0. -1.
         21   -1    0    0  501  503 -0.00000000000E+00 -0.00000000000E+00 -0.34953361736E+03  0.34953361736E+03  0.00000000000E+00 0. -1.
          6    2    1    2  501    0 -0.87541118288E+02  0.10432281305E+03 -0.29139677954E+03  0.36516686914E+03  0.17288164297E+03 0.  0.
         24    2    3    3    0    0 -0.97512492757E+02  0.12392354718E+02 -0.18113960075E+03  0.22118988156E+03  0.80319064024E+02 0.  0.
         -6    2    1    2    0  502  0.87541118288E+02 -0.10432281305E+03  0.55102103862E+03  0.59352462465E+03  0.17349524013E+03 0.  0.
        -24    2    5    5    0    0 -0.57147602570E+01 -0.17144211101E+02  0.30689465986E+03  0.31799505033E+03  0.81301521025E+02 0.  0.
          5    1    3    3  501    0  0.99713744691E+01  0.91930458329E+02 -0.11025717879E+03  0.14397698758E+03  0.47000000000E+01 0. -1.
        -13    1    4    4    0    0 -0.56522555713E+02  0.22698039721E+02 -0.37654059086E+02  0.71608857533E+02  0.00000000000E+00 0.  1.
         14    1    4    4    0    0 -0.40989937044E+02 -0.10305685003E+02 -0.14348554167E+03  0.14958102403E+03  0.00000000000E+00 0. -1.
         -5    1    5    5    0  502  0.93255878545E+02 -0.87178601947E+02  0.24412637876E+03  0.27552957432E+03  0.47000000000E+01 0.  1.
         13    1    6    6    0    0 -0.10634390745E+02  0.10382946486E+01  0.29608439465E+03  0.29627712885E+03  0.00000000000E+00 0. -1.
        -14    1    6    6    0    0  0.49196304883E+01 -0.18182505749E+02  0.10810265213E+02  0.21717921481E+02  0.00000000000E+00 0.  1.
<mgrwt>
<rscale>  2 0.22044064E+03</rscale>
<asrwt>0</asrwt>
<pdfrwt beam="1">  1       21 0.93716596E-01 0.22056132E+03</pdfrwt>
<pdfrwt beam="2">  1       21 0.53774403E-01 0.22056132E+03</pdfrwt>
<totfact> 0.30575240E+03</totfact>
</mgrwt>
</event>
<event>
12    1  0.1074575E-001  0.3022158E+03  0.7546771E-02  0.1084157E+00
         21   -1    0    0  501  502  0.00000000000E+00  0.00000000000E+00  0.32428663025E+03  0.32428663025E+03  0.00000000000E+00 0. -1.
         21   -1    0    0  502  503 -0.00000000000E+00 -0.00000000000E+00 -0.28443986144E+03  0.28443986144E+03  0.00000000000E+00 0. -1.
         -6    2    1    2    0  503 -0.24466124041E+03 -0.35694762848E+02 -0.10982016708E+02  0.30226613981E+03  0.17352514495E+03 0.  0.
        -24    2    3    3    0    0 -0.24127362955E+03 -0.45363547158E+02  0.30244543288E+02  0.25952645630E+03  0.78539374788E+02 0.  0.
          6    2    1    2  501    0  0.24466124041E+03  0.35694762848E+02  0.50828785513E+02  0.30646035189E+03  0.17378476110E+03 0.  0.
         24    2    5    5    0    0  0.22896857059E+03  0.37359441820E+02  0.91438364195E+02  0.26263959285E+03  0.82439353907E+02 0.  0.
          5    1    5    5  501    0  0.15692669816E+02 -0.16646789718E+01 -0.40609578682E+02  0.43820759039E+02  0.47000000000E+01 0. -1.
        -11    1    6    6    0    0 -0.30946937682E+01  0.11677303224E+02  0.54998196724E+00  0.12092932658E+02  0.00000000000E+00 0.  1.
         12    1    6    6    0    0  0.23206326436E+03  0.25682138596E+02  0.90888382228E+02  0.25054666019E+03  0.00000000000E+00 0. -1.
         -5    1    3    3    0  503 -0.33876108570E+01  0.96687843096E+01 -0.41226559996E+02  0.42739683509E+02  0.47000000000E+01 0.  1.
         13    1    4    4    0    0 -0.18071727625E+03 -0.18184013515E+02 -0.99964492443E+01  0.18190470384E+03  0.00000000000E+00 0. -1.
        -14    1    4    4    0    0 -0.60556353304E+02 -0.27179533643E+02  0.40240992533E+02  0.77621752458E+02  0.00000000000E+00 0.  1.
<mgrwt>
<rscale>  2 0.30217848E+03</rscale>
<asrwt>0</asrwt>
<pdfrwt beam="1">  1       21 0.49890251E-01 0.30221579E+03</pdfrwt>
<pdfrwt beam="2">  1       21 0.43759978E-01 0.30221579E+03</pdfrwt>
<totfact> 0.18184597E+04</totfact>
</mgrwt>
</event>
<event>
12    1  0.1074575E-001  0.2064102E+03  0.7546771E-02  0.1145162E+00
         21   -1    0    0  503  502  0.00000000000E+00  0.00000000000E+00  0.18577936448E+03  0.18577936448E+03  0.00000000000E+00 0.  1.
         21   -1    0    0  501  503 -0.00000000000E+00 -0.00000000000E+00 -0.10000550219E+04  0.10000550219E+04  0.00000000000E+00 0.  1.
          6    2    1    2  501    0 -0.10384532443E+03  0.27345300989E+02 -0.92817125309E+03  0.95008582612E+03  0.17213246367E+03 0.  0.
         24    2    3    3    0    0 -0.12454539203E+03  0.62183384539E+02 -0.78852203237E+03  0.80459981404E+03  0.78965418003E+02 0.  0.
         -6    2    1    2    0  502  0.10384532443E+03 -0.27345300989E+02  0.11389559567E+03  0.23574856024E+03  0.17627694135E+03 0.  0.
        -24    2    5    5    0    0  0.13384883207E+03 -0.61123093275E+01  0.59449667537E+02  0.16988886471E+03  0.85878362873E+02 0.  0.
          5    1    3    3  501    0  0.20700067592E+02 -0.34838083550E+02 -0.13964922072E+03  0.14548601208E+03  0.47000000000E+01 0. -1.
        -11    1    4    4    0    0 -0.63621682495E+02  0.35369790228E+02 -0.60530321288E+03  0.60966443235E+03  0.00000000000E+00 0.  1.
         12    1    4    4    0    0 -0.60923709531E+02  0.26813594311E+02 -0.18321881949E+03  0.19493538169E+03  0.00000000000E+00 0. -1.
         -5    1    5    5    0  502 -0.30003507639E+02 -0.21232991661E+02  0.54445928134E+02  0.65859695534E+02  0.47000000000E+01 0.  1.
         13    1    6    6    0    0  0.18174332191E+02 -0.23306590933E+02 -0.13034625068E+02  0.32301779861E+02  0.00000000000E+00 0. -1.
        -14    1    6    6    0    0  0.11567449988E+03  0.17194281606E+02  0.72484292606E+02  0.13758708485E+03  0.00000000000E+00 0.  1.
<mgrwt>
<rscale>  2 0.20552251E+03</rscale>
<asrwt>0</asrwt>
<pdfrwt beam="1">  1       21 0.28581441E-01 0.20641022E+03</pdfrwt>
<pdfrwt beam="2">  1       21 0.15385462E+00 0.20641022E+03</pdfrwt>
<totfact> 0.32329036E+03</totfact>
</mgrwt>
</event>
<event>
12    1  0.1074575E-001  0.2158934E+03  0.7546771E-02  0.1137139E+00
         21   -1    0    0  501  502  0.00000000000E+00  0.00000000000E+00  0.38027471805E+03  0.38027471805E+03  0.00000000000E+00 0. -1.
         21   -1    0    0  502  503 -0.00000000000E+00 -0.00000000000E+00 -0.15731395817E+03  0.15731395817E+03  0.00000000000E+00 0. -1.
         -6    2    1    2    0  503  0.88437750152E+01  0.12726953967E+03 -0.15851241275E+02  0.21565527694E+03  0.17314788055E+03 0.  0.
        -24    2    3    3    0    0 -0.30449351742E+02  0.13882311247E+03 -0.40245946504E+02  0.16775301710E+03  0.79513011258E+02 0.  0.
          6    2    1    2  501    0 -0.88437750152E+01 -0.12726953967E+03  0.23881200116E+03  0.32193339929E+03  0.17416714269E+03 0.  0.
         24    2    5    5    0    0  0.24916214629E+02  0.66987394901E-01  0.98154036111E+02  0.12916130287E+03  0.80172346325E+02 0.  0.
          5    1    5    5  501    0 -0.33759989644E+02 -0.12733652707E+03  0.14065796505E+03  0.19277209642E+03  0.47000000000E+01 0. -1.
        -11    1    6    6    0    0 -0.17509250490E+02 -0.17117696563E+02  0.72858391140E+02  0.76863089632E+02  0.00000000000E+00 0.  1.
         12    1    6    6    0    0  0.42425465119E+02  0.17184683958E+02  0.25295644971E+02  0.52298213237E+02  0.00000000000E+00 0. -1.
         -5    1    3    3    0  503  0.39293126757E+02 -0.11553572796E+02  0.24394705229E+02  0.47902259841E+02  0.47000000000E+01 0.  1.
         11    1    4    4    0    0  0.22257507004E+02  0.30479800035E+02 -0.27291339471E+02  0.46575015173E+02  0.00000000000E+00 0. -1.
        -12    1    4    4    0    0 -0.52706858746E+02  0.10834331243E+03 -0.12954607033E+02  0.12117800193E+03  0.00000000000E+00 0.  1.
<mgrwt>
<rscale>  2 0.21568771E+03</rscale>
<asrwt>0</asrwt>
<pdfrwt beam="1">  1       21 0.58503802E-01 0.21589336E+03</pdfrwt>
<pdfrwt beam="2">  1       21 0.24202148E-01 0.21589336E+03</pdfrwt>
<totfact> 0.43566851E+04</totfact>
</mgrwt>
</event>
<event>
12    1  0.1074575E-001  0.2335110E+03  0.7546771E-02  0.1124457E+00
         21   -1    0    0  501  502  0.00000000000E+00  0.00000000000E+00  0.36638644276E+03  0.36638644276E+03  0.00000000000E+00 0. -1.
         21   -1    0    0  502  503 -0.00000000000E+00 -0.00000000000E+00 -0.20977842041E+03  0.20977842041E+03  0.00000000000E+00 0. -1.
         -6    2    1    2    0  503  0.12821165104E+03 -0.85973477536E+02 -0.78396406956E+02  0.24487274822E+03  0.17316754862E+03 0.  0.
        -24    2    3    3    0    0  0.13036237533E+03 -0.49086829887E+02 -0.31888034917E+01  0.16094704293E+03  0.80560017329E+02 0.  0.
          6    2    1    2  501    0 -0.12821165104E+03  0.85973477536E+02  0.23500442931E+03  0.33129211494E+03  0.17520764061E+03 0.  0.
         24    2    5    5    0    0 -0.11477321998E+03  0.55252042778E+02  0.76578610338E+02  0.16928832456E+03  0.81046733518E+02 0.  0.
          5    1    5    5  501    0 -0.13438431056E+02  0.30721434758E+02  0.15842581897E+03  0.16200379038E+03  0.47000000000E+01 0. -1.
        -11    1    6    6    0    0  0.11464116296E+02  0.48164267352E+01 -0.14941915765E+01  0.12524237997E+02  0.00000000000E+00 0.  1.
         12    1    6    6    0    0 -0.12623733628E+03  0.50435616043E+02  0.78072801915E+02  0.15676408656E+03  0.00000000000E+00 0. -1.
         -5    1    3    3    0  503 -0.21507242855E+01 -0.36886647649E+02 -0.75207603465E+02  0.83925705291E+02  0.47000000000E+01 0.  1.
         13    1    4    4    0    0  0.34680994886E+02  0.14925807413E+02  0.21158463347E+02  0.43280846855E+02  0.00000000000E+00 0. -1.
        -14    1    4    4    0    0  0.95681380439E+02 -0.64012637300E+02 -0.24347266838E+02  0.11766619608E+03  0.00000000000E+00 0.  1.
<mgrwt>
<rscale>  2 0.23312835E+03</rscale>
<asrwt>0</asrwt>
<pdfrwt beam="1">  1       21 0.56367145E-01 0.23351099E+03</pdfrwt>
<pdfrwt beam="2">  1       21 0.32273603E-01 0.23351099E+03</pdfrwt>
<totfact> 0.26759714E+04</totfact>
</mgrwt>
</event>
<event>
11    1  0.1074575E-001  0.1922136E+03  0.7546771E-02  0.1158508E+00
         21   -1    0    0  501  502  0.00000000000E+00  0.00000000000E+00  0.59380385760E+03  0.59380385760E+03  0.00000000000E+00 0. -1.
         21   -1    0    0  502  503 -0.00000000000E+00 -0.00000000000E+00 -0.13076301664E+03  0.13076301664E+03  0.00000000000E+00 0. -1.
         -6    2    1    2    0  503 -0.18567482485E+02 -0.53885363765E+02 -0.33642238346E+02  0.19513553945E+03  0.18356931857E+03 0.  0.
          6    2    1    2  501    0  0.18567482485E+02  0.53885363765E+02  0.49668307931E+03  0.52943133479E+03  0.17422707352E+03 0.  0.
         24    2    4    4    0    0  0.45532715877E+02 -0.24998072173E+02  0.31554021161E+03  0.32997069006E+03  0.81344325716E+02 0.  0.
          5    1    4    4  501    0 -0.26965233392E+02  0.78883435939E+02  0.18114286770E+03  0.19946064473E+03  0.47000000000E+01 0. -1.
        -11    1    5    5    0    0  0.17414350379E+02  0.12009910854E+02  0.15183473946E+02  0.26039113635E+02  0.00000000000E+00 0.  1.
         12    1    5    5    0    0  0.28118365498E+02 -0.37007983027E+02  0.30035673767E+03  0.30393157642E+03  0.00000000000E+00 0. -1.
         -5    1    3    3    0  503  0.31372947491E+02  0.74356604266E+01 -0.40251834047E+02  0.51786591165E+02  0.47000000000E+01 0.  1.
         13    1    3    3    0    0 -0.67610862465E+02 -0.11168427757E+02 -0.33945694716E+02  0.76474000102E+02  0.00000000000E+00 0. -1.
        -14    1    3    3    0    0  0.17670432488E+02 -0.50152596435E+02  0.40555290417E+02  0.66874948182E+02  0.00000000000E+00 0.  1.
<mgrwt>
<rscale>  2 0.18994861E+03</rscale>
<asrwt>0</asrwt>
<pdfrwt beam="1">  1       21 0.91354438E-01 0.19221363E+03</pdfrwt>
<pdfrwt beam="2">  1       21 0.20117388E-01 0.19221363E+03</pdfrwt>
<totfact> 0.23177845E+04</totfact>
</mgrwt>
</event>
<event>
12    1  0.1074575E-001  0.1799684E+03  0.7546771E-02  0.1168143E+00
         21   -1    0    0  501  502  0.00000000000E+00  0.00000000000E+00  0.26356370507E+03  0.26356370507E+03  0.00000000000E+00 0.  1.
         21   -1    0    0  502  503 -0.00000000000E+00 -0.00000000000E+00 -0.14507959930E+03  0.14507959930E+03  0.00000000000E+00 0. -1.
         -6    2    1    2    0  503 -0.14182218802E+02 -0.45368139288E+02  0.14088053411E+03  0.22855185400E+03  0.17357771079E+03 0.  0.
        -24    2    3    3    0    0  0.19917950154E+02 -0.76101977690E+01  0.15445965091E+03  0.17568441522E+03  0.80948070643E+02 0.  0.
          6    2    1    2  501    0  0.14182218802E+02  0.45368139288E+02 -0.22396428332E+02  0.18009145037E+03  0.17225541240E+03 0.  0.
         24    2    5    5    0    0 -0.22122318797E+02  0.30456223739E+02  0.47258211611E+02  0.10000247771E+03  0.79688006814E+02 0.  0.
          5    1    5    5  501    0  0.36304537599E+02  0.14911915549E+02 -0.69654639943E+02  0.80088972657E+02  0.47000000000E+01 0. -1.
        -13    1    6    6    0    0  0.52246297250E+01  0.45768077560E+02  0.35274585280E+01  0.46200180118E+02  0.00000000000E+00 0.  1.
         14    1    6    6    0    0 -0.27346948522E+02 -0.15311853821E+02  0.43730753083E+02  0.53802297592E+02  0.00000000000E+00 0. -1.
         -5    1    3    3    0  503 -0.34100168956E+02 -0.37757941519E+02 -0.13579116805E+02  0.52867438786E+02  0.47000000000E+01 0.  1.
         11    1    4    4    0    0  0.37716018536E+02 -0.90343964933E+01  0.27665426424E+02  0.47639208573E+02  0.00000000000E+00 0. -1.
        -12    1    4    4    0    0 -0.17798068382E+02  0.14241987244E+01  0.12679422449E+03  0.12804520664E+03  0.00000000000E+00 0.  1.
<mgrwt>
<rscale>  2 0.17964880E+03</rscale>
<asrwt>0</asrwt>
<pdfrwt beam="1">  1       21 0.40548262E-01 0.17996840E+03</pdfrwt>
<pdfrwt beam="2">  1       21 0.22319938E-01 0.17996840E+03</pdfrwt>
<totfact> 0.11058402E+05</totfact>
</mgrwt>
</event>
<event>
11    1  0.1074575E-001  0.2344902E+03  0.7546771E-02  0.1123848E+00
         21   -1    0    0  503  502  0.00000000000E+00  0.00000000000E+00  0.12445107262E+04  0.12445107262E+04  0.00000000000E+00 0.  1.
         21   -1    0    0  501  503 -0.00000000000E+00 -0.00000000000E+00 -0.51317224325E+02  0.51317224325E+02  0.00000000000E+00 0.  1.
          6    2    1    2  501    0  0.52231067889E+02  0.14916952136E+03  0.84627915495E+03  0.87816515694E+03  0.17322241251E+03 0.  0.
         24    2    3    3    0    0 -0.42331054231E+00  0.15494224434E+02  0.20807826685E+03  0.22397555739E+03  0.81413972953E+02 0.  0.
         -6    2    1    2    0  502 -0.52231067889E+02 -0.14916952136E+03  0.34691434693E+03  0.41766279360E+03  0.17062536298E+03 0.  0.
          5    1    3    3  501    0  0.52654378432E+02  0.13367529693E+03  0.63820088810E+03  0.65418959955E+03  0.47000000000E+01 0. -1.
        -11    1    4    4    0    0  0.16028137566E+02  0.21437452382E+02  0.20434362573E+03  0.20608925964E+03  0.00000000000E+00 0.  1.
         12    1    4    4    0    0 -0.16451448108E+02 -0.59432279472E+01  0.37346411158E+01  0.17886297760E+02  0.00000000000E+00 0. -1.
         -5    1    5    5    0  502 -0.49232441500E+01 -0.11119877755E+03  0.66798445963E+02  0.12989814797E+03  0.47000000000E+01 0.  1.
         11    1    5    5    0    0 -0.29372563410E+02 -0.26277318439E+02  0.22866841522E+03  0.23203984370E+03  0.00000000000E+00 0. -1.
        -12    1    5    5    0    0 -0.17935260329E+02 -0.11693425372E+02  0.51447485750E+02  0.55724801928E+02  0.00000000000E+00 0.  1.
<mgrwt>
<rscale>  2 0.23401071E+03</rscale>
<asrwt>0</asrwt>
<pdfrwt beam="1">  1       21 0.19146317E+00 0.23449016E+03</pdfrwt>
<pdfrwt beam="2">  1       21 0.78949586E-02 0.23449016E+03</pdfrwt>
<totfact> 0.18186375E+04</totfact>
</mgrwt>
</event>
<event>
12    1  0.1074575E-001  0.1855438E+03  0.7546771E-02  0.1165646E+00
         21   -1    0    0  501  502  0.00000000000E+00  0.00000000000E+00  0.96979013241E+01  0.96979013241E+01  0.00000000000E+00 0. -1.
         21   -1    0    0  502  503 -0.00000000000E+00 -0.00000000000E+00 -0.35643586950E+04  0.35643586950E+04  0.00000000000E+00 0. -1.
         -6    2    1    2    0  503 -0.64072207505E+02  0.15839898111E+02 -0.12397201627E+04  0.12516921468E+04  0.15959636091E+03 0.  0.
        -24    2    3    3    0    0 -0.79067697458E+02  0.26587489084E+02 -0.57466723313E+03  0.58636676434E+03  0.81393845730E+02 0.  0.
          6    2    1    2  501    0  0.64072207505E+02 -0.15839898111E+02 -0.23149406310E+04  0.23223644496E+04  0.17340807741E+03 0.  0.
         24    2    5    5    0    0  0.37511167900E+02 -0.11916211215E+02 -0.22313862986E+04  0.22344764492E+04  0.11068470806E+03 0.  0.
          5    1    5    5  501    0  0.26561039605E+02 -0.39236868956E+01 -0.83554332421E+02  0.87888000376E+02  0.47000000000E+01 0. -1.
        -13    1    6    6    0    0  0.15198190839E+02 -0.50382191694E+02 -0.55231213945E+03  0.55481352690E+03  0.00000000000E+00 0.  1.
         14    1    6    6    0    0  0.22312977060E+02  0.38465980479E+02 -0.16790741591E+04  0.16796629223E+04  0.00000000000E+00 0. -1.
         -5    1    3    3    0  503  0.14995489953E+02 -0.10747590973E+02 -0.66505292956E+03  0.66532538246E+03  0.47000000000E+01 0.  1.
         13    1    4    4    0    0 -0.22324013210E+02  0.48006216360E+02 -0.33425726011E+03  0.33842410421E+03  0.00000000000E+00 0. -1.
        -14    1    4    4    0    0 -0.56743684248E+02 -0.21418727276E+02 -0.24040997302E+03  0.24794266012E+03  0.00000000000E+00 0.  1.
<mgrwt>
<rscale>  2 0.18224740E+03</rscale>
<asrwt>0</asrwt>
<pdfrwt beam="1">  1       21 0.14919847E-02 0.18554383E+03</pdfrwt>
<pdfrwt beam="2">  1       21 0.54836294E+00 0.18554383E+03</pdfrwt>
<totfact> 0.16897185E+03</totfact>
</mgrwt>
</event>
<event>
12    1  0.1074575E-001  0.2279842E+03  0.7546771E-02  0.1128407E+00
         21   -1    0    0  501  502  0.00000000000E+00  0.00000000000E+00  0.92381789068E+02  0.92381789068E+02  0.00000000000E+00 0.  1.
         21   -1    0    0  502  503 -0.00000000000E+00 -0.00000000000E+00 -0.61215227641E+03  0.61215227641E+03  0.00000000000E+00 0.  1.
         -6    2    1    2    0  503 -0.12361154219E+03  0.78955140060E+02 -0.36371629058E+03  0.42825574218E+03  0.17204567177E+03 0.  0.
        -24    2    3    3    0    0 -0.13139223233E+03  0.30947410790E+02 -0.33758332818E+03  0.37284542787E+03  0.82641083393E+02 0.  0.
          6    2    1    2  501    0  0.12361154219E+03 -0.78955140060E+02 -0.15605419676E+03  0.27627832330E+03  0.17453673565E+03 0.  0.
         24    2    5    5    0    0  0.16159314551E+03 -0.57922317217E+02 -0.14261693695E+03  0.23058771399E+03  0.57997962285E+02 0.  0.
          5    1    5    5  501    0 -0.37981603323E+02 -0.21032822843E+02 -0.13437259811E+02  0.45690609308E+02  0.47000000000E+01 0. -1.
        -13    1    6    6    0    0  0.68296435198E+02 -0.24385246609E+02 -0.24879046903E+02  0.76668183021E+02  0.00000000000E+00 0.  1.
         14    1    6    6    0    0  0.93296710313E+02 -0.33537070608E+02 -0.11773789005E+03  0.15391953097E+03  0.00000000000E+00 0. -1.
         -5    1    3    3    0  503  0.77806901399E+01  0.48007729270E+02 -0.26132962396E+02  0.55410314314E+02  0.47000000000E+01 0.  1.
         11    1    4    4    0    0 -0.83902180819E+02  0.42093866141E+02 -0.28954945273E+03  0.30438520840E+03  0.00000000000E+00 0. -1.
        -12    1    4    4    0    0 -0.47490051509E+02 -0.11146455352E+02 -0.48033875449E+02  0.68460219470E+02  0.00000000000E+00 0.  1.
<mgrwt>
<rscale>  2 0.22750737E+03</rscale>
<asrwt>0</asrwt>
<pdfrwt beam="1">  1       21 0.14212582E-01 0.22798421E+03</pdfrwt>
<pdfrwt beam="2">  1       21 0.94177277E-01 0.22798421E+03</pdfrwt>
<totfact> 0.40172135E+04</totfact>
</mgrwt>
</event>
<event>
12    1  0.1074575E-001  0.1942443E+03  0.7546771E-02  0.1154958E+00
         21   -1    0    0  503  502  0.00000000000E+00  0.00000000000E+00  0.26950713291E+03  0.26950713291E+03  0.00000000000E+00 0. -1.
         21   -1    0    0  501  503 -0.00000000000E+00 -0.00000000000E+00 -0.14382619689E+03  0.14382619689E+03  0.00000000000E+00 0. -1.
          6    2    1    2  501    0  0.84396711989E+02  0.27132693103E+02  0.10005333550E+03  0.21740574972E+03  0.17145145679E+03 0.  0.
         24    2    3    3    0    0  0.44275271065E+01  0.56994155581E+02  0.20371970272E+02  0.10053835719E+03  0.80156143411E+02 0.  0.
         -6    2    1    2    0  502 -0.84396711989E+02 -0.27132693103E+02  0.25627600521E+02  0.19592758008E+03  0.17283476126E+03 0.  0.
        -24    2    5    5    0    0 -0.70118544576E+02 -0.84584610144E+02  0.23184227742E+02  0.13649148913E+03  0.77596724309E+02 0.  0.
          5    1    3    3  501    0  0.79969184883E+02 -0.29861462478E+02  0.79681365232E+02  0.11686739253E+03  0.47000000000E+01 0. -1.
        -13    1    4    4    0    0 -0.30494450718E+02  0.32725120642E+02  0.33663505313E+02  0.55982824470E+02  0.00000000000E+00 0.  1.
         14    1    4    4    0    0  0.34921977825E+02  0.24269034939E+02 -0.13291535041E+02  0.44555532718E+02  0.00000000000E+00 0. -1.
         -5    1    5    5    0  502 -0.14278167414E+02  0.57451917042E+02  0.24433727795E+01  0.59436090946E+02  0.47000000000E+01 0.  1.
         13    1    6    6    0    0 -0.50306578742E+02 -0.64136430022E+02 -0.20774375611E+02  0.84117823335E+02  0.00000000000E+00 0. -1.
        -14    1    6    6    0    0 -0.19811965833E+02 -0.20448180123E+02  0.43958603353E+02  0.52373665799E+02  0.00000000000E+00 0.  1.
<mgrwt>
<rscale>  2 0.19393610E+03</rscale>
<asrwt>0</asrwt>
<pdfrwt beam="1">  1       21 0.41462636E-01 0.19424429E+03</pdfrwt>
<pdfrwt beam="2">  1       21 0.22127107E-01 0.19424429E+03</pdfrwt>
<totfact> 0.10688640E+05</totfact>
</mgrwt>
</event>
<event>
12    1  0.1074575E-001  0.2288560E+03  0.7546771E-02  0.1127576E+00
         21   -1    0    0  501  502  0.00000000000E+00  0.00000000000E+00  0.16108182141E+04  0.16108182141E+04  0.00000000000E+00 0. -1.
         21   -1    0    0  502  503 -0.00000000000E+00 -0.00000000000E+00 -0.33534573969E+02  0.33534573969E+02  0.00000000000E+00 0. -1.
         -6    2    1    2    0  503  0.22693833334E+02  0.14824441426E+03  0.63700410456E+03  0.67662314479E+03  0.17191054186E+03 0.  0.
        -24    2    3    3    0    0  0.51422990092E+02  0.83057707365E+02  0.22293424069E+03  0.25644388141E+03  0.80751978170E+02 0.  0.
          6    2    1    2  501    0 -0.22693833334E+02 -0.14824441426E+03  0.94027953558E+03  0.96772964329E+03  0.17286885505E+03 0.  0.
         24    2    5    5    0    0  0.41864781815E+02 -0.12219766205E+03  0.52210576227E+03  0.54377487829E+03  0.80073483055E+02 0.  0.
          5    1    5    5  501    0 -0.64558615149E+02 -0.26046752213E+02  0.41817377330E+03  0.42395476501E+03  0.47000000000E+01 0. -1.
        -13    1    6    6    0    0  0.31603179343E+02 -0.41930351410E+02  0.90329500487E+02  0.10448126135E+03  0.00000000000E+00 0.  1.
         14    1    6    6    0    0  0.10261602471E+02 -0.80267310642E+02  0.43177626179E+03  0.43929361694E+03  0.00000000000E+00 0. -1.
         -5    1    3    3    0  503 -0.28729156757E+02  0.65186706900E+02  0.41406986388E+03  0.42017926338E+03  0.47000000000E+01 0.  1.
         13    1    4    4    0    0  0.38550892440E+02  0.51385586961E+02  0.21046928569E+03  0.22005447069E+03  0.00000000000E+00 0. -1.
        -14    1    4    4    0    0  0.12872097652E+02  0.31672120404E+02  0.12464954999E+02  0.36389410712E+02  0.00000000000E+00 0.  1.
<mgrwt>
<rscale>  2 0.22867501E+03</rscale>
<asrwt>0</asrwt>
<pdfrwt beam="1">  1       21 0.24781813E+00 0.22885598E+03</pdfrwt>
<pdfrwt beam="2">  1       21 0.51591665E-02 0.22885598E+03</pdfrwt>
<totfact> 0.16948426E+04</totfact>
</mgrwt>
</event>
<event>
12    1  0.1074575E-001  0.1741205E+03  0.7546771E-02  0.1173667E+00
         21   -1    0    0  501  502  0.00000000000E+00  0.00000000000E+00  0.16735729188E+03  0.16735729188E+03  0.00000000000E+00 0.  1.
         21   -1    0    0  502  503 -0.00000000000E+00 -0.00000000000E+00 -0.22846386010E+03  0.22846386010E+03  0.00000000000E+00 0.  1.
         -6    2    1    2    0  503 -0.18440834143E+02  0.80485464920E+01 -0.12078921737E+03  0.21175604960E+03  0.17275921407E+03 0.  0.
        -24    2    3    3    0    0 -0.36264967338E+02 -0.84441080177E+01 -0.14972083756E+03  0.17369247091E+03  0.79789062127E+02 0.  0.
          6    2    1    2  501    0  0.18440834143E+02 -0.80485464920E+01  0.59682649152E+02  0.18406510237E+03  0.17295403967E+03 0.  0.
         24    2    5    5    0    0  0.76855042246E+02  0.55121163500E+01  0.51542685010E+02  0.12336534701E+03  0.81395820039E+02 0.  0.
          5    1    5    5  501    0 -0.58414208103E+02 -0.13560662842E+02  0.81399641420E+01  0.60699755364E+02  0.47000000000E+01 0. -1.
        -11    1    6    6    0    0  0.51261744173E+02  0.81009265785E+01  0.73205285583E+02  0.89735195238E+02  0.00000000000E+00 0.  1.
         12    1    6    6    0    0  0.25593298073E+02 -0.25888102285E+01 -0.21662600573E+02  0.33630151773E+02  0.00000000000E+00 0. -1.
         -5    1    3    3    0  503  0.17824133195E+02  0.16492654510E+02  0.28931620182E+02  0.38063578698E+02  0.47000000000E+01 0.  1.
         11    1    4    4    0    0 -0.18372692980E+02 -0.18730967934E+02 -0.40277470487E+01  0.26544825359E+02  0.00000000000E+00 0. -1.
        -12    1    4    4    0    0 -0.17892274357E+02  0.10286859916E+02 -0.14569309051E+03  0.14714764555E+03  0.00000000000E+00 0.  1.
<mgrwt>
<rscale>  2 0.17407209E+03</rscale>
<asrwt>0</asrwt>
<pdfrwt beam="1">  1       21 0.25747276E-01 0.17412049E+03</pdfrwt>
<pdfrwt beam="2">  1       21 0.35148286E-01 0.17412049E+03</pdfrwt>
<totfact> 0.11248304E+05</totfact>
</mgrwt>
</event>
<event>
12    1  0.1074575E-001  0.1825363E+03  0.7546771E-02  0.1165522E+00
         21   -1    0    0  503  502  0.00000000000E+00  0.00000000000E+00  0.54192770382E+03  0.54192770382E+03  0.00000000000E+00 0.  1.
         21   -1    0    0  501  503 -0.00000000000E+00 -0.00000000000E+00 -0.61435555052E+02  0.61435555052E+02  0.00000000000E+00 0.  1.
          6    2    1    2  501    0  0.22279445218E+02  0.51797880220E+02  0.22498139069E+03  0.28971733875E+03  0.17360909004E+03 0.  0.
         24    2    3    3    0    0  0.55219595265E+02  0.88246263399E+02  0.17655216238E+03  0.22057243094E+03  0.81516406609E+02 0.  0.
         -6    2    1    2    0  502 -0.22279445218E+02 -0.51797880220E+02  0.25551075808E+03  0.31364592011E+03  0.17294109297E+03 0.  0.
        -24    2    5    5    0    0 -0.65735940555E+02 -0.36132997822E+02  0.89921541568E+02  0.14166995042E+03  0.79735085143E+02 0.  0.
          5    1    3    3  501    0 -0.32940150047E+02 -0.36448383178E+02  0.48429228310E+02  0.69144907811E+02  0.47000000000E+01 0. -1.
        -13    1    4    4    0    0  0.52648540732E+02  0.75530677682E+02  0.76559804920E+02  0.11974203874E+03  0.00000000000E+00 0.  1.
         14    1    4    4    0    0  0.25710545337E+01  0.12715585716E+02  0.99992357459E+02  0.10083039220E+03  0.00000000000E+00 0. -1.
         -5    1    5    5    0  502  0.43456495337E+02 -0.15664882398E+02  0.16558921651E+03  0.17197596969E+03  0.47000000000E+01 0.  1.
         13    1    6    6    0    0 -0.50343601278E+01  0.22502780921E+02  0.31446477403E+02  0.38994882640E+02  0.00000000000E+00 0. -1.
        -14    1    6    6    0    0 -0.60701580428E+02 -0.58635778743E+02  0.58475064166E+02  0.10267506778E+03  0.00000000000E+00 0.  1.
<mgrwt>
<rscale>  2 0.18237732E+03</rscale>
<asrwt>0</asrwt>
<pdfrwt beam="1">  1       21 0.83373489E-01 0.18253633E+03</pdfrwt>
<pdfrwt beam="2">  1       21 0.94516242E-02 0.18253633E+03</pdfrwt>
<totfact> 0.11267548E+05</totfact>
</mgrwt>
</event>
<event>
12    1  0.1074575E-001  0.2007716E+03  0.7546771E-02  0.1149413E+00
         21   -1    0    0  501  502  0.00000000000E+00  0.00000000000E+00  0.79135467943E+03  0.79135467943E+03  0.00000000000E+00 0.  1.
         21   -1    0    0  502  503 -0.00000000000E+00 -0.00000000000E+00 -0.50711179576E+02  0.50711179576E+02  0.00000000000E+00 0. -1.
         -6    2    1    2    0  503  0.83010774982E+02 -0.53281640462E+02  0.39274504877E+03  0.44039114012E+03  0.17310679071E+03 0.  0.
        -24    2    3    3    0    0 -0.14669316644E+02 -0.24441886249E+02  0.10796992924E+03  0.13791454528E+03  0.80934056648E+02 0.  0.
          6    2    1    2  501    0 -0.83010774982E+02  0.53281640462E+02  0.34789845108E+03  0.40167471888E+03  0.17487002474E+03 0.  0.
         24    2    5    5    0    0 -0.63911655484E+02  0.31069443205E+02  0.83412196817E+02  0.13552959537E+03  0.79753787600E+02 0.  0.
          5    1    5    5  501    0 -0.19099119498E+02  0.22212197257E+02  0.26448625426E+03  0.26614512351E+03  0.47000000000E+01 0. -1.
        -11    1    6    6    0    0 -0.38964727935E+02 -0.23734933866E+02  0.45138922746E+02  0.64180366588E+02  0.00000000000E+00 0.  1.
         12    1    6    6    0    0 -0.24946927549E+02  0.54804377070E+02  0.38273274071E+02  0.71349228786E+02  0.00000000000E+00 0. -1.
         -5    1    3    3    0  503  0.97680091627E+02 -0.28839754212E+02  0.28477511953E+03  0.30247659484E+03  0.47000000000E+01 0.  1.
         13    1    4    4    0    0 -0.43860458441E+01 -0.24882192050E+02 -0.39061711071E+01  0.25565974499E+02  0.00000000000E+00 0. -1.
        -14    1    4    4    0    0 -0.10283270800E+02  0.44030580116E+00  0.11187610035E+03  0.11234857078E+03  0.00000000000E+00 0.  1.
<mgrwt>
<rscale>  2 0.20038706E+03</rscale>
<asrwt>0</asrwt>
<pdfrwt beam="1">  1       21 0.12174686E+00 0.20077163E+03</pdfrwt>
<pdfrwt beam="2">  1       21 0.78017205E-02 0.20077163E+03</pdfrwt>
<totfact> 0.63604038E+04</totfact>
</mgrwt>
</event>
<event>
12    1  0.1074575E-001  0.2206942E+03  0.7546771E-02  0.1133672E+00
         21   -1    0    0  501  502  0.00000000000E+00  0.00000000000E+00  0.43536579732E+03  0.43536579732E+03  0.00000000000E+00 0.  1.
         21   -1    0    0  502  503 -0.00000000000E+00 -0.00000000000E+00 -0.61761791283E+03  0.61761791283E+03  0.00000000000E+00 0.  1.
         -6    2    1    2    0  503 -0.57136127754E+02  0.12307784102E+03 -0.56788275868E+03  0.60866746949E+03  0.17196676645E+03 0.  0.
        -24    2    3    3    0    0 -0.40833008942E+02  0.92982797479E+02 -0.55772824077E+03  0.57265764357E+03  0.81011424770E+02 0.  0.
          6    2    1    2  501    0  0.57136127754E+02 -0.12307784102E+03  0.38563064318E+03  0.44431624066E+03  0.17404952373E+03 0.  0.
         24    2    5    5    0    0  0.87934179318E+02 -0.31152933362E+02  0.22551268916E+03  0.25707693435E+03  0.80806262461E+02 0.  0.
          5    1    5    5  501    0 -0.30798051564E+02 -0.91924907654E+02  0.16011795402E+03  0.18723930631E+03  0.47000000000E+01 0. -1.
        -11    1    6    6    0    0  0.26099507181E+02  0.25365730595E+01  0.15579267130E+03  0.15798409701E+03  0.00000000000E+00 0.  1.
         12    1    6    6    0    0  0.61834672137E+02 -0.33689506421E+02  0.69720017864E+02  0.99092837340E+02  0.00000000000E+00 0. -1.
         -5    1    3    3    0  503 -0.16303118813E+02  0.30095043537E+02 -0.10154517913E+02  0.36009825917E+02  0.47000000000E+01 0.  1.
         13    1    4    4    0    0  0.20969337834E+02  0.11913694205E+02 -0.61354902217E+02  0.65924754568E+02  0.00000000000E+00 0. -1.
        -14    1    4    4    0    0 -0.61802346775E+02  0.81069103274E+02 -0.49637333855E+03  0.50673288901E+03  0.00000000000E+00 0.  1.
<mgrwt>
<rscale>  2 0.22028335E+03</rscale>
<asrwt>0</asrwt>
<pdfrwt beam="1">  1       21 0.66979354E-01 0.22069420E+03</pdfrwt>
<pdfrwt beam="2">  1       21 0.95018140E-01 0.22069420E+03</pdfrwt>
<totfact> 0.18440453E+03</totfact>
</mgrwt>
</event>
<event>
12    1  0.1074575E-001  0.2305593E+03  0.7546771E-02  0.1126296E+00
         21   -1    0    0  503  502  0.00000000000E+00  0.00000000000E+00  0.17029138481E+03  0.17029138481E+03  0.00000000000E+00 0. -1.
         21   -1    0    0  501  503 -0.00000000000E+00 -0.00000000000E+00 -0.32391346082E+03  0.32391346082E+03  0.00000000000E+00 0.  1.
          6    2    1    2  501    0  0.81246955583E+02  0.12905603445E+03 -0.12459474971E+03  0.26182548330E+03  0.17254623796E+03 0.  0.
         24    2    3    3    0    0  0.17214287192E+02 -0.47249036302E+01 -0.58848917490E+02  0.99522906406E+02  0.78249328508E+02 0.  0.
         -6    2    1    2    0  502 -0.81246955583E+02 -0.12905603445E+03 -0.29027326299E+02  0.23237936232E+03  0.17291921392E+03 0.  0.
        -24    2    5    5    0    0 -0.75238371392E+02 -0.65920007487E+02 -0.79764072748E+02  0.15102477779E+03  0.80249089025E+02 0.  0.
          5    1    3    3  501    0  0.64032668392E+02  0.13378093808E+03 -0.65745832215E+02  0.16230257690E+03  0.47000000000E+01 0. -1.
        -13    1    4    4    0    0 -0.23893318433E+02  0.18873155085E+02 -0.35231545404E+02  0.46565528453E+02  0.00000000000E+00 0.  1.
         14    1    4    4    0    0  0.41107605625E+02 -0.23598058715E+02 -0.23617372086E+02  0.52957377952E+02  0.00000000000E+00 0. -1.
         -5    1    5    5    0  502 -0.60085841916E+01 -0.63136026959E+02  0.50736746449E+02  0.81354584532E+02  0.47000000000E+01 0.  1.
         11    1    6    6    0    0 -0.28936659356E+02  0.15487731639E+02 -0.32224414657E+02  0.45995793134E+02  0.00000000000E+00 0. -1.
        -12    1    6    6    0    0 -0.46301712036E+02 -0.81407739126E+02 -0.47539658090E+02  0.10502898466E+03  0.00000000000E+00 0.  1.
<mgrwt>
<rscale>  2 0.23048935E+03</rscale>
<asrwt>0</asrwt>
<pdfrwt beam="1">  1       21 0.26198675E-01 0.23055928E+03</pdfrwt>
<pdfrwt beam="2">  1       21 0.49832840E-01 0.23055928E+03</pdfrwt>
<totfact> 0.52220521E+04</totfact>
</mgrwt>
</event>
<event>
12    1  0.1074575E-001  0.1997595E+03  0.7546771E-02  0.1149982E+00
         21   -1    0    0  501  502  0.00000000000E+00  0.00000000000E+00  0.11855673317E+03  0.11855673317E+03  0.00000000000E+00 0. -1.
         21   -1    0    0  502  503 -0.00000000000E+00 -0.00000000000E+00 -0.34198994922E+03  0.34198994922E+03  0.00000000000E+00 0. -1.
         -6    2    1    2    0  503 -0.63936075163E+02  0.78418730494E+02 -0.81964902135E+02  0.21592156640E+03  0.17223982889E+03 0.  0.
        -24    2    3    3    0    0 -0.13857801878E+02 -0.18441005762E+02 -0.87468628670E+01  0.84496252112E+02  0.80814600441E+02 0.  0.
          6    2    1    2  501    0  0.63936075163E+02 -0.78418730494E+02 -0.14146831392E+03  0.24462511598E+03  0.17201989573E+03 0.  0.
         24    2    5    5    0    0 -0.37988863725E+02 -0.39214841825E+02 -0.78745114780E+02  0.11860159530E+03  0.69889825579E+02 0.  0.
          5    1    5    5  501    0  0.10192493889E+03 -0.39203888669E+02 -0.62723199137E+02  0.12602352068E+03  0.47000000000E+01 0. -1.
        -11    1    6    6    0    0 -0.67614738518E+01  0.96663646032E+01 -0.54452390827E+02  0.55715518485E+02  0.00000000000E+00 0.  1.
         12    1    6    6    0    0 -0.31227389873E+02 -0.48881206428E+02 -0.24292723954E+02  0.62886076816E+02  0.00000000000E+00 0. -1.
         -5    1    3    3    0  503 -0.50078273285E+02  0.96859736256E+02 -0.73218039268E+02  0.13142531429E+03  0.47000000000E+01 0.  1.
         11    1    4    4    0    0 -0.34700473916E+02 -0.13468818690E+02 -0.34667123176E+02  0.50865915859E+02  0.00000000000E+00 0. -1.
        -12    1    4    4    0    0  0.20842672039E+02 -0.49721870718E+01  0.25920260309E+02  0.33630336252E+02  0.00000000000E+00 0.  1.
<mgrwt>
<rscale>  2 0.19971213E+03</rscale>
<asrwt>0</asrwt>
<pdfrwt beam="1">  1       21 0.18239497E-01 0.19975955E+03</pdfrwt>
<pdfrwt beam="2">  1       21 0.52613838E-01 0.19975955E+03</pdfrwt>
<totfact> 0.93559367E+04</totfact>
</mgrwt>
</event>
<event>
12    1  0.1074575E-001  0.2167084E+03  0.7546771E-02  0.1136788E+00
         21   -1    0    0  503  502  0.00000000000E+00  0.00000000000E+00  0.39960721571E+02  0.39960721571E+02  0.00000000000E+00 0. -1.
         21   -1    0    0  501  503 -0.00000000000E+00 -0.00000000000E+00 -0.12345597263E+04  0.12345597263E+04  0.00000000000E+00 0.  1.
          6    2    1    2  501    0 -0.15101397146E+02 -0.12493882776E+03 -0.74766781388E+03  0.77782130630E+03  0.17366940357E+03 0.  0.
         24    2    3    3    0    0 -0.50776673586E+02 -0.31056987782E+02 -0.51703347314E+03  0.52622477541E+03  0.77756638522E+02 0.  0.
         -6    2    1    2    0  502  0.15101397146E+02  0.12493882776E+03 -0.44693119086E+03  0.49669914159E+03  0.17642217835E+03 0.  0.
        -24    2    5    5    0    0 -0.21832551242E+02  0.14811811140E+03 -0.38583167823E+03  0.42148852945E+03  0.79817675462E+02 0.  0.
          5    1    3    3  501    0  0.35675276440E+02 -0.93881839976E+02 -0.23063434074E+03  0.25159653089E+03  0.47000000000E+01 0. -1.
        -11    1    4    4    0    0  0.20811489260E+02 -0.30369166095E+01 -0.10737946719E+03  0.10941979219E+03  0.00000000000E+00 0.  1.
         12    1    4    4    0    0 -0.71588162846E+02 -0.28020071173E+02 -0.40965400595E+03  0.41680498322E+03  0.00000000000E+00 0. -1.
         -5    1    5    5    0  502  0.36933948388E+02 -0.23179283646E+02 -0.61099512631E+02  0.75210612135E+02  0.47000000000E+01 0.  1.
         11    1    6    6    0    0  0.30420497260E+02  0.53819853710E+02 -0.13647541329E+03  0.14982497034E+03  0.00000000000E+00 0. -1.
        -12    1    6    6    0    0 -0.52253048502E+02  0.94298257694E+02 -0.24935626494E+03  0.27166355911E+03  0.00000000000E+00 0.  1.
<mgrwt>
<rscale>  2 0.21614750E+03</rscale>
<asrwt>0</asrwt>
<pdfrwt beam="1">  1       21 0.61478030E-02 0.21670844E+03</pdfrwt>
<pdfrwt beam="2">  1       21 0.18993228E+00 0.21670844E+03</pdfrwt>
<totfact> 0.29050681E+04</totfact>
</mgrwt>
</event>
<event>
12    1  0.1074575E-001  0.2089706E+03  0.7546771E-02  0.1142457E+00
         21   -1    0    0  503  502  0.00000000000E+00  0.00000000000E+00  0.28068776307E+03  0.28068776307E+03  0.00000000000E+00 0. -1.
         21   -1    0    0  501  503 -0.00000000000E+00 -0.00000000000E+00 -0.18373116352E+03  0.18373116352E+03  0.00000000000E+00 0. -1.
          6    2    1    2  501    0  0.16150109783E+02  0.11416984259E+03 -0.42823970538E+02  0.21331343448E+03  0.17427894272E+03 0.  0.
         24    2    3    3    0    0  0.31611755482E+02  0.88221216899E+02  0.36230480588E+02  0.12855442372E+03  0.80195423422E+02 0.  0.
         -6    2    1    2    0  502 -0.16150109783E+02 -0.11416984259E+03  0.13978057009E+03  0.25110549212E+03  0.17383837722E+03 0.  0.
        -24    2    5    5    0    0 -0.67240837608E+02 -0.31120020453E+02  0.95053656663E+02  0.14372708548E+03  0.78310226284E+02 0.  0.
          5    1    3    3  501    0 -0.15461645698E+02  0.25948625693E+02 -0.79054451125E+02  0.84759010764E+02  0.47000000000E+01 0. -1.
        -11    1    4    4    0    0 -0.19025703314E+02 -0.24718989528E+01  0.25269791818E+01  0.19351312483E+02  0.00000000000E+00 0.  1.
         12    1    4    4    0    0  0.50637458796E+02  0.90693115852E+02  0.33703501406E+02  0.10920311123E+03  0.00000000000E+00 0. -1.
         -5    1    5    5    0  502  0.51090727825E+02 -0.83049822138E+02  0.44726913423E+02  0.10737840663E+03  0.47000000000E+01 0.  1.
         13    1    6    6    0    0  0.63105703482E+01 -0.33537693653E+02  0.27421705405E+02  0.43778420723E+02  0.00000000000E+00 0. -1.
        -14    1    6    6    0    0 -0.73551407956E+02  0.24176731994E+01  0.67631951258E+02  0.99948664759E+02  0.00000000000E+00 0.  1.
<mgrwt>
<rscale>  2 0.20887876E+03</rscale>
<asrwt>0</asrwt>
<pdfrwt beam="1">  1       21 0.43182733E-01 0.20897064E+03</pdfrwt>
<pdfrwt beam="2">  1       21 0.28266333E-01 0.20897064E+03</pdfrwt>
<totfact> 0.61217454E+04</totfact>
</mgrwt>
</event>
<event>
12    1  0.1074575E-001  0.1836728E+03  0.7546771E-02  0.1165137E+00
         21   -1    0    0  501  502  0.00000000000E+00  0.00000000000E+00  0.80614882168E+03  0.80614882168E+03  0.00000000000E+00 0.  1.
         21   -1    0    0  502  503 -0.00000000000E+00 -0.00000000000E+00 -0.91575741294E+02  0.91575741294E+02  0.00000000000E+00 0.  1.
         -6    2    1    2    0  503  0.39891261652E+02 -0.23595604562E+02  0.25427202511E+02  0.18542447422E+03  0.17772908513E+03 0.  0.
        -24    2    3    3    0    0 -0.14042226922E+02 -0.64894868597E+02  0.45421477335E+02  0.11445750003E+03  0.81417937843E+02 0.  0.
          6    2    1    2  501    0 -0.39891261652E+02  0.23595604562E+02  0.68914587788E+03  0.71230008876E+03  0.17407271510E+03 0.  0.
         24    2    5    5    0    0 -0.60579823369E+02  0.63415240625E+02  0.39519935632E+03  0.41491100433E+03  0.90979132420E+02 0.  0.
          5    1    5    5  501    0  0.20688561718E+02 -0.39819636063E+02  0.29394652156E+03  0.29738908443E+03  0.47000000000E+01 0. -1.
        -13    1    6    6    0    0 -0.82194209211E+02  0.54661424826E+02  0.35468474806E+03  0.36816440607E+03  0.00000000000E+00 0.  1.
         14    1    6    6    0    0  0.21614385842E+02  0.87538157992E+01  0.40514608265E+02  0.46746598263E+02  0.00000000000E+00 0. -1.
         -5    1    3    3    0  503  0.53933488573E+02  0.41299264034E+02 -0.19994274824E+02  0.70966974187E+02  0.47000000000E+01 0.  1.
         13    1    4    4    0    0  0.10749121097E+02 -0.62669453954E+02  0.10640578830E+01  0.63593523903E+02  0.00000000000E+00 0. -1.
        -14    1    4    4    0    0 -0.24791348019E+02 -0.22254146424E+01  0.44357419452E+02  0.50863976126E+02  0.00000000000E+00 0.  1.
<mgrwt>
<rscale>  2 0.18278241E+03</rscale>
<asrwt>0</asrwt>
<pdfrwt beam="1">  1       21 0.12402289E+00 0.18367279E+03</pdfrwt>
<pdfrwt beam="2">  1       21 0.14088576E-01 0.18367279E+03</pdfrwt>
<totfact> 0.21506276E+04</totfact>
</mgrwt>
</event>
<event>
12    1  0.1074575E-001  0.2056440E+03  0.7546771E-02  0.1145149E+00
         21   -1    0    0  501  502  0.00000000000E+00  0.00000000000E+00  0.58034493543E+03  0.58034493543E+03  0.00000000000E+00 0.  1.
         21   -1    0    0  502  503 -0.00000000000E+00 -0.00000000000E+00 -0.50617678006E+03  0.50617678006E+03  0.00000000000E+00 0.  1.
         -6    2    1    2    0  503  0.35144297075E+02 -0.10701448361E+03 -0.46563553867E+03  0.50902446011E+03  0.17205297091E+03 0.  0.
        -24    2    3    3    0    0  0.65724696501E+02 -0.12429172036E+03 -0.31679844953E+03  0.35602696718E+03  0.81398871353E+02 0.  0.
          6    2    1    2  501    0 -0.35144297075E+02  0.10701448361E+03  0.53980369404E+03  0.57749725538E+03  0.17154541835E+03 0.  0.
         24    2    5    5    0    0 -0.30807874399E+02 -0.59935600080E+01  0.30286384952E+03  0.31490974158E+03  0.80352884879E+02 0.  0.
          5    1    5    5  501    0 -0.43364226761E+01  0.11300804362E+03  0.23693984452E+03  0.26258751380E+03  0.47000000000E+01 0. -1.
        -11    1    6    6    0    0 -0.43849055545E+02  0.14475959840E+02  0.94940053306E+02  0.10557417680E+03  0.00000000000E+00 0.  1.
         12    1    6    6    0    0  0.13041181146E+02 -0.20469519848E+02  0.20792379621E+03  0.20933556478E+03  0.00000000000E+00 0. -1.
         -5    1    3    3    0  503 -0.30580399426E+02  0.17277236743E+02 -0.14883708914E+03  0.15299749292E+03  0.47000000000E+01 0.  1.
         13    1    4    4    0    0 -0.10689491965E+02 -0.63784380199E+02 -0.13740592785E+03  0.15186540555E+03  0.00000000000E+00 0. -1.
        -14    1    4    4    0    0  0.76414188466E+02 -0.60507340159E+02 -0.17939252168E+03  0.20416156163E+03  0.00000000000E+00 0.  1.
<mgrwt>
<rscale>  2 0.20553778E+03</rscale>
<asrwt>0</asrwt>
<pdfrwt beam="1">  1       21 0.89283836E-01 0.20564398E+03</pdfrwt>
<pdfrwt beam="2">  1       21 0.77873351E-01 0.20564398E+03</pdfrwt>
<totfact> 0.15452305E+03</totfact>
</mgrwt>
</event>
<event>
12    1  0.1074575E-001  0.2181417E+03  0.7546771E-02  0.1135424E+00
         21   -1    0    0  501  502  0.00000000000E+00  0.00000000000E+00  0.22254837977E+03  0.22254837977E+03  0.00000000000E+00 0. -1.
         21   -1    0    0  502  503 -0.00000000000E+00 -0.00000000000E+00 -0.21320349568E+03  0.21320349568E+03  0.00000000000E+00 0. -1.
         -6    2    1    2    0  503 -0.12740761032E+03  0.37386025091E+02 -0.10890009662E+01  0.21736081122E+03  0.17208754253E+03 0.  0.
        -24    2    3    3    0    0 -0.35579776874E+02  0.90605120080E+00 -0.55517197085E+02  0.10445528424E+03  0.81006208296E+02 0.  0.
          6    2    1    2  501    0  0.12740761032E+03 -0.37386025091E+02  0.10433885050E+02  0.21839106423E+03  0.17307621714E+03 0.  0.
         24    2    5    5    0    0  0.21625468387E+02  0.34521660752E+02  0.10480872257E+02  0.90396263392E+02  0.80013935086E+02 0.  0.
          5    1    5    5  501    0  0.10578214193E+03 -0.71907685843E+02 -0.46987206758E-01  0.12799480084E+03  0.47000000000E+01 0. -1.
        -13    1    6    6    0    0 -0.26124619638E+02 -0.44058978880E+01  0.11253167650E+02  0.28784396287E+02  0.00000000000E+00 0.  1.
         14    1    6    6    0    0  0.47750088025E+02  0.38927558640E+02 -0.77229539302E+00  0.61611867106E+02  0.00000000000E+00 0. -1.
         -5    1    3    3    0  503 -0.91827833441E+02  0.36479973890E+02  0.54428196119E+02  0.11290552698E+03  0.47000000000E+01 0.  1.
         11    1    4    4    0    0 -0.38882029651E+02 -0.34837466606E+02 -0.28110528205E+02  0.59293027458E+02  0.00000000000E+00 0. -1.
        -12    1    4    4    0    0  0.33022527767E+01  0.35743517806E+02 -0.27406668880E+02  0.45162256783E+02  0.00000000000E+00 0.  1.
<mgrwt>
<rscale>  2 0.21794551E+03</rscale>
<asrwt>0</asrwt>
<pdfrwt beam="1">  1       21 0.34238212E-01 0.21814168E+03</pdfrwt>
<pdfrwt beam="2">  1       21 0.32800538E-01 0.21814168E+03</pdfrwt>
<totfact> 0.72742520E+04</totfact>
</mgrwt>
</event>
<event>
12    1  0.1074575E-001  0.2305954E+03  0.7546771E-02  0.1126322E+00
         21   -1    0    0  501  502  0.00000000000E+00  0.00000000000E+00  0.93088638055E+02  0.93088638055E+02  0.00000000000E+00 0. -1.
         21   -1    0    0  502  503 -0.00000000000E+00 -0.00000000000E+00 -0.76081503714E+03  0.76081503714E+03  0.00000000000E+00 0. -1.
         -6    2    1    2    0  503 -0.18942356625E+02 -0.14942531604E+03 -0.54747959941E+03  0.59383917758E+03  0.17385142829E+03 0.  0.
        -24    2    3    3    0    0  0.31570335003E+02 -0.17138896678E+02 -0.22492571720E+03  0.24154054618E+03  0.80373063637E+02 0.  0.
          6    2    1    2  501    0  0.18942356625E+02  0.14942531604E+03 -0.12024679968E+03  0.26006449761E+03  0.17460673565E+03 0.  0.
         24    2    5    5    0    0  0.55833362738E+02  0.98424802617E+02 -0.18927770737E+02  0.14069266539E+03  0.81433159247E+02 0.  0.
          5    1    5    5  501    0 -0.36891006113E+02  0.51000513426E+02 -0.10131902894E+03  0.11937183222E+03  0.47000000000E+01 0. -1.
        -11    1    6    6    0    0  0.57778188355E+02  0.80352472087E+02 -0.45154324394E+02  0.10878304938E+03  0.00000000000E+00 0.  1.
         12    1    6    6    0    0 -0.19448256168E+01  0.18072330530E+02  0.26226553658E+02  0.31909616015E+02  0.00000000000E+00 0. -1.
         -5    1    3    3    0  503 -0.50512691628E+02 -0.13228641936E+03 -0.32255388220E+03  0.35229863140E+03  0.47000000000E+01 0.  1.
         11    1    4    4    0    0  0.22479923026E+02  0.18279624494E+02 -0.18557361625E+03  0.18782188014E+03  0.00000000000E+00 0. -1.
        -12    1    4    4    0    0  0.90904119768E+01 -0.35418521173E+02 -0.39352100956E+02  0.53718666045E+02  0.00000000000E+00 0.  1.
<mgrwt>
<rscale>  2 0.23045244E+03</rscale>
<asrwt>0</asrwt>
<pdfrwt beam="1">  1       21 0.14321329E-01 0.23059543E+03</pdfrwt>
<pdfrwt beam="2">  1       21 0.11704847E+00 0.23059543E+03</pdfrwt>
<totfact> 0.23435075E+04</totfact>
</mgrwt>
</event>
<event>
12    1  0.1074575E-001  0.3815226E+03  0.7546771E-02  0.1050386E+00
         21   -1    0    0  503  502  0.00000000000E+00  0.00000000000E+00  0.44516518761E+03  0.44516518761E+03  0.00000000000E+00 0. -1.
         21   -1    0    0  501  503 -0.00000000000E+00 -0.00000000000E+00 -0.41668083935E+03  0.41668083935E+03  0.00000000000E+00 0.  1.
          6    2    1    2  501    0 -0.26783406125E+03  0.20954470032E+03 -0.18583691297E+03  0.42424676271E+03  0.17264382887E+03 0.  0.
         24    2    3    3    0    0 -0.22083012730E+03  0.10881060988E+03 -0.17303846103E+03  0.31225293629E+03  0.83390007057E+02 0.  0.
         -6    2    1    2    0  502  0.26783406125E+03 -0.20954470032E+03  0.21432126123E+03  0.43759926426E+03  0.17296082583E+03 0.  0.
        -24    2    5    5    0    0  0.24716423402E+03 -0.18707936608E+03  0.23813609746E+03  0.39859709221E+03  0.77987134898E+02 0.  0.
          5    1    3    3  501    0 -0.47003933944E+02  0.10073409044E+03 -0.12798451935E+02  0.11199382642E+03  0.47000000000E+01 0. -1.
        -11    1    4    4    0    0 -0.24479454793E+02 -0.83176545493E+01 -0.56160733869E+00  0.25860055819E+02  0.00000000000E+00 0.  1.
         12    1    4    4    0    0 -0.19635067251E+03  0.11712826442E+03 -0.17247685370E+03  0.28639288047E+03  0.00000000000E+00 0. -1.
         -5    1    5    5    0  502  0.20669827223E+02 -0.22465334236E+02 -0.23814836234E+02  0.39002172050E+02  0.47000000000E+01 0.  1.
         11    1    6    6    0    0  0.51595352923E+02 -0.52358146434E+01  0.49076102589E+02  0.71399986300E+02  0.00000000000E+00 0. -1.
        -12    1    6    6    0    0  0.19556888110E+03 -0.18184355144E+03  0.18905999487E+03  0.32719710591E+03  0.00000000000E+00 0.  1.
<mgrwt>
<rscale>  2 0.38148672E+03</rscale>
<asrwt>0</asrwt>
<pdfrwt beam="1">  1       21 0.68486952E-01 0.38152262E+03</pdfrwt>
<pdfrwt beam="2">  1       21 0.64104744E-01 0.38152262E+03</pdfrwt>
<totfact> 0.39210478E+03</totfact>
</mgrwt>
</event>
<event>
12    1  0.1074575E-001  0.3037551E+03  0.7546771E-02  0.1083380E+00
         21   -1    0    0  503  502  0.00000000000E+00  0.00000000000E+00  0.13601475933E+03  0.13601475933E+03  0.00000000000E+00 0.  1.
         21   -1    0    0  501  503 -0.00000000000E+00 -0.00000000000E+00 -0.69348777695E+03  0.69348777695E+03  0.00000000000E+00 0.  1.
          6    2    1    2  501    0  0.11700654554E+03  0.21952930049E+03 -0.21742048393E+03  0.37354898696E+03  0.17430873001E+03 0.  0.
         24    2    3    3    0    0  0.58895992842E+02  0.18166916534E+03 -0.22185014422E+03  0.30389313251E+03  0.81615720862E+02 0.  0.
         -6    2    1    2    0  502 -0.11700654554E+03 -0.21952930049E+03 -0.34005253369E+03  0.45595354932E+03  0.17428215053E+03 0.  0.
        -24    2    5    5    0    0 -0.49062490499E+02 -0.63604091550E+02 -0.21963556690E+03  0.24750355222E+03  0.81028499173E+02 0.  0.
          5    1    3    3  501    0  0.58110552702E+02  0.37860135153E+02  0.44296602898E+01  0.69655854452E+02  0.47000000000E+01 0. -1.
        -11    1    4    4    0    0  0.59598192653E+02  0.91255085821E+02 -0.16274838338E+03  0.19587361116E+03  0.00000000000E+00 0.  1.
         12    1    4    4    0    0 -0.70219981124E+00  0.90414079516E+02 -0.59101760837E+02  0.10801952135E+03  0.00000000000E+00 0. -1.
         -5    1    5    5    0  502 -0.67944055045E+02 -0.15592520894E+03 -0.12041696679E+03  0.20844999710E+03  0.47000000000E+01 0.  1.
         13    1    6    6    0    0  0.17366988848E+02 -0.17268471388E+01 -0.12867022025E+02  0.21683047722E+02  0.00000000000E+00 0. -1.
        -14    1    6    6    0    0 -0.66429479347E+02 -0.61877244411E+02 -0.20676854488E+03  0.22582050450E+03  0.00000000000E+00 0.  1.
<mgrwt>
<rscale>  2 0.30375132E+03</rscale>
<asrwt>0</asrwt>
<pdfrwt beam="1">  1       21 0.20925348E-01 0.30375513E+03</pdfrwt>
<pdfrwt beam="2">  1       21 0.10669043E+00 0.30375513E+03</pdfrwt>
<totfact> 0.14037501E+04</totfact>
</mgrwt>
</event>
<event>
11    1  0.1074575E-001  0.1902971E+03  0.7546771E-02  0.1158298E+00
         21   -1    0    0  503  502  0.00000000000E+00  0.00000000000E+00  0.23533252292E+02  0.23533252292E+02  0.00000000000E+00 0.  1.
         21   -1    0    0  501  503 -0.00000000000E+00 -0.00000000000E+00 -0.25732816079E+04  0.25732816079E+04  0.00000000000E+00 0.  1.
          6    2    1    2  501    0  0.24449004297E+02  0.76715243071E+02 -0.21005273950E+04  0.21091297569E+04  0.17242393044E+03 0.  0.
         24    2    3    3    0    0  0.25493853279E+02  0.94177553998E+02 -0.20683384782E+04  0.20721941321E+04  0.80281457726E+02 0.  0.
         -6    2    1    2    0  502 -0.24449004297E+02 -0.76715243071E+02 -0.44922096057E+03  0.48768510330E+03  0.17191365923E+03 0.  0.
          5    1    3    3  501    0 -0.10448489816E+01 -0.17462310927E+02 -0.32188916846E+02  0.36935624809E+02  0.47000000000E+01 0. -1.
        -11    1    4    4    0    0  0.33298177549E+02  0.55045486824E+02 -0.17736533087E+04  0.17748196623E+04  0.00000000000E+00 0.  1.
         12    1    4    4    0    0 -0.78043242703E+01  0.39132067174E+02 -0.29468516948E+03  0.29737446977E+03  0.00000000000E+00 0. -1.
         -5    1    5    5    0  502  0.27608464402E+02 -0.18489471276E+02 -0.25116372627E+02  0.41916703456E+02  0.47000000000E+01 0.  1.
         11    1    5    5    0    0 -0.57016381000E+02 -0.79848354243E+02 -0.40428496948E+03  0.41602038883E+03  0.00000000000E+00 0. -1.
        -12    1    5    5    0    0  0.49589123011E+01  0.21622582448E+02 -0.19819618469E+02  0.29748011012E+02  0.00000000000E+00 0.  1.
<mgrwt>
<rscale>  2 0.19018146E+03</rscale>
<asrwt>0</asrwt>
<pdfrwt beam="1">  1       21 0.36205018E-02 0.19029712E+03</pdfrwt>
<pdfrwt beam="2">  1       21 0.39588932E+00 0.19029712E+03</pdfrwt>
<totfact> 0.42912165E+03</totfact>
</mgrwt>
</event>
<event>
12    1  0.1074575E-001  0.2049806E+03  0.7546771E-02  0.1145666E+00
         21   -1    0    0  503  502  0.00000000000E+00  0.00000000000E+00  0.50967174467E+03  0.50967174467E+03  0.00000000000E+00 0.  1.
         21   -1    0    0  501  503 -0.00000000000E+00 -0.00000000000E+00 -0.27100163908E+03  0.27100163908E+03  0.00000000000E+00 0.  1.
          6    2    1    2  501    0  0.56397356097E+02 -0.95309137710E+02 -0.20639578399E+03  0.29067269110E+03  0.17212466468E+03 0.  0.
         24    2    3    3    0    0  0.89233532848E+02 -0.19376777629E+02 -0.13053818400E+03  0.17833212279E+03  0.80150144348E+02 0.  0.
         -6    2    1    2    0  502 -0.56397356097E+02  0.95309137710E+02  0.44506588958E+03  0.49000069265E+03  0.17248924380E+03 0.  0.
        -24    2    5    5    0    0 -0.25278956659E+02  0.99312534847E+01  0.92066017473E+02  0.12546161710E+03  0.80788677089E+02 0.  0.
          5    1    3    3  501    0 -0.32836176752E+02 -0.75932360082E+02 -0.75857599991E+02  0.11234056831E+03  0.47000000000E+01 0. -1.
        -13    1    4    4    0    0  0.43439808881E+02 -0.26130654515E+02 -0.12083372974E+03  0.13103670609E+03  0.00000000000E+00 0.  1.
         14    1    4    4    0    0  0.45793723967E+02  0.67538768866E+01 -0.97044542655E+01  0.47295416695E+02  0.00000000000E+00 0. -1.
         -5    1    5    5    0  502 -0.31118399437E+02  0.85377884225E+02  0.35299987211E+03  0.36453907556E+03  0.47000000000E+01 0.  1.
         11    1    6    6    0    0  0.17980837866E+02 -0.75898057011E+01  0.72103822812E+02  0.74698573916E+02  0.00000000000E+00 0. -1.
        -12    1    6    6    0    0 -0.43259794525E+02  0.17521059186E+02  0.19962194661E+02  0.50763043181E+02  0.00000000000E+00 0.  1.
<mgrwt>
<rscale>  2 0.20490385E+03</rscale>
<asrwt>0</asrwt>
<pdfrwt beam="1">  1       21 0.78411038E-01 0.20498057E+03</pdfrwt>
<pdfrwt beam="2">  1       21 0.41692560E-01 0.20498057E+03</pdfrwt>
<totfact> 0.78993821E+03</totfact>
</mgrwt>
</event>
<event>
12    1  0.1074575E-001  0.1787475E+03  0.7546771E-02  0.1169159E+00
         21   -1    0    0  503  502  0.00000000000E+00  0.00000000000E+00  0.20048947995E+03  0.20048947995E+03  0.00000000000E+00 0. -1.
         21   -1    0    0  501  503 -0.00000000000E+00 -0.00000000000E+00 -0.19457937377E+03  0.19457937377E+03  0.00000000000E+00 0.  1.
          6    2    1    2  501    0  0.27800173067E+02  0.35713296960E+02 -0.81683545728E+02  0.19601281717E+03  0.17233842767E+03 0.  0.
         24    2    3    3    0    0  0.45878194537E+02  0.19379736076E+02 -0.11771636314E+03  0.15226291429E+03  0.82743398615E+02 0.  0.
         -6    2    1    2    0  502 -0.27800173067E+02 -0.35713296960E+02  0.87593651912E+02  0.19905603655E+03  0.17292301359E+03 0.  0.
        -24    2    5    5    0    0 -0.72422881005E+02 -0.89396602506E+01  0.97095873432E+02  0.14594863688E+03  0.80922214193E+02 0.  0.
          5    1    3    3  501    0 -0.18078021469E+02  0.16333560884E+02  0.36032817412E+02  0.43749902880E+02  0.47000000000E+01 0. -1.
        -13    1    4    4    0    0  0.29396394824E+02  0.42674563925E+02 -0.29680347900E+02  0.59717581049E+02  0.00000000000E+00 0.  1.
         14    1    4    4    0    0  0.16481799712E+02 -0.23294827849E+02 -0.88036015240E+02  0.92545333246E+02  0.00000000000E+00 0. -1.
         -5    1    5    5    0  502  0.44622707937E+02 -0.26773636710E+02 -0.95022215206E+01  0.53107399674E+02  0.47000000000E+01 0.  1.
         13    1    6    6    0    0 -0.82812663383E+02 -0.23051702202E+02  0.59724431487E+02  0.10467246967E+03  0.00000000000E+00 0. -1.
        -14    1    6    6    0    0  0.10389782378E+02  0.14112041951E+02  0.37371441946E+02  0.41276167203E+02  0.00000000000E+00 0.  1.
<mgrwt>
<rscale>  2 0.17860593E+03</rscale>
<asrwt>0</asrwt>
<pdfrwt beam="1">  1       21 0.30844536E-01 0.17874747E+03</pdfrwt>
<pdfrwt beam="2">  1       21 0.29935288E-01 0.17874747E+03</pdfrwt>
<totfact> 0.10856747E+05</totfact>
</mgrwt>
</event>
<event>
12    1  0.1074575E-001  0.1803164E+03  0.7546771E-02  0.1168026E+00
         21   -1    0    0  501  502  0.00000000000E+00  0.00000000000E+00  0.28217134718E+03  0.28217134718E+03  0.00000000000E+00 0.  1.
         21   -1    0    0  502  503 -0.00000000000E+00 -0.00000000000E+00 -0.11436955507E+03  0.11436955507E+03  0.00000000000E+00 0.  1.
         -6    2    1    2    0  503 -0.67061106413E+01  0.42489941671E+02  0.97894850667E+02  0.20517647991E+03  0.17511030540E+03 0.  0.
        -24    2    3    3    0    0  0.40136160250E+02  0.52774695194E+02  0.57563795242E+01  0.10119781690E+03  0.76235047239E+02 0.  0.
          6    2    1    2  501    0  0.67061106413E+01 -0.42489941671E+02  0.69906941450E+02  0.19136442234E+03  0.17286698532E+03 0.  0.
         24    2    5    5    0    0 -0.15445198923E+02 -0.96608765938E+02  0.46970787457E+02  0.12837486118E+03  0.68571439264E+02 0.  0.
          5    1    5    5  501    0  0.22151309564E+02  0.54118824267E+02  0.22936153993E+02  0.62989561162E+02  0.47000000000E+01 0. -1.
        -13    1    6    6    0    0  0.14121969970E+02 -0.19244421804E+02  0.38260908746E+02  0.45096285263E+02  0.00000000000E+00 0.  1.
         14    1    6    6    0    0 -0.29567168893E+02 -0.77364344133E+02  0.87098787111E+01  0.83278575917E+02  0.00000000000E+00 0. -1.
         -5    1    3    3    0  503 -0.46842270891E+02 -0.10284753523E+02  0.92138471143E+02  0.10397866301E+03  0.47000000000E+01 0.  1.
         13    1    4    4    0    0  0.48081234718E+02  0.27677517830E+02  0.31983933727E+02  0.64037661902E+02  0.00000000000E+00 0. -1.
        -14    1    4    4    0    0 -0.79450744677E+01  0.25097177364E+02 -0.26227554203E+02  0.37160154997E+02  0.00000000000E+00 0.  1.
<mgrwt>
<rscale>  2 0.17976943E+03</rscale>
<asrwt>0</asrwt>
<pdfrwt beam="1">  1       21 0.43410976E-01 0.18031635E+03</pdfrwt>
<pdfrwt beam="2">  1       21 0.17595316E-01 0.18031635E+03</pdfrwt>
<totfact> 0.14994757E+05</totfact>
</mgrwt>
</event>
<event>
12    1  0.1074575E-001  0.1874808E+03  0.7546771E-02  0.1161059E+00
         21   -1    0    0  501  502  0.00000000000E+00  0.00000000000E+00  0.50005340981E+03  0.50005340981E+03  0.00000000000E+00 0.  1.
         21   -1    0    0  502  503 -0.00000000000E+00 -0.00000000000E+00 -0.15591650538E+03  0.15591650538E+03  0.00000000000E+00 0. -1.
         -6    2    1    2    0  503 -0.71653004615E+02 -0.93085409625E+00 -0.71419820629E+02  0.20062359851E+03  0.17324554234E+03 0.  0.
        -24    2    3    3    0    0 -0.11414268798E+03 -0.91093265993E+01 -0.34079294681E+02  0.14327671121E+03  0.79090357172E+02 0.  0.
          6    2    1    2  501    0  0.71653004615E+02  0.93085409625E+00  0.41555672506E+03  0.45534631668E+03  0.17180761568E+03 0.  0.
         24    2    5    5    0    0 -0.28401517987E+02 -0.20312347196E+01  0.25739171627E+03  0.26810865629E+03  0.69433304907E+02 0.  0.
          5    1    5    5  501    0  0.10005452260E+03  0.29620888158E+01  0.15816500879E+03  0.18723766039E+03  0.47000000000E+01 0. -1.
        -11    1    6    6    0    0  0.18905007819E+02  0.13156669551E+02  0.11537612482E+03  0.11765265595E+03  0.00000000000E+00 0.  1.
         12    1    6    6    0    0 -0.47306525806E+02 -0.15187904270E+02  0.14201559145E+03  0.15045600033E+03  0.00000000000E+00 0. -1.
         -5    1    3    3    0  503  0.42489683368E+02  0.81784725031E+01 -0.37340525948E+02  0.57346887303E+02  0.47000000000E+01 0.  1.
         11    1    4    4    0    0 -0.57419919836E+02  0.31564449745E+02 -0.33240756323E+02  0.73473189414E+02  0.00000000000E+00 0. -1.
        -12    1    4    4    0    0 -0.56722768147E+02 -0.40673776344E+02 -0.83853835773E+00  0.69803521794E+02  0.00000000000E+00 0.  1.
<mgrwt>
<rscale>  2 0.18714790E+03</rscale>
<asrwt>0</asrwt>
<pdfrwt beam="1">  1       21 0.76931293E-01 0.18748077E+03</pdfrwt>
<pdfrwt beam="2">  1       21 0.23987155E-01 0.18748077E+03</pdfrwt>
<totfact> 0.24688012E+04</totfact>
</mgrwt>
</event>
<event>
12    1  0.1074575E-001  0.2031460E+03  0.7546771E-02  0.1149286E+00
         21   -1    0    0  501  502  0.00000000000E+00  0.00000000000E+00  0.42805443403E+02  0.42805443403E+02  0.00000000000E+00 0. -1.
         21   -1    0    0  502  503 -0.00000000000E+00 -0.00000000000E+00 -0.15410147536E+04  0.15410147536E+04  0.00000000000E+00 0. -1.
         -6    2    1    2    0  503 -0.16497858352E+02 -0.85880534423E+02 -0.12647935397E+04  0.12810039005E+04  0.18335934520E+03 0.  0.
        -24    2    3    3    0    0  0.42623530619E+02 -0.10609758160E+03 -0.87709818308E+03  0.88827772721E+03  0.81624969912E+02 0.  0.
          6    2    1    2  501    0  0.16497858352E+02  0.85880534423E+02 -0.23341577046E+03  0.30281629648E+03  0.17195098718E+03 0.  0.
         24    2    5    5    0    0  0.57633951512E+02  0.26168868161E+02 -0.19567343963E+03  0.22093690478E+03  0.80737468950E+02 0.  0.
          5    1    5    5  501    0 -0.41136093160E+02  0.59711666262E+02 -0.37742330837E+02  0.81879391700E+02  0.47000000000E+01 0. -1.
        -13    1    6    6    0    0 -0.44461483544E+01 -0.22946801606E+02 -0.47784716664E+02  0.53194953575E+02  0.00000000000E+00 0.  1.
         14    1    6    6    0    0  0.62080099866E+02  0.49115669767E+02 -0.14788872296E+03  0.16774195121E+03  0.00000000000E+00 0. -1.
         -5    1    3    3    0  503 -0.59121388971E+02  0.20217047179E+02 -0.38769535663E+03  0.39272617329E+03  0.47000000000E+01 0.  1.
         11    1    4    4    0    0  0.14731244934E+02 -0.39497865934E+02 -0.61418147623E+03  0.61562649125E+03  0.00000000000E+00 0. -1.
        -12    1    4    4    0    0  0.27892285685E+02 -0.66599715668E+02 -0.26291670685E+03  0.27265123596E+03  0.00000000000E+00 0.  1.
<mgrwt>
<rscale>  2 0.20053752E+03</rscale>
<asrwt>0</asrwt>
<pdfrwt beam="1">  1       21 0.65854533E-02 0.20314599E+03</pdfrwt>
<pdfrwt beam="2">  1       21 0.23707918E+00 0.20314599E+03</pdfrwt>
<totfact> 0.13204649E+04</totfact>
</mgrwt>
</event>
<event>
12    1  0.1074575E-001  0.1945039E+03  0.7546771E-02  0.1154590E+00
         21   -1    0    0  501  502  0.00000000000E+00  0.00000000000E+00  0.10360069589E+03  0.10360069589E+03  0.00000000000E+00 0. -1.
         21   -1    0    0  502  503 -0.00000000000E+00 -0.00000000000E+00 -0.39492224446E+03  0.39492224446E+03  0.00000000000E+00 0.  1.
         -6    2    1    2    0  503 -0.34406162004E+02 -0.79742613090E+02 -0.76187913629E+02  0.20889318295E+03  0.17403762632E+03 0.  0.
        -24    2    3    3    0    0 -0.16580262092E+02 -0.60107644802E+02  0.27103207452E+02  0.10214843890E+03  0.76235724313E+02 0.  0.
          6    2    1    2  501    0  0.34406162004E+02  0.79742613090E+02 -0.21513363494E+03  0.28962975740E+03  0.17337891211E+03 0.  0.
         24    2    5    5    0    0  0.60326666886E+02  0.11223178841E+03 -0.16840644014E+03  0.22691660233E+03  0.83036945168E+02 0.  0.
          5    1    5    5  501    0 -0.25920504882E+02 -0.32489175318E+02 -0.46727194795E+02  0.62713155076E+02  0.47000000000E+01 0. -1.
        -13    1    6    6    0    0  0.47030280425E+02  0.98880171742E+02 -0.17543883709E+03  0.20680406476E+03  0.00000000000E+00 0.  1.
         14    1    6    6    0    0  0.13296386460E+02  0.13351616666E+02  0.70323969498E+01  0.20112537566E+02  0.00000000000E+00 0. -1.
         -5    1    3    3    0  503 -0.17825899912E+02 -0.19634968288E+02 -0.10329112108E+03  0.10674474405E+03  0.47000000000E+01 0.  1.
         13    1    4    4    0    0 -0.47009761501E+02 -0.36922645402E+02  0.21285466396E+02  0.63452899852E+02  0.00000000000E+00 0. -1.
        -14    1    4    4    0    0  0.30429499410E+02 -0.23184999400E+02  0.58177410566E+01  0.38695539051E+02  0.00000000000E+00 0.  1.
<mgrwt>
<rscale>  2 0.19435643E+03</rscale>
<asrwt>0</asrwt>
<pdfrwt beam="1">  1       21 0.15938569E-01 0.19450389E+03</pdfrwt>
<pdfrwt beam="2">  1       21 0.60757268E-01 0.19450389E+03</pdfrwt>
<totfact> 0.88503998E+04</totfact>
</mgrwt>
</event>
<event>
12    1  0.1074575E-001  0.3194016E+03  0.7546771E-02  0.1076005E+00
         21   -1    0    0  501  502  0.00000000000E+00  0.00000000000E+00  0.99161793530E+02  0.99161793530E+02  0.00000000000E+00 0.  1.
         21   -1    0    0  502  503 -0.00000000000E+00 -0.00000000000E+00 -0.10277063098E+04  0.10277063098E+04  0.00000000000E+00 0. -1.
         -6    2    1    2    0  503 -0.24653306985E+03 -0.10447960325E+03 -0.44512731572E+03  0.54746362996E+03  0.17286861167E+03 0.  0.
        -24    2    3    3    0    0 -0.15642917994E+03 -0.99451489102E+02 -0.39436130398E+03  0.44381387909E+03  0.84197590059E+02 0.  0.
          6    2    1    2  501    0  0.24653306985E+03  0.10447960325E+03 -0.48341720053E+03  0.57940447336E+03  0.17413446515E+03 0.  0.
         24    2    5    5    0    0  0.20259272798E+03  0.12296276677E+03 -0.46486205957E+03  0.52803556999E+03  0.81001069795E+02 0.  0.
          5    1    5    5  501    0  0.43940341862E+02 -0.18483163518E+02 -0.18555140959E+02  0.51368903362E+02  0.47000000000E+01 0. -1.
        -13    1    6    6    0    0  0.18023327129E+03  0.98803340581E+02 -0.44344481063E+03  0.48876316582E+03  0.00000000000E+00 0.  1.
         14    1    6    6    0    0  0.22359456696E+02  0.24159426184E+02 -0.21417248940E+02  0.39272404172E+02  0.00000000000E+00 0. -1.
         -5    1    3    3    0  503 -0.90103889901E+02 -0.50281141448E+01 -0.50766011745E+02  0.10364975087E+03  0.47000000000E+01 0.  1.
         13    1    4    4    0    0 -0.14182011721E+03 -0.49078716554E+02 -0.31118796028E+03  0.34548460557E+03  0.00000000000E+00 0. -1.
        -14    1    4    4    0    0 -0.14609062738E+02 -0.50372772548E+02 -0.83173343698E+02  0.98329273516E+02  0.00000000000E+00 0.  1.
<mgrwt>
<rscale>  2 0.31922933E+03</rscale>
<asrwt>0</asrwt>
<pdfrwt beam="1">  1       21 0.15255660E-01 0.31940156E+03</pdfrwt>
<pdfrwt beam="2">  1       21 0.15810867E+00 0.31940156E+03</pdfrwt>
<totfact> 0.91475176E+03</totfact>
</mgrwt>
</event>
<event>
12    1  0.1074575E-001  0.1750610E+03  0.7546771E-02  0.1172843E+00
         21   -1    0    0  503  502  0.00000000000E+00  0.00000000000E+00  0.65432837803E+03  0.65432837803E+03  0.00000000000E+00 0. -1.
         21   -1    0    0  501  503 -0.00000000000E+00 -0.00000000000E+00 -0.19257853117E+03  0.19257853117E+03  0.00000000000E+00 0. -1.
          6    2    1    2  501    0  0.29083779656E+02 -0.24955336553E+00 -0.13784434514E+03  0.22227937278E+03  0.17193349749E+03 0.  0.
         24    2    3    3    0    0 -0.30235841594E+02  0.18128266301E+02 -0.19002221683E+02  0.88107460554E+02  0.78479296763E+02 0.  0.
         -6    2    1    2    0  502 -0.29083779656E+02  0.24955336553E+00  0.59959419200E+03  0.62462753643E+03  0.17262802690E+03 0.  0.
        -24    2    5    5    0    0  0.13592442374E+02 -0.28909134998E+02  0.53429982349E+03  0.54121930187E+03  0.80134504163E+02 0.  0.
          5    1    3    3  501    0  0.59319621250E+02 -0.18377819666E+02 -0.11884212346E+03  0.13417191222E+03  0.47000000000E+01 0. -1.
        -11    1    4    4    0    0 -0.13761928574E+02  0.39118670134E+02 -0.37281637424E+02  0.55763621835E+02  0.00000000000E+00 0.  1.
         12    1    4    4    0    0 -0.16473913019E+02 -0.20990403833E+02  0.18279415741E+02  0.32343838719E+02  0.00000000000E+00 0. -1.
         -5    1    5    5    0  502 -0.42676222030E+02  0.29158688363E+02  0.65294368509E+02  0.83408234562E+02  0.47000000000E+01 0.  1.
         11    1    6    6    0    0 -0.31993458207E+02 -0.24480333953E+02  0.23257988035E+03  0.23604293860E+03  0.00000000000E+00 0. -1.
        -12    1    6    6    0    0  0.45585900580E+02 -0.44288010450E+01  0.30171994314E+03  0.30517636327E+03  0.00000000000E+00 0.  1.
<mgrwt>
<rscale>  2 0.17488957E+03</rscale>
<asrwt>0</asrwt>
<pdfrwt beam="1">  1       21 0.10066590E+00 0.17506103E+03</pdfrwt>
<pdfrwt beam="2">  1       21 0.29627467E-01 0.17506103E+03</pdfrwt>
<totfact> 0.89384431E+03</totfact>
</mgrwt>
</event>
<event>
12    1  0.1074575E-001  0.2033151E+03  0.7546771E-02  0.1149220E+00
         21   -1    0    0  501  502  0.00000000000E+00  0.00000000000E+00  0.69581964339E+03  0.69581964339E+03  0.00000000000E+00 0.  1.
         21   -1    0    0  502  503 -0.00000000000E+00 -0.00000000000E+00 -0.61275297589E+03  0.61275297589E+03  0.00000000000E+00 0. -1.
         -6    2    1    2    0  503 -0.84769805082E+02  0.13650675151E+02 -0.58181675200E+03  0.61631791851E+03  0.18429536888E+03 0.  0.
        -24    2    3    3    0    0 -0.35596762194E+02 -0.65373649999E+02 -0.33806204923E+03  0.35535570433E+03  0.80317394594E+02 0.  0.
          6    2    1    2  501    0  0.84769805082E+02 -0.13650675151E+02  0.66488341950E+03  0.69225470076E+03  0.17255245122E+03 0.  0.
         24    2    5    5    0    0  0.11199853785E+03 -0.47631989587E+02  0.55581963995E+03  0.57472542089E+03  0.81002211989E+02 0.  0.
          5    1    5    5  501    0 -0.27228732769E+02  0.33981314436E+02  0.10906377955E+03  0.11752927987E+03  0.47000000000E+01 0. -1.
        -13    1    6    6    0    0  0.11289691293E+03 -0.33544675106E+02  0.36824549754E+03  0.38662087972E+03  0.00000000000E+00 0.  1.
         14    1    6    6    0    0 -0.89837507764E+00 -0.14087314481E+02  0.18757414241E+03  0.18810454116E+03  0.00000000000E+00 0. -1.
         -5    1    3    3    0  503 -0.49173042888E+02  0.79024325150E+02 -0.24375470277E+03  0.26096221419E+03  0.47000000000E+01 0.  1.
         11    1    4    4    0    0 -0.27262084864E+01 -0.57539663318E+02 -0.29523903288E+03  0.30080613625E+03  0.00000000000E+00 0. -1.
        -12    1    4    4    0    0 -0.32870553708E+02 -0.78339866811E+01 -0.42823016351E+02  0.54549568081E+02  0.00000000000E+00 0.  1.
<mgrwt>
<rscale>  2 0.20061674E+03</rscale>
<asrwt>0</asrwt>
<pdfrwt beam="1">  1       21 0.10704918E+00 0.20331513E+03</pdfrwt>
<pdfrwt beam="2">  1       21 0.94269688E-01 0.20331513E+03</pdfrwt>
<totfact> 0.65042916E+02</totfact>
</mgrwt>
</event>
<event>
12    1  0.1074575E-001  0.2096752E+03  0.7546771E-02  0.1142091E+00
         21   -1    0    0  501  502  0.00000000000E+00  0.00000000000E+00  0.31981116477E+03  0.31981116477E+03  0.00000000000E+00 0. -1.
         21   -1    0    0  502  503 -0.00000000000E+00 -0.00000000000E+00 -0.14078666567E+03  0.14078666567E+03  0.00000000000E+00 0.  1.
         -6    2    1    2    0  503 -0.11450667547E+03 -0.19652287217E+02  0.50025177028E+02  0.21556022321E+03  0.17454426479E+03 0.  0.
        -24    2    3    3    0    0 -0.68572506549E+02  0.30283835930E+02 -0.26942332545E+02  0.11284872531E+03  0.79935262238E+02 0.  0.
          6    2    1    2  501    0  0.11450667547E+03  0.19652287217E+02  0.12899932207E+03  0.24503760724E+03  0.17292950224E+03 0.  0.
         24    2    5    5    0    0 -0.21282644633E+01 -0.12292767235E+02  0.74918576704E+02  0.11248191050E+03  0.82968339854E+02 0.  0.
          5    1    5    5  501    0  0.11663493994E+03  0.31945054452E+02  0.54080745369E+02  0.13255569674E+03  0.47000000000E+01 0. -1.
        -13    1    6    6    0    0 -0.25548358874E+02  0.65832691489E+00  0.81085807778E+02  0.85017999615E+02  0.00000000000E+00 0.  1.
         14    1    6    6    0    0  0.23420094411E+02 -0.12951094150E+02 -0.61672310739E+01  0.27463910884E+02  0.00000000000E+00 0. -1.
         -5    1    3    3    0  503 -0.45934168924E+02 -0.49936123147E+02  0.76967509573E+02  0.10271149789E+03  0.47000000000E+01 0.  1.
         11    1    4    4    0    0 -0.21523687812E+02  0.11885384427E+02 -0.51207994635E+02  0.56804843232E+02  0.00000000000E+00 0. -1.
        -12    1    4    4    0    0 -0.47048818737E+02  0.18398451503E+02  0.24265662090E+02  0.56043882083E+02  0.00000000000E+00 0.  1.
<mgrwt>
<rscale>  2 0.20933882E+03</rscale>
<asrwt>0</asrwt>
<pdfrwt beam="1">  1       21 0.49201718E-01 0.20967520E+03</pdfrwt>
<pdfrwt beam="2">  1       21 0.21659487E-01 0.20967520E+03</pdfrwt>
<totfact> 0.77754574E+04</totfact>
</mgrwt>
</event>
<event>
12    1  0.1074575E-001  0.2546356E+03  0.7546771E-02  0.1110483E+00
         21   -1    0    0  501  502  0.00000000000E+00  0.00000000000E+00  0.14821905968E+03  0.14821905968E+03  0.00000000000E+00 0.  1.
         21   -1    0    0  502  503 -0.00000000000E+00 -0.00000000000E+00 -0.53891788308E+03  0.53891788308E+03  0.00000000000E+00 0.  1.
         -6    2    1    2    0  503 -0.17487553347E+03 -0.64507998102E+02 -0.34517081861E+03  0.42893143483E+03  0.17348356619E+03 0.  0.
        -24    2    3    3    0    0 -0.82932739478E+02 -0.84341702190E+02 -0.12597475234E+03  0.19036098684E+03  0.79851769407E+02 0.  0.
          6    2    1    2  501    0  0.17487553347E+03  0.64507998102E+02 -0.45528004787E+02  0.25820550794E+03  0.17278469575E+03 0.  0.
         24    2    5    5    0    0  0.18709798648E+03  0.92086433745E+02 -0.40598672487E+02  0.22728065083E+03  0.80763074555E+02 0.  0.
          5    1    5    5  501    0 -0.12222453010E+02 -0.27578435643E+02 -0.49293323003E+01  0.30924857106E+02  0.47000000000E+01 0. -1.
        -11    1    6    6    0    0  0.86548390188E+02  0.10731387076E+02  0.11252882274E+02  0.87934145087E+02  0.00000000000E+00 0.  1.
         12    1    6    6    0    0  0.10054959629E+03  0.81355046669E+02 -0.51851554761E+02  0.13934650574E+03  0.00000000000E+00 0. -1.
         -5    1    3    3    0  503 -0.91942793988E+02  0.19833704087E+02 -0.21919606627E+03  0.23857044799E+03  0.47000000000E+01 0.  1.
         13    1    4    4    0    0 -0.26865430052E+01 -0.52925436125E+02 -0.69210459572E+02  0.87168842006E+02  0.00000000000E+00 0. -1.
        -14    1    4    4    0    0 -0.80246196473E+02 -0.31416266064E+02 -0.56764292767E+02  0.10319214483E+03  0.00000000000E+00 0.  1.
<mgrwt>
<rscale>  2 0.25451660E+03</rscale>
<asrwt>0</asrwt>
<pdfrwt beam="1">  1       21 0.22802932E-01 0.25463559E+03</pdfrwt>
<pdfrwt beam="2">  1       21 0.82910444E-01 0.25463559E+03</pdfrwt>
<totfact> 0.22129722E+04</totfact>
</mgrwt>
</event>
<event>
12    1  0.1074575E-001  0.2020513E+03  0.7546771E-02  0.1148423E+00
         21   -1    0    0  503  502  0.00000000000E+00  0.00000000000E+00  0.27424969501E+04  0.27424969501E+04  0.00000000000E+00 0. -1.
         21   -1    0    0  501  503 -0.00000000000E+00 -0.00000000000E+00 -0.16480321785E+02  0.16480321785E+02  0.00000000000E+00 0. -1.
          6    2    1    2  501    0  0.76028798703E+02 -0.71380813363E+02  0.92113648640E+03  0.94303613969E+03  0.17305818512E+03 0.  0.
         24    2    3    3    0    0  0.47497509052E+02 -0.10399567206E+03  0.82311886691E+03  0.83576402203E+03  0.88914106206E+02 0.  0.
         -6    2    1    2    0  502 -0.76028798703E+02  0.71380813363E+02  0.18048801419E+04  0.18159411322E+04  0.17080477209E+03 0.  0.
        -24    2    5    5    0    0 -0.96667698379E+02  0.10294776742E+03  0.14359199645E+04  0.14450285559E+04  0.79363064842E+02 0.  0.
          5    1    3    3  501    0  0.28531289651E+02  0.32614858700E+02  0.98017619491E+02  0.10727211766E+03  0.47000000000E+01 0. -1.
        -13    1    4    4    0    0 -0.82906831324E+01  0.78414234797E+01  0.20406732907E+02  0.23380720625E+02  0.00000000000E+00 0.  1.
         14    1    4    4    0    0  0.55788192185E+02 -0.11183709554E+03  0.80271213400E+03  0.81238330140E+03  0.00000000000E+00 0. -1.
         -5    1    5    5    0  502  0.20638899677E+02 -0.31566954059E+02  0.36896017736E+03  0.37091257628E+03  0.47000000000E+01 0.  1.
         11    1    6    6    0    0 -0.61781446052E+02  0.46869704028E+02  0.10967572782E+04  0.10994954495E+04  0.00000000000E+00 0. -1.
        -12    1    6    6    0    0 -0.34886252327E+02  0.56078063393E+02  0.33916268633E+03  0.34553310637E+03  0.00000000000E+00 0.  1.
<mgrwt>
<rscale>  2 0.20156791E+03</rscale>
<asrwt>0</asrwt>
<pdfrwt beam="1">  1       21 0.42192225E+00 0.20205132E+03</pdfrwt>
<pdfrwt beam="2">  1       21 0.25354363E-02 0.20205132E+03</pdfrwt>
<totfact> 0.52255067E+03</totfact>
</mgrwt>
</event>
<event>
12    1  0.1074575E-001  0.1918767E+03  0.7546771E-02  0.1156855E+00
         21   -1    0    0  501  502  0.00000000000E+00  0.00000000000E+00  0.10388554888E+03  0.10388554888E+03  0.00000000000E+00 0.  1.
         21   -1    0    0  502  503 -0.00000000000E+00 -0.00000000000E+00 -0.35777328016E+03  0.35777328016E+03  0.00000000000E+00 0.  1.
         -6    2    1    2    0  503  0.49534335150E+02 -0.66145218108E+02 -0.10240888890E+03  0.21719508696E+03  0.17279260701E+03 0.  0.
        -24    2    3    3    0    0 -0.17641370222E+02 -0.46685562383E+02 -0.21932653692E+01  0.94898256284E+02  0.80685246201E+02 0.  0.
          6    2    1    2  501    0 -0.49534335150E+02  0.66145218108E+02 -0.15147884237E+03  0.24446374208E+03  0.17316997797E+03 0.  0.
         24    2    5    5    0    0 -0.71825064754E+01  0.99257982562E+02 -0.67847618269E+02  0.14493282122E+03  0.80613199055E+02 0.  0.
          5    1    5    5  501    0 -0.42351828675E+02 -0.33112764454E+02 -0.83631224101E+02  0.99530920857E+02  0.47000000000E+01 0. -1.
        -11    1    6    6    0    0  0.30424304636E+02  0.51840808887E+02 -0.94785854594E+01  0.60851880505E+02  0.00000000000E+00 0.  1.
         12    1    6    6    0    0 -0.37606811111E+02  0.47417173675E+02 -0.58369032809E+02  0.84080940720E+02  0.00000000000E+00 0. -1.
         -5    1    3    3    0  503  0.67175705372E+02 -0.19459655726E+02 -0.10021562353E+03  0.12229683068E+03  0.47000000000E+01 0.  1.
         13    1    4    4    0    0 -0.15471657533E+02 -0.39244058476E+02 -0.38900094075E+02  0.57381927743E+02  0.00000000000E+00 0. -1.
        -14    1    4    4    0    0 -0.21697126890E+01 -0.74415039063E+01  0.36706828706E+02  0.37516328541E+02  0.00000000000E+00 0.  1.
<mgrwt>
<rscale>  2 0.19179155E+03</rscale>
<asrwt>0</asrwt>
<pdfrwt beam="1">  1       21 0.15982392E-01 0.19187674E+03</pdfrwt>
<pdfrwt beam="2">  1       21 0.55042043E-01 0.19187674E+03</pdfrwt>
<totfact> 0.10884005E+05</totfact>
</mgrwt>
</event>
<event>
12    1  0.1074575E-001  0.2243921E+03  0.7546771E-02  0.1130929E+00
         21   -1    0    0  503  502  0.00000000000E+00  0.00000000000E+00  0.48255977271E+03  0.48255977271E+03  0.00000000000E+00 0. -1.
         21   -1    0    0  501  503 -0.00000000000E+00 -0.00000000000E+00 -0.11920250302E+03  0.11920250302E+03  0.00000000000E+00 0. -1.
          6    2    1    2  501    0 -0.79096117490E+02 -0.11573358019E+03  0.72398011116E+02  0.23432642257E+03  0.17325398383E+03 0.  0.
         24    2    3    3    0    0  0.97823975073E+01 -0.88940298552E+01  0.42005431838E+02  0.91989221458E+02  0.80763614904E+02 0.  0.
         -6    2    1    2    0  502  0.79096117490E+02  0.11573358019E+03  0.29095925857E+03  0.36743585316E+03  0.17521803176E+03 0.  0.
        -24    2    5    5    0    0  0.15658053761E+01  0.72018330772E+02  0.24814440887E+03  0.26855626132E+03  0.73196489852E+02 0.  0.
          5    1    3    3  501    0 -0.88878514997E+02 -0.10683955034E+03  0.30392579278E+02  0.14233720111E+03  0.47000000000E+01 0. -1.
        -13    1    4    4    0    0  0.90849270243E+01 -0.13043286748E+02 -0.22388825874E+02  0.27457653801E+02  0.00000000000E+00 0.  1.
         14    1    4    4    0    0  0.69747048297E+00  0.41492568928E+01  0.64394257713E+02  0.64531567657E+02  0.00000000000E+00 0. -1.
         -5    1    5    5    0  502  0.77530312114E+02  0.43715249420E+02  0.42814849703E+02  0.98879591845E+02  0.47000000000E+01 0.  1.
         11    1    6    6    0    0 -0.28568890071E+02  0.14029022184E+02  0.12679197081E+03  0.13072566238E+03  0.00000000000E+00 0. -1.
        -12    1    6    6    0    0  0.30134695447E+02  0.57989308588E+02  0.12135243805E+03  0.13783059893E+03  0.00000000000E+00 0.  1.
<mgrwt>
<rscale>  2 0.22400856E+03</rscale>
<asrwt>0</asrwt>
<pdfrwt beam="1">  1       21 0.74239964E-01 0.22439210E+03</pdfrwt>
<pdfrwt beam="2">  1       21 0.18338847E-01 0.22439210E+03</pdfrwt>
<totfact> 0.43428646E+04</totfact>
</mgrwt>
</event>
<event>
12    1  0.1074575E-001  0.2906045E+03  0.7546771E-02  0.1090051E+00
         21   -1    0    0  503  502  0.00000000000E+00  0.00000000000E+00  0.23528976536E+03  0.23528976536E+03  0.00000000000E+00 0. -1.
         21   -1    0    0  501  503 -0.00000000000E+00 -0.00000000000E+00 -0.36367520422E+03  0.36367520422E+03  0.00000000000E+00 0.  1.
          6    2    1    2  501    0 -0.20566690555E+03  0.11019747521E+03 -0.98977375310E+02  0.30687625645E+03  0.17301490215E+03 0.  0.
         24    2    3    3    0    0 -0.19877210441E+03  0.12139897877E+03 -0.43840962415E+02  0.24999808847E+03  0.79554715234E+02 0.  0.
         -6    2    1    2    0  502  0.20566690555E+03 -0.11019747521E+03 -0.29408063556E+02  0.29208871314E+03  0.17322997015E+03 0.  0.
        -24    2    5    5    0    0  0.49172219032E+02 -0.67688383474E+02  0.27456266668E+02  0.12017812056E+03  0.81788200247E+02 0.  0.
          5    1    3    3  501    0 -0.68948011389E+01 -0.11201503565E+02 -0.55136412895E+02  0.56878167972E+02  0.47000000000E+01 0. -1.
        -13    1    4    4    0    0 -0.11638043130E+03  0.44694382724E+02 -0.56204315703E+02  0.13675129886E+03  0.00000000000E+00 0.  1.
         14    1    4    4    0    0 -0.82391673111E+02  0.76704596047E+02  0.12363353288E+02  0.11324678961E+03  0.00000000000E+00 0. -1.
         -5    1    5    5    0  502  0.15649468652E+03 -0.42509091732E+02 -0.56864330224E+02  0.17191059258E+03  0.47000000000E+01 0.  1.
         11    1    6    6    0    0  0.39114791193E+01  0.73140960704E+01  0.31411419125E+02  0.32488042749E+02  0.00000000000E+00 0. -1.
        -12    1    6    6    0    0  0.45260739913E+02 -0.75002479544E+02 -0.39551524570E+01  0.87690077809E+02  0.00000000000E+00 0.  1.
<mgrwt>
<rscale>  2 0.29057247E+03</rscale>
<asrwt>0</asrwt>
<pdfrwt beam="1">  1       21 0.36198426E-01 0.29060451E+03</pdfrwt>
<pdfrwt beam="2">  1       21 0.55950031E-01 0.29060451E+03</pdfrwt>
<totfact> 0.21086383E+04</totfact>
</mgrwt>
</event>
<event>
12    1  0.1074575E-001  0.2040958E+03  0.7546771E-02  0.1146432E+00
         21   -1    0    0  503  502  0.00000000000E+00  0.00000000000E+00  0.34895155336E+03  0.34895155336E+03  0.00000000000E+00 0.  1.
         21   -1    0    0  501  503 -0.00000000000E+00 -0.00000000000E+00 -0.12163111265E+03  0.12163111265E+03  0.00000000000E+00 0. -1.
          6    2    1    2  501    0 -0.77407002692E+02  0.75325616794E+02  0.14788648137E+03  0.25204269310E+03  0.17317423353E+03 0.  0.
         24    2    3    3    0    0 -0.49194893369E+02 -0.21348246008E+02  0.99308104269E+02  0.14013332091E+03  0.83062403735E+02 0.  0.
         -6    2    1    2    0  502  0.77407002692E+02 -0.75325616794E+02  0.79433959339E+02  0.21853997292E+03  0.17258091799E+03 0.  0.
        -24    2    5    5    0    0 -0.12940891288E+02 -0.29978300155E+02 -0.52341194382E+01  0.86593413142E+02  0.80030357027E+02 0.  0.
          5    1    3    3  501    0 -0.28212109323E+02  0.96673862802E+02  0.48578377102E+02  0.11190937219E+03  0.47000000000E+01 0. -1.
        -11    1    4    4    0    0  0.55071079135E+01 -0.15043063512E+02 -0.91854872905E+01  0.18466054645E+02  0.00000000000E+00 0.  1.
         12    1    4    4    0    0 -0.54702001282E+02 -0.63051824960E+01  0.10849359156E+03  0.12166726626E+03  0.00000000000E+00 0. -1.
         -5    1    5    5    0  502  0.90347893979E+02 -0.45347316640E+02  0.84668078777E+02  0.13194655978E+03  0.47000000000E+01 0.  1.
         11    1    6    6    0    0 -0.24065403720E+02  0.69637966893E+01  0.26625066944E+02  0.36558614721E+02  0.00000000000E+00 0. -1.
        -12    1    6    6    0    0  0.11124512432E+02 -0.36942096844E+02 -0.31859186383E+02  0.50034798421E+02  0.00000000000E+00 0.  1.
<mgrwt>
<rscale>  2 0.20396992E+03</rscale>
<asrwt>0</asrwt>
<pdfrwt beam="1">  1       21 0.53684854E-01 0.20409583E+03</pdfrwt>
<pdfrwt beam="2">  1       21 0.18712479E-01 0.20409583E+03</pdfrwt>
<totfact> 0.85355188E+04</totfact>
</mgrwt>
</event>
<event>
12    1  0.1074575E-001  0.1963018E+03  0.7546771E-02  0.1153590E+00
         21   -1    0    0  503  502  0.00000000000E+00  0.00000000000E+00  0.17023234194E+03  0.17023234194E+03  0.00000000000E+00 0. -1.
         21   -1    0    0  501  503 -0.00000000000E+00 -0.00000000000E+00 -0.48501638398E+03  0.48501638398E+03  0.00000000000E+00 0. -1.
          6    2    1    2  501    0 -0.49325282745E+02 -0.84240805442E+02 -0.39773387934E+03  0.44214058883E+03  0.16663302402E+03 0.  0.
         24    2    3    3    0    0 -0.16641964792E+02 -0.22118213846E+02 -0.76461490635E+02  0.11325542133E+03  0.78830581209E+02 0.  0.
         -6    2    1    2    0  502  0.49325282745E+02  0.84240805442E+02  0.82949837300E+02  0.21310813710E+03  0.17030826688E+03 0.  0.
        -24    2    5    5    0    0  0.71938044049E+02  0.43273191993E+02 -0.22793852687E+01  0.11576445366E+03  0.79677862713E+02 0.  0.
          5    1    3    3  501    0 -0.32683317952E+02 -0.62122591596E+02 -0.32127238870E+03  0.32888516750E+03  0.47000000000E+01 0. -1.
        -13    1    4    4    0    0 -0.34935123029E+02  0.17817429061E+02 -0.41657110104E+02  0.57212222659E+02  0.00000000000E+00 0.  1.
         14    1    4    4    0    0  0.18293158236E+02 -0.39935642907E+02 -0.34804380530E+02  0.56043198666E+02  0.00000000000E+00 0. -1.
         -5    1    5    5    0  502 -0.22612761304E+02  0.40967613449E+02  0.85229222569E+02  0.97343683438E+02  0.47000000000E+01 0.  1.
         13    1    6    6    0    0  0.29407615366E+02 -0.17786961596E+02  0.17781114656E+02  0.38695631313E+02  0.00000000000E+00 0. -1.
        -14    1    6    6    0    0  0.42530428683E+02  0.61060153589E+02 -0.20060499924E+02  0.77068822344E+02  0.00000000000E+00 0.  1.
<mgrwt>
<rscale>  2 0.19550196E+03</rscale>
<asrwt>0</asrwt>
<pdfrwt beam="1">  1       21 0.26189591E-01 0.19630182E+03</pdfrwt>
<pdfrwt beam="2">  1       21 0.74617904E-01 0.19630182E+03</pdfrwt>
<totfact> 0.22237003E+04</totfact>
</mgrwt>
</event>
<event>
12    1  0.1074575E-001  0.2408064E+03  0.7546771E-02  0.1119273E+00
         21   -1    0    0  503  502  0.00000000000E+00  0.00000000000E+00  0.11447187812E+03  0.11447187812E+03  0.00000000000E+00 0. -1.
         21   -1    0    0  501  503 -0.00000000000E+00 -0.00000000000E+00 -0.51158942834E+03  0.51158942834E+03  0.00000000000E+00 0. -1.
          6    2    1    2  501    0 -0.16381384774E+03 -0.44775534304E+02 -0.23024957989E+03  0.33317047894E+03  0.17072748405E+03 0.  0.
         24    2    3    3    0    0 -0.17289103306E+03 -0.64539056791E+02 -0.23598763456E+03  0.31019206764E+03  0.80450953971E+02 0.  0.
         -6    2    1    2    0  502  0.16381384774E+03  0.44775534304E+02 -0.16686797033E+03  0.29289082752E+03  0.17058807737E+03 0.  0.
        -24    2    5    5    0    0  0.12158331543E+03  0.86627753608E+02 -0.16118953329E+03  0.23297955340E+03  0.77527649089E+02 0.  0.
          5    1    3    3  501    0  0.90771853153E+01  0.19763522487E+02  0.57380546749E+01  0.22978411298E+02  0.47000000000E+01 0. -1.
        -11    1    4    4    0    0 -0.16251683269E+03 -0.30028058996E+02 -0.19233858050E+03  0.25358930337E+03  0.00000000000E+00 0.  1.
         12    1    4    4    0    0 -0.10374200367E+02 -0.34510997795E+02 -0.43649054060E+02  0.56602764265E+02  0.00000000000E+00 0. -1.
         -5    1    5    5    0  502  0.42230532308E+02 -0.41852219304E+02 -0.56784370448E+01  0.59911274123E+02  0.47000000000E+01 0.  1.
         13    1    6    6    0    0  0.83477971372E+02  0.20279701673E+02 -0.11521919550E+03  0.14371952204E+03  0.00000000000E+00 0. -1.
        -14    1    6    6    0    0  0.38105344062E+02  0.66348051935E+02 -0.45970337792E+02  0.89260031360E+02  0.00000000000E+00 0.  1.
<mgrwt>
<rscale>  2 0.24078164E+03</rscale>
<asrwt>0</asrwt>
<pdfrwt beam="1">  1       21 0.17611058E-01 0.24080635E+03</pdfrwt>
<pdfrwt beam="2">  1       21 0.78706068E-01 0.24080635E+03</pdfrwt>
<totfact> 0.40746528E+04</totfact>
</mgrwt>
</event>
<event>
12    1  0.1074575E-001  0.1807215E+03  0.7546771E-02  0.1167985E+00
         21   -1    0    0  503  502  0.00000000000E+00  0.00000000000E+00  0.15281610466E+04  0.15281610466E+04  0.00000000000E+00 0. -1.
         21   -1    0    0  501  503 -0.00000000000E+00 -0.00000000000E+00 -0.39211033477E+02  0.39211033477E+02  0.00000000000E+00 0. -1.
          6    2    1    2  501    0  0.45376902637E+02 -0.19600276378E+02  0.20563015999E+03  0.27138979027E+03  0.17007475250E+03 0.  0.
         24    2    3    3    0    0  0.36728476763E+02 -0.17753211262E+02  0.22889841853E+03  0.24605781887E+03  0.80534506294E+02 0.  0.
         -6    2    1    2    0  502 -0.45376902637E+02  0.19600276378E+02  0.12833198532E+04  0.12959822898E+04  0.17383042289E+03 0.  0.
        -24    2    5    5    0    0 -0.52385884578E+02  0.29705863558E+02  0.12776695664E+04  0.12816552364E+04  0.81079619855E+02 0.  0.
          5    1    3    3  501    0  0.86484258735E+01 -0.18470651168E+01 -0.23268258541E+02  0.25331971403E+02  0.47000000000E+01 0. -1.
        -11    1    4    4    0    0 -0.63004930335E+01 -0.40226730801E+02  0.12297155160E+03  0.12953720927E+03  0.00000000000E+00 0.  1.
         12    1    4    4    0    0  0.43028969797E+02  0.22473519539E+02  0.10592686694E+03  0.11652060960E+03  0.00000000000E+00 0. -1.
         -5    1    5    5    0  502  0.70089819410E+01 -0.10105587179E+02  0.56502867231E+01  0.14327053435E+02  0.47000000000E+01 0.  1.
         11    1    6    6    0    0 -0.26151613914E+02  0.18610448049E+02  0.11649599848E+04  0.11654020860E+04  0.00000000000E+00 0. -1.
        -12    1    6    6    0    0 -0.26234270664E+02  0.11095415509E+02  0.11270958160E+03  0.11625315043E+03  0.00000000000E+00 0.  1.
<mgrwt>
<rscale>  2 0.17981226E+03</rscale>
<asrwt>0</asrwt>
<pdfrwt beam="1">  1       21 0.23510165E+00 0.18072147E+03</pdfrwt>
<pdfrwt beam="2">  1       21 0.60324679E-02 0.18072147E+03</pdfrwt>
<totfact> 0.16088967E+04</totfact>
</mgrwt>
</event>
<event>
12    1  0.1074575E-001  0.2748621E+03  0.7546771E-02  0.1098605E+00
         21   -1    0    0  501  502  0.00000000000E+00  0.00000000000E+00  0.13343127311E+03  0.13343127311E+03  0.00000000000E+00 0.  1.
         21   -1    0    0  502  503 -0.00000000000E+00 -0.00000000000E+00 -0.10267432870E+04  0.10267432870E+04  0.00000000000E+00 0.  1.
         -6    2    1    2    0  503  0.17756991433E+03 -0.11797181807E+03 -0.83539070787E+03  0.87927593441E+03  0.17262708273E+03 0.  0.
        -24    2    3    3    0    0  0.11360241123E+03 -0.14753846029E+03 -0.60618184097E+03  0.63943260543E+03  0.82125072103E+02 0.  0.
          6    2    1    2  501    0 -0.17756991433E+03  0.11797181807E+03 -0.57921306043E+02  0.28089862573E+03  0.17349563658E+03 0.  0.
         24    2    5    5    0    0 -0.14748312561E+03  0.15764889244E+02 -0.31097239074E+02  0.17093003147E+03  0.79058417070E+02 0.  0.
          5    1    5    5  501    0 -0.30086788723E+02  0.10220692882E+03 -0.26824066968E+02  0.10996859426E+03  0.47000000000E+01 0. -1.
        -11    1    6    6    0    0 -0.40792791216E+02  0.12885652473E+02 -0.46397674441E+02  0.63109714373E+02  0.00000000000E+00 0.  1.
         12    1    6    6    0    0 -0.10669033439E+03  0.28792367717E+01  0.15300435366E+02  0.10782031710E+03  0.00000000000E+00 0. -1.
         -5    1    3    3    0  503  0.63967503105E+02  0.29566642227E+02 -0.22920886690E+03  0.23984332897E+03  0.47000000000E+01 0.  1.
         13    1    4    4    0    0  0.64124323343E+02 -0.98010516965E+02 -0.48987058188E+03  0.50367765215E+03  0.00000000000E+00 0. -1.
        -14    1    4    4    0    0  0.49478087884E+02 -0.49527943327E+02 -0.11631125909E+03  0.13575495328E+03  0.00000000000E+00 0.  1.
<mgrwt>
<rscale>  2 0.27472512E+03</rscale>
<asrwt>0</asrwt>
<pdfrwt beam="1">  1       21 0.20527888E-01 0.27486207E+03</pdfrwt>
<pdfrwt beam="2">  1       21 0.15796051E+00 0.27486207E+03</pdfrwt>
<totfact> 0.53987959E+03</totfact>
</mgrwt>
</event>
<event>
12    1  0.1074575E-001  0.2041356E+03  0.7546771E-02  0.1146452E+00
         21   -1    0    0  501  502  0.00000000000E+00  0.00000000000E+00  0.37232820553E+03  0.37232820553E+03  0.00000000000E+00 0. -1.
         21   -1    0    0  502  503 -0.00000000000E+00 -0.00000000000E+00 -0.14564548779E+03  0.14564548779E+03  0.00000000000E+00 0. -1.
         -6    2    1    2    0  503  0.18882784408E+02 -0.10499622985E+03 -0.11886879516E+02  0.20448135202E+03  0.17404182713E+03 0.  0.
        -24    2    3    3    0    0  0.78623142685E+02 -0.81801311525E+02 -0.76456599843E+01  0.14008420468E+03  0.81805104674E+02 0.  0.
          6    2    1    2  501    0 -0.18882784408E+02  0.10499622985E+03  0.23856959725E+03  0.31349234129E+03  0.17315088070E+03 0.  0.
         24    2    5    5    0    0  0.18380238700E+02 -0.76456805010E+01  0.11950647362E+03  0.14534106932E+03  0.80286609023E+02 0.  0.
          5    1    5    5  501    0 -0.37263023109E+02  0.11264191035E+03  0.11906312363E+03  0.16815127197E+03  0.47000000000E+01 0. -1.
        -13    1    6    6    0    0  0.22998375023E+02  0.28249997849E+02  0.94698484924E+02  0.10146324792E+03  0.00000000000E+00 0.  1.
         14    1    6    6    0    0 -0.46181363229E+01 -0.35895678350E+02  0.24807988698E+02  0.43877821397E+02  0.00000000000E+00 0. -1.
         -5    1    3    3    0  503 -0.59740358277E+02 -0.23194918322E+02 -0.42412195316E+01  0.64397147344E+02  0.47000000000E+01 0.  1.
         13    1    4    4    0    0  0.33230576119E+02 -0.68473804384E+02  0.27736763508E+02  0.81007784354E+02  0.00000000000E+00 0. -1.
        -14    1    4    4    0    0  0.45392566566E+02 -0.13327507141E+02 -0.35382423493E+02  0.59076420324E+02  0.00000000000E+00 0.  1.
<mgrwt>
<rscale>  2 0.20394552E+03</rscale>
<asrwt>0</asrwt>
<pdfrwt beam="1">  1       21 0.57281262E-01 0.20413556E+03</pdfrwt>
<pdfrwt beam="2">  1       21 0.22406998E-01 0.20413556E+03</pdfrwt>
<totfact> 0.53061563E+04</totfact>
</mgrwt>
</event>
<event>
12    1  0.1074575E-001  0.2064954E+03  0.7546771E-02  0.1144702E+00
         21   -1    0    0  503  502  0.00000000000E+00  0.00000000000E+00  0.24118437904E+02  0.24118437904E+02  0.00000000000E+00 0. -1.
         21   -1    0    0  501  503 -0.00000000000E+00 -0.00000000000E+00 -0.19197581038E+04  0.19197581038E+04  0.00000000000E+00 0. -1.
          6    2    1    2  501    0  0.50675035056E+02  0.10019084893E+03 -0.12367651328E+04  0.12538853041E+04  0.17330377020E+03 0.  0.
         24    2    3    3    0    0  0.31409994193E+02 -0.60590799652E+01 -0.39424746403E+03  0.40446297018E+03  0.84474440912E+02 0.  0.
         -6    2    1    2    0  502 -0.50675035056E+02 -0.10019084893E+03 -0.65887453315E+03  0.68999123765E+03  0.17136537635E+03 0.  0.
        -24    2    5    5    0    0 -0.83833228204E+02 -0.10568423002E+03 -0.39130674291E+03  0.42027980782E+03  0.72917646600E+02 0.  0.
          5    1    3    3  501    0  0.19265040863E+02  0.10624992889E+03 -0.84251766875E+03  0.84942233391E+03  0.47000000000E+01 0. -1.
        -11    1    4    4    0    0 -0.28286922094E+02 -0.60273363894E+01 -0.16805097292E+03  0.17052157707E+03  0.00000000000E+00 0.  1.
         12    1    4    4    0    0  0.59696916287E+02 -0.31743575813E-01 -0.22619649111E+03  0.23394139312E+03  0.00000000000E+00 0. -1.
         -5    1    5    5    0  502  0.33158193148E+02  0.54933810858E+01 -0.26756779024E+03  0.26971142983E+03  0.47000000000E+01 0.  1.
         13    1    6    6    0    0 -0.58656162809E+02 -0.54564011529E+02 -0.12897160853E+03  0.15182704831E+03  0.00000000000E+00 0. -1.
        -14    1    6    6    0    0 -0.25177065395E+02 -0.51120218487E+02 -0.26233513438E+03  0.26845275951E+03  0.00000000000E+00 0.  1.
<mgrwt>
<rscale>  2 0.20608820E+03</rscale>
<asrwt>0</asrwt>
<pdfrwt beam="1">  1       21 0.37105281E-02 0.20649543E+03</pdfrwt>
<pdfrwt beam="2">  1       21 0.29534747E+00 0.20649543E+03</pdfrwt>
<totfact> 0.15913829E+04</totfact>
</mgrwt>
</event>
<event>
12    1  0.1074575E-001  0.2004005E+03  0.7546771E-02  0.1149507E+00
         21   -1    0    0  501  502  0.00000000000E+00  0.00000000000E+00  0.10754092689E+04  0.10754092689E+04  0.00000000000E+00 0.  1.
         21   -1    0    0  502  503 -0.00000000000E+00 -0.00000000000E+00 -0.81689119516E+02  0.81689119516E+02  0.00000000000E+00 0.  1.
         -6    2    1    2    0  503 -0.98504343100E+02 -0.11331625534E+02  0.70430037853E+02  0.21241647930E+03  0.17415182772E+03 0.  0.
        -24    2    3    3    0    0  0.17458366773E+02  0.20307927955E+02  0.39284415320E+02  0.88156464693E+02  0.74236719161E+02 0.  0.
          6    2    1    2  501    0  0.98504343100E+02  0.11331625534E+02  0.92329011152E+03  0.94468190911E+03  0.17357352339E+03 0.  0.
         24    2    5    5    0    0  0.55027455460E+02  0.35499787396E+02  0.28630749183E+03  0.30574271983E+03  0.84961021020E+02 0.  0.
          5    1    5    5  501    0  0.43476887640E+02 -0.24168161862E+02  0.63698261969E+03  0.63893918928E+03  0.47000000000E+01 0. -1.
        -11    1    6    6    0    0  0.54462210856E+02  0.46495719396E+02  0.28589249333E+03  0.29472445110E+03  0.00000000000E+00 0.  1.
         12    1    6    6    0    0  0.56524460368E+00 -0.10995931999E+02  0.41499849428E+00  0.11018268727E+02  0.00000000000E+00 0. -1.
         -5    1    3    3    0  503 -0.11596270987E+03 -0.31639553490E+02  0.31145622533E+02  0.12426001460E+03  0.47000000000E+01 0.  1.
         13    1    4    4    0    0  0.15163745710E+02  0.12907262875E+02 -0.20085175769E+02  0.28283403341E+02  0.00000000000E+00 0. -1.
        -14    1    4    4    0    0  0.22946210634E+01  0.74006650802E+01  0.59369591090E+02  0.59873061351E+02  0.00000000000E+00 0.  1.
<mgrwt>
<rscale>  2 0.20027482E+03</rscale>
<asrwt>0</asrwt>
<pdfrwt beam="1">  1       21 0.16544757E+00 0.20040053E+03</pdfrwt>
<pdfrwt beam="2">  1       21 0.12567558E-01 0.20040053E+03</pdfrwt>
<totfact> 0.12343559E+04</totfact>
</mgrwt>
</event>
<event>
12    1  0.1074575E-001  0.2330350E+03  0.7546771E-02  0.1124563E+00
         21   -1    0    0  503  502  0.00000000000E+00  0.00000000000E+00  0.29049831175E+03  0.29049831175E+03  0.00000000000E+00 0.  1.
         21   -1    0    0  501  503 -0.00000000000E+00 -0.00000000000E+00 -0.24838832725E+03  0.24838832725E+03  0.00000000000E+00 0.  1.
          6    2    1    2  501    0 -0.11124759493E+03  0.10846712370E+03 -0.11316424089E+03  0.25905878878E+03  0.17367834156E+03 0.  0.
         24    2    3    3    0    0 -0.97539627674E+02  0.14597664647E+03 -0.92521634262E+02  0.21385834772E+03  0.79699308654E+02 0.  0.
         -6    2    1    2    0  502  0.11124759493E+03 -0.10846712370E+03  0.15527422539E+03  0.27982785021E+03  0.17335627009E+03 0.  0.
        -24    2    5    5    0    0  0.73598538147E+02 -0.30953091956E+02  0.17817962579E+02  0.11752507518E+03  0.84379054197E+02 0.  0.
          5    1    3    3  501    0 -0.13707967253E+02 -0.37509522766E+02 -0.20642606630E+02  0.45200441069E+02  0.47000000000E+01 0. -1.
        -13    1    4    4    0    0 -0.23529934770E+01  0.71770053003E+02 -0.28728418755E+02  0.77342091584E+02  0.00000000000E+00 0.  1.
         14    1    4    4    0    0 -0.95186634197E+02  0.74206593467E+02 -0.63793215507E+02  0.13651625613E+03  0.00000000000E+00 0. -1.
         -5    1    5    5    0  502  0.37649056779E+02 -0.77514031749E+02  0.13745626281E+03  0.16230277503E+03  0.47000000000E+01 0.  1.
         11    1    6    6    0    0  0.58742477027E+02  0.20805270260E+02  0.96865473526E+01  0.63066370416E+02  0.00000000000E+00 0. -1.
        -12    1    6    6    0    0  0.14856061120E+02 -0.51758362216E+02  0.81314152263E+01  0.54458704766E+02  0.00000000000E+00 0.  1.
<mgrwt>
<rscale>  2 0.23297499E+03</rscale>
<asrwt>0</asrwt>
<pdfrwt beam="1">  1       21 0.44692048E-01 0.23303500E+03</pdfrwt>
<pdfrwt beam="2">  1       21 0.38213589E-01 0.23303500E+03</pdfrwt>
<totfact> 0.31084524E+04</totfact>
</mgrwt>
</event>
<event>
12    1  0.1074575E-001  0.2120139E+03  0.7546771E-02  0.1140444E+00
         21   -1    0    0  501  502  0.00000000000E+00  0.00000000000E+00  0.97431892343E+02  0.97431892343E+02  0.00000000000E+00 0. -1.
         21   -1    0    0  502  503 -0.00000000000E+00 -0.00000000000E+00 -0.53363512338E+03  0.53363512338E+03  0.00000000000E+00 0.  1.
         -6    2    1    2    0  503 -0.92178171049E+02  0.74800461749E+02 -0.33722457524E+03  0.39708693415E+03  0.17281694025E+03 0.  0.
        -24    2    3    3    0    0 -0.27477566377E+02  0.12308044059E+01 -0.64602939222E+02  0.10735721675E+03  0.81212688034E+02 0.  0.
          6    2    1    2  501    0  0.92178171049E+02 -0.74800461749E+02 -0.98978655797E+02  0.23398008157E+03  0.17566439585E+03 0.  0.
         24    2    5    5    0    0  0.50486019093E+01 -0.63780301256E+02 -0.10475418680E+03  0.14584125633E+03  0.78757965863E+02 0.  0.
          5    1    5    5  501    0  0.87129569139E+02 -0.11020160493E+02  0.57755309987E+01  0.88138825236E+02  0.47000000000E+01 0. -1.
        -13    1    6    6    0    0 -0.61309857150E+01  0.17423444998E+02 -0.11849323579E+02  0.21944746312E+02  0.00000000000E+00 0.  1.
         14    1    6    6    0    0  0.11179587624E+02 -0.81203746253E+02 -0.92904863217E+02  0.12389651002E+03  0.00000000000E+00 0. -1.
         -5    1    3    3    0  503 -0.64700604672E+02  0.73569657343E+02 -0.27262163601E+03  0.28972971741E+03  0.47000000000E+01 0.  1.
         13    1    4    4    0    0 -0.39749727144E+02  0.32520493110E+02 -0.45975858395E+02  0.68930420246E+02  0.00000000000E+00 0. -1.
        -14    1    4    4    0    0  0.12272160768E+02 -0.31289688704E+02 -0.18627080827E+02  0.38426796499E+02  0.00000000000E+00 0.  1.
<mgrwt>
<rscale>  2 0.21142316E+03</rscale>
<asrwt>0</asrwt>
<pdfrwt beam="1">  1       21 0.14989522E-01 0.21201392E+03</pdfrwt>
<pdfrwt beam="2">  1       21 0.82097710E-01 0.21201392E+03</pdfrwt>
<totfact> 0.50460379E+04</totfact>
</mgrwt>
</event>
<event>
12    1  0.1074575E-001  0.1808129E+03  0.7546771E-02  0.1168446E+00
         21   -1    0    0  503  502  0.00000000000E+00  0.00000000000E+00  0.18083612850E+03  0.18083612850E+03  0.00000000000E+00 0. -1.
         21   -1    0    0  501  503 -0.00000000000E+00 -0.00000000000E+00 -0.22016553272E+03  0.22016553272E+03  0.00000000000E+00 0. -1.
          6    2    1    2  501    0 -0.21138429017E+02  0.21744294017E+02  0.70876788037E+02  0.19420821711E+03  0.17825169005E+03 0.  0.
         24    2    3    3    0    0 -0.64173336346E+02  0.68186747651E+01 -0.74889192739E+01  0.10344450497E+03  0.80498262550E+02 0.  0.
         -6    2    1    2    0  502  0.21138429017E+02 -0.21744294017E+02 -0.11020619226E+03  0.20679344411E+03  0.17233245838E+03 0.  0.
        -24    2    5    5    0    0 -0.65117524717E+01 -0.74585020762E+02 -0.95320620532E+02  0.14514650433E+03  0.79850853330E+02 0.  0.
          5    1    3    3  501    0  0.43034907329E+02  0.14925619252E+02  0.78365707311E+02  0.90763712139E+02  0.47000000000E+01 0. -1.
        -11    1    4    4    0    0 -0.21206741131E+02  0.27401933193E+02 -0.34317408824E+02  0.48767574888E+02  0.00000000000E+00 0.  1.
         12    1    4    4    0    0 -0.42966595215E+02 -0.20583258428E+02  0.26828489550E+02  0.54676930084E+02  0.00000000000E+00 0. -1.
         -5    1    5    5    0  502  0.27650181489E+02  0.52840726744E+02 -0.14885571729E+02  0.61646939786E+02  0.47000000000E+01 0.  1.
         13    1    6    6    0    0 -0.15291731906E+02  0.11594666449E+02 -0.46487444667E+01  0.19745485050E+02  0.00000000000E+00 0. -1.
        -14    1    6    6    0    0  0.87799794344E+01 -0.86179687210E+02 -0.90671876065E+02  0.12540101928E+03  0.00000000000E+00 0.  1.
<mgrwt>
<rscale>  2 0.17933680E+03</rscale>
<asrwt>0</asrwt>
<pdfrwt beam="1">  1       21 0.27820943E-01 0.18081292E+03</pdfrwt>
<pdfrwt beam="2">  1       21 0.33871620E-01 0.18081292E+03</pdfrwt>
<totfact> 0.10403809E+05</totfact>
</mgrwt>
</event>
<event>
12    1  0.1074575E-001  0.3477141E+03  0.7546771E-02  0.1063821E+00
         21   -1    0    0  501  502  0.00000000000E+00  0.00000000000E+00  0.35332867899E+03  0.35332867899E+03  0.00000000000E+00 0.  1.
         21   -1    0    0  502  503 -0.00000000000E+00 -0.00000000000E+00 -0.93304545522E+03  0.93304545522E+03  0.00000000000E+00 0.  1.
         -6    2    1    2    0  503 -0.17992714591E+03 -0.24181320360E+03 -0.80315694731E+03  0.87519492259E+03  0.17337147181E+03 0.  0.
        -24    2    3    3    0    0 -0.16276521512E+03 -0.11886952899E+03 -0.59069226066E+03  0.62907907168E+03  0.78744215306E+02 0.  0.
          6    2    1    2  501    0  0.17992714591E+03  0.24181320360E+03  0.22344017108E+03  0.41117921161E+03  0.16821245715E+03 0.  0.
         24    2    5    5    0    0  0.79139968542E+02  0.43538540290E+02  0.60345418550E+02  0.13532982239E+03  0.80708439313E+02 0.  0.
          5    1    5    5  501    0  0.10078717737E+03  0.19827466331E+03  0.16309475253E+03  0.27584938923E+03  0.47000000000E+01 0. -1.
        -13    1    6    6    0    0  0.78169636046E+02  0.55889168068E+02  0.27086853705E+02  0.99838813847E+02  0.00000000000E+00 0.  1.
         14    1    6    6    0    0  0.97033249633E+00 -0.12350627778E+02  0.33258564846E+02  0.35491008541E+02  0.00000000000E+00 0. -1.
         -5    1    3    3    0  503 -0.17161930798E+02 -0.12294367461E+03 -0.21246468665E+03  0.24611585091E+03  0.47000000000E+01 0.  1.
         11    1    4    4    0    0 -0.83606456636E+02 -0.76034110641E+02 -0.43304208481E+03  0.44754516285E+03  0.00000000000E+00 0. -1.
        -12    1    4    4    0    0 -0.79158758480E+02 -0.42835418349E+02 -0.15765017585E+03  0.18153390883E+03  0.00000000000E+00 0.  1.
<mgrwt>
<rscale>  2 0.34707648E+03</rscale>
<asrwt>0</asrwt>
<pdfrwt beam="1">  1       21 0.54358258E-01 0.34771406E+03</pdfrwt>
<pdfrwt beam="2">  1       21 0.14354546E+00 0.34771406E+03</pdfrwt>
<totfact> 0.95190033E+02</totfact>
</mgrwt>
</event>
<event>
12    1  0.1074575E-001  0.2467484E+03  0.7546771E-02  0.1116749E+00
         21   -1    0    0  503  502  0.00000000000E+00  0.00000000000E+00  0.36691899111E+03  0.36691899111E+03  0.00000000000E+00 0. -1.
         21   -1    0    0  501  503 -0.00000000000E+00 -0.00000000000E+00 -0.16639171743E+03  0.16639171743E+03  0.00000000000E+00 0. -1.
          6    2    1    2  501    0  0.11525264612E+03  0.11650301358E+03  0.15274838108E+03  0.29020137742E+03  0.18446855267E+03 0.  0.
         24    2    3    3    0    0  0.62882336981E+02  0.16684054091E+02  0.14542935027E+03  0.17714328543E+03  0.77443538724E+02 0.  0.
         -6    2    1    2    0  502 -0.11525264612E+03 -0.11650301358E+03  0.47778892595E+02  0.24310933111E+03  0.17309881480E+03 0.  0.
        -24    2    5    5    0    0 -0.11017516318E+03 -0.66833523959E+02  0.90253624618E+02  0.17738998927E+03  0.81952455911E+02 0.  0.
          5    1    3    3  501    0  0.52370309143E+02  0.99818959484E+02  0.73190308182E+01  0.11305809199E+03  0.47000000000E+01 0. -1.
        -11    1    4    4    0    0 -0.12367208955E+02 -0.19636812837E+01  0.62009874813E+02  0.63261587680E+02  0.00000000000E+00 0.  1.
         12    1    4    4    0    0  0.75249545936E+02  0.18647735375E+02  0.83419475452E+02  0.11388169775E+03  0.00000000000E+00 0. -1.
         -5    1    5    5    0  502 -0.50774829402E+01 -0.49669489617E+02 -0.42474732023E+02  0.65719341843E+02  0.47000000000E+01 0.  1.
         13    1    6    6    0    0 -0.24041130663E+02  0.19072487405E+01 -0.12105770624E+02  0.26984500064E+02  0.00000000000E+00 0. -1.
        -14    1    6    6    0    0 -0.86134032520E+02 -0.68740772699E+02  0.10235939524E+03  0.15040548921E+03  0.00000000000E+00 0.  1.
<mgrwt>
<rscale>  2 0.24462608E+03</rscale>
<asrwt>0</asrwt>
<pdfrwt beam="1">  1       21 0.56449075E-01 0.24674840E+03</pdfrwt>
<pdfrwt beam="2">  1       21 0.25598726E-01 0.24674840E+03</pdfrwt>
<totfact> 0.41662761E+04</totfact>
</mgrwt>
</event>
<event>
12    1  0.1074575E-001  0.2064962E+03  0.7546771E-02  0.1145567E+00
         21   -1    0    0  501  502  0.00000000000E+00  0.00000000000E+00  0.10654753224E+04  0.10654753224E+04  0.00000000000E+00 0. -1.
         21   -1    0    0  502  503 -0.00000000000E+00 -0.00000000000E+00 -0.50919690591E+02  0.50919690591E+02  0.00000000000E+00 0.  1.
         -6    2    1    2    0  503  0.71826150832E+02  0.86046593300E+02  0.23056594780E+03  0.30566663531E+03  0.16645847378E+03 0.  0.
        -24    2    3    3    0    0  0.54211619026E+02  0.12393095538E+03  0.18395860124E+03  0.24289855923E+03  0.82832130046E+02 0.  0.
          6    2    1    2  501    0 -0.71826150832E+02 -0.86046593300E+02  0.78398968403E+03  0.81072837771E+03  0.17342913707E+03 0.  0.
         24    2    5    5    0    0 -0.44208642606E+01 -0.50494990194E+02  0.63420434133E+03  0.64260601741E+03  0.90321973964E+02 0.  0.
          5    1    5    5  501    0 -0.67405286571E+02 -0.35551603107E+02  0.14978534271E+03  0.16812236029E+03  0.47000000000E+01 0. -1.
        -11    1    6    6    0    0 -0.31695008267E+02 -0.58997194347E+02  0.54077959123E+03  0.54491082644E+03  0.00000000000E+00 0.  1.
         12    1    6    6    0    0  0.27274144006E+02  0.85022041539E+01  0.93424750101E+02  0.97695190967E+02  0.00000000000E+00 0. -1.
         -5    1    3    3    0  503  0.17614531806E+02 -0.37884362080E+02  0.46607346559E+02  0.62768076075E+02  0.47000000000E+01 0.  1.
         13    1    4    4    0    0  0.44728610734E+02  0.13086880263E+02  0.65537125115E+02  0.80417845168E+02  0.00000000000E+00 0. -1.
        -14    1    4    4    0    0  0.94830082917E+01  0.11084407512E+03  0.11842147612E+03  0.16248071406E+03  0.00000000000E+00 0.  1.
<mgrwt>
<rscale>  2 0.20502588E+03</rscale>
<asrwt>0</asrwt>
<pdfrwt beam="1">  1       21 0.16391926E+00 0.20649619E+03</pdfrwt>
<pdfrwt beam="2">  1       21 0.78337994E-02 0.20649619E+03</pdfrwt>
<totfact> 0.29078547E+04</totfact>
</mgrwt>
</event>
<event>
12    1  0.1074575E-001  0.2568209E+03  0.7546771E-02  0.1109115E+00
         21   -1    0    0  503  502  0.00000000000E+00  0.00000000000E+00  0.16264856935E+04  0.16264856935E+04  0.00000000000E+00 0. -1.
         21   -1    0    0  501  503 -0.00000000000E+00 -0.00000000000E+00 -0.51715675484E+02  0.51715675484E+02  0.00000000000E+00 0.  1.
          6    2    1    2  501    0  0.12257352226E+03 -0.14573507096E+03  0.39631610448E+03  0.47208752751E+03  0.17186389873E+03 0.  0.
         24    2    3    3    0    0  0.11637867309E+03 -0.12264646939E+03  0.40471964363E+03  0.44631604813E+03  0.82546186326E+02 0.  0.
         -6    2    1    2    0  502 -0.12257352226E+03  0.14573507096E+03  0.11784539136E+04  0.12061138415E+04  0.17231945048E+03 0.  0.
        -24    2    5    5    0    0 -0.15129846551E+03  0.13245492357E+03  0.88220221460E+03  0.90813960803E+03  0.77467849971E+02 0.  0.
          5    1    3    3  501    0  0.61948491716E+01 -0.23088601571E+02 -0.84035391495E+01  0.25771479372E+02  0.47000000000E+01 0. -1.
        -11    1    4    4    0    0  0.11543792669E+03 -0.12714598387E+03  0.33507576501E+03  0.37652062949E+03  0.00000000000E+00 0.  1.
         12    1    4    4    0    0  0.94074640108E+00  0.44995144852E+01  0.69643878623E+02  0.69795418646E+02  0.00000000000E+00 0. -1.
         -5    1    5    5    0  502  0.28724943241E+02  0.13280147385E+02  0.29625169898E+03  0.29797423350E+03  0.47000000000E+01 0.  1.
         11    1    6    6    0    0 -0.24154488679E+02  0.41123038991E+02  0.35489102465E+03  0.35808125201E+03  0.00000000000E+00 0. -1.
        -12    1    6    6    0    0 -0.12714397683E+03  0.91331884584E+02  0.52731118994E+03  0.55005835602E+03  0.00000000000E+00 0.  1.
<mgrwt>
<rscale>  2 0.25674450E+03</rscale>
<asrwt>0</asrwt>
<pdfrwt beam="1">  1       21 0.25022853E+00 0.25682090E+03</pdfrwt>
<pdfrwt beam="2">  1       21 0.79562590E-02 0.25682090E+03</pdfrwt>
<totfact> 0.75969544E+03</totfact>
</mgrwt>
</event>
<event>
12    1  0.1074575E-001  0.2232589E+03  0.7546771E-02  0.1131664E+00
         21   -1    0    0  503  502  0.00000000000E+00  0.00000000000E+00  0.84619192641E+03  0.84619192641E+03  0.00000000000E+00 0. -1.
         21   -1    0    0  501  503 -0.00000000000E+00 -0.00000000000E+00 -0.80371797376E+02  0.80371797376E+02  0.00000000000E+00 0. -1.
          6    2    1    2  501    0 -0.93273706198E+02 -0.10451009087E+03  0.14262270412E+03  0.26492596811E+03  0.17384530331E+03 0.  0.
         24    2    3    3    0    0 -0.46011560465E+02  0.15063787394E+02  0.54624339548E+02  0.10904965512E+03  0.81018685642E+02 0.  0.
         -6    2    1    2    0  502  0.93273706198E+02  0.10451009087E+03  0.62319742491E+03  0.66163775568E+03  0.17253157962E+03 0.  0.
        -24    2    5    5    0    0  0.10165740791E+03  0.43690209218E+02  0.54667989179E+03  0.56342183369E+03  0.79637903154E+02 0.  0.
          5    1    3    3  501    0 -0.47262145732E+02 -0.11957387827E+03  0.87998364575E+02  0.15587631299E+03  0.47000000000E+01 0. -1.
        -13    1    4    4    0    0 -0.66412612965E+01  0.26445974521E+02 -0.12819584691E+02  0.30130344698E+02  0.00000000000E+00 0.  1.
         14    1    4    4    0    0 -0.39370299169E+02 -0.11382187127E+02  0.67443924239E+02  0.78919310420E+02  0.00000000000E+00 0. -1.
         -5    1    5    5    0  502 -0.83837017155E+01  0.60819881654E+02  0.76517533116E+02  0.98215921993E+02  0.47000000000E+01 0.  1.
         13    1    6    6    0    0  0.98032433264E+02  0.31791146724E+02  0.53908486584E+03  0.54884745381E+03  0.00000000000E+00 0. -1.
        -14    1    6    6    0    0  0.36249746487E+01  0.11899062495E+02  0.75950259565E+01  0.14574379875E+02  0.00000000000E+00 0.  1.
<mgrwt>
<rscale>  2 0.22300310E+03</rscale>
<asrwt>0</asrwt>
<pdfrwt beam="1">  1       21 0.13018337E+00 0.22325889E+03</pdfrwt>
<pdfrwt beam="2">  1       21 0.12364892E-01 0.22325889E+03</pdfrwt>
<totfact> 0.23514306E+04</totfact>
</mgrwt>
</event>
<event>
12    1  0.1074575E-001  0.2817336E+03  0.7546771E-02  0.1094776E+00
         21   -1    0    0  501  502  0.00000000000E+00  0.00000000000E+00  0.22362505789E+03  0.22362505789E+03  0.00000000000E+00 0. -1.
         21   -1    0    0  502  503 -0.00000000000E+00 -0.00000000000E+00 -0.37956030639E+03  0.37956030639E+03  0.00000000000E+00 0. -1.
         -6    2    1    2    0  503 -0.20008803419E+03 -0.96943749098E+02 -0.15518867977E+03  0.32145080567E+03  0.17266667953E+03 0.  0.
        -24    2    3    3    0    0 -0.16825764638E+03 -0.91495653307E+02 -0.18411987315E+03  0.27783934746E+03  0.81317188654E+02 0.  0.
          6    2    1    2  501    0  0.20008803419E+03  0.96943749098E+02 -0.74656873671E+00  0.28173455862E+03  0.17303321137E+03 0.  0.
         24    2    5    5    0    0  0.10205467126E+03  0.11012545797E+03 -0.40270968829E+02  0.17511108137E+03  0.80618654599E+02 0.  0.
          5    1    5    5  501    0  0.98033362935E+02 -0.13181708876E+02  0.39524400093E+02  0.10662347725E+03  0.47000000000E+01 0. -1.
        -13    1    6    6    0    0  0.35233749351E+02  0.92245107691E+02 -0.88609040336E+01  0.99141780327E+02  0.00000000000E+00 0.  1.
         14    1    6    6    0    0  0.66820921907E+02  0.17880350283E+02 -0.31410064796E+02  0.75969301045E+02  0.00000000000E+00 0. -1.
         -5    1    3    3    0  503 -0.31830387809E+02 -0.54480957912E+01  0.28931193384E+02  0.43611458201E+02  0.47000000000E+01 0.  1.
         13    1    4    4    0    0 -0.31696073655E+02 -0.56605568570E+02 -0.39803177312E+02  0.76112577163E+02  0.00000000000E+00 0. -1.
        -14    1    4    4    0    0 -0.13656157273E+03 -0.34890084737E+02 -0.14431669584E+03  0.20172677030E+03  0.00000000000E+00 0.  1.
<mgrwt>
<rscale>  2 0.28167731E+03</rscale>
<asrwt>0</asrwt>
<pdfrwt beam="1">  1       21 0.34403856E-01 0.28173357E+03</pdfrwt>
<pdfrwt beam="2">  1       21 0.58393892E-01 0.28173357E+03</pdfrwt>
<totfact> 0.21377023E+04</totfact>
</mgrwt>
</event>
<event>
11    1  0.1074575E-001  0.2215357E+03  0.7546771E-02  0.1133658E+00
         21   -1    0    0  503  502  0.00000000000E+00  0.00000000000E+00  0.50703209728E+02  0.50703209728E+02  0.00000000000E+00 0.  1.
         21   -1    0    0  501  503 -0.00000000000E+00 -0.00000000000E+00 -0.10250995854E+04  0.10250995854E+04  0.00000000000E+00 0. -1.
          6    2    1    2  501    0  0.11070701098E+03  0.80759356776E+02 -0.33342228758E+03  0.39762445282E+03  0.16779948641E+03 0.  0.
         24    2    3    3    0    0  0.39258532844E+02  0.63923439025E+02 -0.88727742677E+02  0.14211350695E+03  0.81830300500E+02 0.  0.
         -6    2    1    2    0  502 -0.11070701098E+03 -0.80759356776E+02 -0.64097408810E+03  0.67817834232E+03  0.17406885529E+03 0.  0.
          5    1    3    3  501    0  0.71448478135E+02  0.16835917751E+02 -0.24469454490E+03  0.25551094587E+03  0.47000000000E+01 0. -1.
        -13    1    4    4    0    0  0.51484487704E+02  0.60801079630E+02 -0.98113647634E+02  0.12638714970E+03  0.00000000000E+00 0.  1.
         14    1    4    4    0    0 -0.12225954860E+02  0.31223593950E+01  0.93859049571E+01  0.15726357248E+02  0.00000000000E+00 0. -1.
         -5    1    5    5    0  502 -0.13763834871E+02  0.19939672323E+02 -0.13426371093E+03  0.13651325121E+03  0.47000000000E+01 0.  1.
         11    1    5    5    0    0 -0.40239847837E+02 -0.85344574919E+01 -0.34278524848E+03  0.34524456389E+03  0.00000000000E+00 0. -1.
        -12    1    5    5    0    0 -0.56703328270E+02 -0.92164571607E+02 -0.16392512869E+03  0.19642052722E+03  0.00000000000E+00 0.  1.
<mgrwt>
<rscale>  2 0.22030264E+03</rscale>
<asrwt>0</asrwt>
<pdfrwt beam="1">  1       21 0.78004934E-02 0.22153574E+03</pdfrwt>
<pdfrwt beam="2">  1       21 0.15770764E+00 0.22153574E+03</pdfrwt>
<totfact> 0.32237846E+04</totfact>
</mgrwt>
</event>
<event>
12    1  0.1074575E-001  0.1848545E+03  0.7546771E-02  0.1163303E+00
         21   -1    0    0  503  502  0.00000000000E+00  0.00000000000E+00  0.53350691026E+03  0.53350691026E+03  0.00000000000E+00 0.  1.
         21   -1    0    0  501  503 -0.00000000000E+00 -0.00000000000E+00 -0.11188922986E+03  0.11188922986E+03  0.00000000000E+00 0.  1.
          6    2    1    2  501    0  0.32883122683E+02 -0.56795950596E+02 -0.73962273904E+00  0.18435723470E+03  0.17227873689E+03 0.  0.
         24    2    3    3    0    0 -0.45024078560E+02 -0.10442772283E+02 -0.11475032673E+02  0.92948875283E+02  0.79822289484E+02 0.  0.
         -6    2    1    2    0  502 -0.32883122683E+02  0.56795950596E+02  0.42235730314E+03  0.46103890542E+03  0.17281232895E+03 0.  0.
        -24    2    5    5    0    0  0.33983477356E+02 -0.86399453820E+01  0.26490918708E+03  0.27783137847E+03  0.76051772302E+02 0.  0.
          5    1    3    3  501    0  0.77907201243E+02 -0.46353178312E+02  0.10735409934E+02  0.91408359419E+02  0.47000000000E+01 0. -1.
        -11    1    4    4    0    0  0.14942691091E+02 -0.84052488549E+00  0.19655040563E+02  0.24704475680E+02  0.00000000000E+00 0.  1.
         12    1    4    4    0    0 -0.59966769651E+02 -0.96022473980E+01 -0.31130073236E+02  0.68244399603E+02  0.00000000000E+00 0. -1.
         -5    1    5    5    0  502 -0.66866600039E+02  0.65435895978E+02  0.15744811606E+03  0.18320752696E+03  0.47000000000E+01 0.  1.
         13    1    6    6    0    0  0.60868381035E+01 -0.38986897374E+02  0.92534527866E+02  0.10059655368E+03  0.00000000000E+00 0. -1.
        -14    1    6    6    0    0  0.27896639252E+02  0.30346951992E+02  0.17237465922E+03  0.17723482479E+03  0.00000000000E+00 0.  1.
<mgrwt>
<rscale>  2 0.18472968E+03</rscale>
<asrwt>0</asrwt>
<pdfrwt beam="1">  1       21 0.82077985E-01 0.18485449E+03</pdfrwt>
<pdfrwt beam="2">  1       21 0.17213728E-01 0.18485449E+03</pdfrwt>
<totfact> 0.39722843E+04</totfact>
</mgrwt>
</event>
<event>
12    1  0.1074575E-001  0.2147787E+03  0.7546771E-02  0.1139161E+00
         21   -1    0    0  503  502  0.00000000000E+00  0.00000000000E+00  0.33937656840E+03  0.33937656840E+03  0.00000000000E+00 0.  1.
         21   -1    0    0  501  503 -0.00000000000E+00 -0.00000000000E+00 -0.26842523392E+03  0.26842523392E+03  0.00000000000E+00 0. -1.
          6    2    1    2  501    0 -0.90935143865E+02  0.69841866293E+02 -0.18170200273E+03  0.27619417447E+03  0.17355263621E+03 0.  0.
         24    2    3    3    0    0  0.77858017239E+01 -0.63644714990E+01 -0.67640458970E+02  0.10712212834E+03  0.82454796611E+02 0.  0.
         -6    2    1    2    0  502  0.90935143865E+02 -0.69841866293E+02  0.25265333721E+03  0.33160762784E+03  0.18161173795E+03 0.  0.
        -24    2    5    5    0    0  0.31064752594E+02 -0.10356903325E+03  0.11575762765E+03  0.17836105907E+03  0.81983385715E+02 0.  0.
          5    1    3    3  501    0 -0.98720945589E+02  0.76206337792E+02 -0.11406154376E+03  0.16907204613E+03  0.47000000000E+01 0. -1.
        -13    1    4    4    0    0 -0.47143427841E+01 -0.73929257383E+01  0.18288965835E+02  0.20282175677E+02  0.00000000000E+00 0.  1.
         14    1    4    4    0    0  0.12500144508E+02  0.10284542393E+01 -0.85929424805E+02  0.86839952661E+02  0.00000000000E+00 0. -1.
         -5    1    5    5    0  502  0.59870391271E+02  0.33727166957E+02  0.13689570957E+03  0.15324656877E+03  0.47000000000E+01 0.  1.
         11    1    6    6    0    0  0.18854774916E+02 -0.57376235107E+02  0.85611181008E+01  0.60998587158E+02  0.00000000000E+00 0. -1.
        -12    1    6    6    0    0  0.12209977679E+02 -0.46192798144E+02  0.10719650955E+03  0.11736247192E+03  0.00000000000E+00 0.  1.
<mgrwt>
<rscale>  2 0.21306584E+03</rscale>
<asrwt>0</asrwt>
<pdfrwt beam="1">  1       21 0.52211780E-01 0.21477875E+03</pdfrwt>
<pdfrwt beam="2">  1       21 0.41296189E-01 0.21477875E+03</pdfrwt>
<totfact> 0.19398101E+04</totfact>
</mgrwt>
</event>
<event>
12    1  0.1074575E-001  0.1767745E+03  0.7546771E-02  0.1171000E+00
         21   -1    0    0  501  502  0.00000000000E+00  0.00000000000E+00  0.43462644456E+02  0.43462644456E+02  0.00000000000E+00 0. -1.
         21   -1    0    0  502  503 -0.00000000000E+00 -0.00000000000E+00 -0.72447519125E+03  0.72447519125E+03  0.00000000000E+00 0. -1.
         -6    2    1    2    0  503 -0.11233593164E+02  0.33356811011E+02 -0.37590084863E+03  0.41539217701E+03  0.17323493373E+03 0.  0.
        -24    2    3    3    0    0  0.87691030001E+01  0.87733669919E+02 -0.24910289803E+03  0.27590468325E+03  0.79353931399E+02 0.  0.
          6    2    1    2  501    0  0.11233593164E+02 -0.33356811011E+02 -0.30511169817E+03  0.35254565870E+03  0.17307923808E+03 0.  0.
         24    2    5    5    0    0 -0.88801922023E+01 -0.14292432947E+02 -0.53965320876E+02  0.99831180088E+02  0.82285340174E+02 0.  0.
          5    1    5    5  501    0  0.20113785367E+02 -0.19064378064E+02 -0.25114637729E+03  0.25271447861E+03  0.47000000000E+01 0. -1.
        -11    1    6    6    0    0  0.28083225627E+02  0.18404910361E+02 -0.14209699714E+02  0.36459893760E+02  0.00000000000E+00 0.  1.
         12    1    6    6    0    0 -0.36963417829E+02 -0.32697343307E+02 -0.39755621162E+02  0.63371286329E+02  0.00000000000E+00 0. -1.
         -5    1    3    3    0  503 -0.20002696165E+02 -0.54376858908E+02 -0.12679795059E+03  0.13948749375E+03  0.47000000000E+01 0.  1.
         11    1    4    4    0    0 -0.44444396726E+01  0.29461313225E+02 -0.13263143998E+02  0.32613386970E+02  0.00000000000E+00 0. -1.
        -12    1    4    4    0    0  0.13213542673E+02  0.58272356694E+02 -0.23583975403E+03  0.24329129628E+03  0.00000000000E+00 0.  1.
<mgrwt>
<rscale>  2 0.17673631E+03</rscale>
<asrwt>0</asrwt>
<pdfrwt beam="1">  1       21 0.66865613E-02 0.17677447E+03</pdfrwt>
<pdfrwt beam="2">  1       21 0.11145771E+00 0.17677447E+03</pdfrwt>
<totfact> 0.10425334E+05</totfact>
</mgrwt>
</event>
<event>
12    1  0.1074575E-001  0.1848301E+03  0.7546771E-02  0.1163594E+00
         21   -1    0    0  503  502  0.00000000000E+00  0.00000000000E+00  0.19205840041E+03  0.19205840041E+03  0.00000000000E+00 0.  1.
         21   -1    0    0  501  503 -0.00000000000E+00 -0.00000000000E+00 -0.18222963328E+03  0.18222963328E+03  0.00000000000E+00 0. -1.
          6    2    1    2  501    0 -0.53141880164E+02  0.26124700937E+02  0.38651262116E+02  0.18722415563E+03  0.17335629484E+03 0.  0.
         24    2    3    3    0    0 -0.68744274438E+02  0.65254104265E+02  0.61586306800E+02  0.13903026404E+03  0.80948549963E+02 0.  0.
         -6    2    1    2    0  502  0.53141880164E+02 -0.26124700937E+02 -0.28822494991E+02  0.18706387807E+03  0.17508740341E+03 0.  0.
        -24    2    5    5    0    0  0.90068659869E+02 -0.28363230997E+02  0.21186165167E+02  0.12468155552E+03  0.78611706050E+02 0.  0.
          5    1    3    3  501    0  0.15602394274E+02 -0.39129403329E+02 -0.22935044683E+02  0.48193891590E+02  0.47000000000E+01 0. -1.
        -11    1    4    4    0    0 -0.67837467356E+02  0.26388646527E+02  0.85762301991E+01  0.73292798877E+02  0.00000000000E+00 0.  1.
         12    1    4    4    0    0 -0.90680708194E+00  0.38865457738E+02  0.53010076601E+02  0.65737465159E+02  0.00000000000E+00 0. -1.
         -5    1    5    5    0  502 -0.36926779705E+02  0.22385300603E+01 -0.50008660158E+02  0.62382322552E+02  0.47000000000E+01 0.  1.
         11    1    6    6    0    0  0.35665094489E+02 -0.40896164005E+02 -0.17206575512E+02  0.56925929383E+02  0.00000000000E+00 0. -1.
        -12    1    6    6    0    0  0.54403565380E+02  0.12532933008E+02  0.38392740678E+02  0.67755626133E+02  0.00000000000E+00 0.  1.
<mgrwt>
<rscale>  2 0.18441895E+03</rscale>
<asrwt>0</asrwt>
<pdfrwt beam="1">  1       21 0.29547446E-01 0.18483008E+03</pdfrwt>
<pdfrwt beam="2">  1       21 0.28035328E-01 0.18483008E+03</pdfrwt>
<totfact> 0.13375424E+05</totfact>
</mgrwt>
</event>
<event>
12    1  0.1074575E-001  0.2473277E+03  0.7546771E-02  0.1115133E+00
         21   -1    0    0  503  502  0.00000000000E+00  0.00000000000E+00  0.99401019634E+03  0.99401019634E+03  0.00000000000E+00 0. -1.
         21   -1    0    0  501  503 -0.00000000000E+00 -0.00000000000E+00 -0.66872478256E+02  0.66872478256E+02  0.00000000000E+00 0.  1.
          6    2    1    2  501    0  0.10139743102E+03 -0.14226791795E+03  0.31032807337E+03  0.39633385617E+03  0.17394083168E+03 0.  0.
         24    2    3    3    0    0  0.13548345056E+03 -0.86393742806E+02  0.24788864687E+03  0.30575487318E+03  0.78851867807E+02 0.  0.
         -6    2    1    2    0  502 -0.10139743102E+03  0.14226791795E+03  0.61680964471E+03  0.66454881842E+03  0.17506968547E+03 0.  0.
        -24    2    5    5    0    0 -0.12829217308E+03  0.11305904335E+03  0.37776888019E+03  0.42218738872E+03  0.79319829796E+02 0.  0.
          5    1    3    3  501    0 -0.34086019545E+02 -0.55874175142E+02  0.62439426507E+02  0.90578982986E+02  0.47000000000E+01 0. -1.
        -11    1    4    4    0    0  0.97849410521E+02 -0.20987397889E+02  0.17026436358E+03  0.19749666203E+03  0.00000000000E+00 0.  1.
         12    1    4    4    0    0  0.37634040044E+02 -0.65406344917E+02  0.77624283290E+02  0.10825821115E+03  0.00000000000E+00 0. -1.
         -5    1    5    5    0  502  0.26894742064E+02  0.29208874601E+02  0.23904076452E+03  0.24236142970E+03  0.47000000000E+01 0.  1.
         11    1    6    6    0    0 -0.13970541723E+02  0.45902264047E+02  0.53526359803E+02  0.71883691296E+02  0.00000000000E+00 0. -1.
        -12    1    6    6    0    0 -0.11432163136E+03  0.67156779300E+02  0.32424252039E+03  0.35030369742E+03  0.00000000000E+00 0.  1.
<mgrwt>
<rscale>  2 0.24712802E+03</rscale>
<asrwt>0</asrwt>
<pdfrwt beam="1">  1       21 0.15292463E+00 0.24732771E+03</pdfrwt>
<pdfrwt beam="2">  1       21 0.10288074E-01 0.24732771E+03</pdfrwt>
<totfact> 0.21198358E+04</totfact>
</mgrwt>
</event>
<event>
12    1  0.1074575E-001  0.2027679E+03  0.7546771E-02  0.1147673E+00
         21   -1    0    0  503  502  0.00000000000E+00  0.00000000000E+00  0.26082540428E+03  0.26082540428E+03  0.00000000000E+00 0. -1.
         21   -1    0    0  501  503 -0.00000000000E+00 -0.00000000000E+00 -0.31848025285E+03  0.31848025285E+03  0.00000000000E+00 0. -1.
          6    2    1    2  501    0 -0.40779012612E+02 -0.95959024556E+02 -0.23530871421E+03  0.31062034096E+03  0.17390728269E+03 0.  0.
         24    2    3    3    0    0 -0.40338548193E+02  0.19868872352E+01 -0.49323027548E+02  0.10036725231E+03  0.77522113609E+02 0.  0.
         -6    2    1    2    0  502  0.40779012612E+02  0.95959024556E+02  0.17765386564E+03  0.26868531616E+03  0.17251040804E+03 0.  0.
        -24    2    5    5    0    0 -0.96195108728E+01  0.99573467143E+02  0.62742080202E+02  0.14306730871E+03  0.80772989571E+02 0.  0.
          5    1    3    3  501    0 -0.44046441973E+00 -0.97945911791E+02 -0.18598568666E+03  0.21025308865E+03  0.47000000000E+01 0. -1.
        -11    1    4    4    0    0  0.50831335977E+01  0.30889598828E+02 -0.74932512148E+01  0.32189351915E+02  0.00000000000E+00 0.  1.
         12    1    4    4    0    0 -0.45421681790E+02 -0.28902711593E+02 -0.41829776333E+02  0.68177900394E+02  0.00000000000E+00 0. -1.
         -5    1    5    5    0  502  0.50398523485E+02 -0.36144425867E+01  0.11491178544E+03  0.12561800745E+03  0.47000000000E+01 0.  1.
         11    1    6    6    0    0 -0.12948973809E+02  0.36590540925E+02  0.69532090477E+02  0.79631998682E+02  0.00000000000E+00 0. -1.
        -12    1    6    6    0    0  0.33294629364E+01  0.62982926218E+02 -0.67900102752E+01  0.63435310025E+02  0.00000000000E+00 0.  1.
<mgrwt>
<rscale>  2 0.20246800E+03</rscale>
<asrwt>0</asrwt>
<pdfrwt beam="1">  1       21 0.40126985E-01 0.20276786E+03</pdfrwt>
<pdfrwt beam="2">  1       21 0.48996962E-01 0.20276786E+03</pdfrwt>
<totfact> 0.23649152E+04</totfact>
</mgrwt>
</event>
<event>
12    1  0.1074575E-001  0.1851379E+03  0.7546771E-02  0.1163561E+00
         21   -1    0    0  501  502  0.00000000000E+00  0.00000000000E+00  0.50143623720E+03  0.50143623720E+03  0.00000000000E+00 0.  1.
         21   -1    0    0  502  503 -0.00000000000E+00 -0.00000000000E+00 -0.69791395510E+02  0.69791395510E+02  0.00000000000E+00 0. -1.
         -6    2    1    2    0  503  0.67924286094E+02  0.13048973401E+02  0.16399524759E+03  0.24732668925E+03  0.17173254099E+03 0.  0.
        -24    2    3    3    0    0  0.74543723967E+02  0.59110528625E+02  0.15181006040E+03  0.19899396106E+03  0.86611088913E+02 0.  0.
          6    2    1    2  501    0 -0.67924286094E+02 -0.13048973401E+02  0.26764959409E+03  0.32390094346E+03  0.16879434707E+03 0.  0.
         24    2    5    5    0    0 -0.68250854062E+01 -0.49739995705E+02  0.21607912493E+03  0.23580470782E+03  0.79956382103E+02 0.  0.
          5    1    5    5  501    0 -0.61099200688E+02  0.36691022305E+02  0.51570469168E+02  0.88096235633E+02  0.47000000000E+01 0. -1.
        -11    1    6    6    0    0  0.17411187002E+02 -0.48647667478E+02  0.66212868973E+02  0.83987433593E+02  0.00000000000E+00 0.  1.
         12    1    6    6    0    0 -0.24236272408E+02 -0.10923282271E+01  0.14986625595E+03  0.15181727423E+03  0.00000000000E+00 0. -1.
         -5    1    3    3    0  503 -0.66194378728E+01 -0.46061555225E+02  0.12185187193E+02  0.48332728191E+02  0.47000000000E+01 0.  1.
         13    1    4    4    0    0  0.87604446809E+02  0.61210981269E+02  0.10301142261E+03  0.14843408138E+03  0.00000000000E+00 0. -1.
        -14    1    4    4    0    0 -0.13060722842E+02 -0.21004526433E+01  0.48798637796E+02  0.50559879680E+02  0.00000000000E+00 0.  1.
<mgrwt>
<rscale>  2 0.18445360E+03</rscale>
<asrwt>0</asrwt>
<pdfrwt beam="1">  1       21 0.77144034E-01 0.18513792E+03</pdfrwt>
<pdfrwt beam="2">  1       21 0.10737138E-01 0.18513792E+03</pdfrwt>
<totfact> 0.10709821E+05</totfact>
</mgrwt>
</event>
<event>
12    1  0.1074575E-001  0.2249607E+03  0.7546771E-02  0.1130614E+00
         21   -1    0    0  503  502  0.00000000000E+00  0.00000000000E+00  0.19351139505E+04  0.19351139505E+04  0.00000000000E+00 0.  1.
         21   -1    0    0  501  503 -0.00000000000E+00 -0.00000000000E+00 -0.32840961958E+02  0.32840961958E+02  0.00000000000E+00 0. -1.
          6    2    1    2  501    0 -0.66376037235E+02  0.12795980902E+03  0.50264489764E+03  0.55068977772E+03  0.17270740319E+03 0.  0.
         24    2    3    3    0    0 -0.48011809424E+02  0.11174353597E+02  0.12901166453E+03  0.15877145670E+03  0.78322192621E+02 0.  0.
         -6    2    1    2    0  502  0.66376037235E+02 -0.12795980902E+03  0.13996280909E+04  0.14172651348E+04  0.17000640654E+03 0.  0.
        -24    2    5    5    0    0  0.51633302748E+02 -0.13649867412E+03  0.92475462373E+03  0.94206290383E+03  0.10494529371E+03 0.  0.
          5    1    3    3  501    0 -0.18364227811E+02  0.11678545542E+03  0.37363323312E+03  0.39191832102E+03  0.47000000000E+01 0. -1.
        -13    1    4    4    0    0 -0.15379563097E+02 -0.12605133495E+02  0.11395689373E+03  0.11567883981E+03  0.00000000000E+00 0.  1.
         14    1    4    4    0    0 -0.32632246327E+02  0.23779487092E+02  0.15054770795E+02  0.43092616889E+02  0.00000000000E+00 0. -1.
         -5    1    5    5    0  502  0.14742734487E+02  0.85388651056E+01  0.47487346719E+03  0.47520223093E+03  0.47000000000E+01 0.  1.
         11    1    6    6    0    0  0.24245266823E+02 -0.96443400950E+01  0.42275654082E+03  0.42356102166E+03  0.00000000000E+00 0. -1.
        -12    1    6    6    0    0  0.27388035925E+02 -0.12685433403E+03  0.50199808291E+03  0.51850188217E+03  0.00000000000E+00 0.  1.
<mgrwt>
<rscale>  2 0.22444223E+03</rscale>
<asrwt>0</asrwt>
<pdfrwt beam="1">  1       21 0.29770975E+00 0.22496075E+03</pdfrwt>
<pdfrwt beam="2">  1       21 0.50524572E-02 0.22496075E+03</pdfrwt>
<totfact> 0.89980105E+03</totfact>
</mgrwt>
</event>
<event>
12    1  0.1074575E-001  0.1963404E+03  0.7546771E-02  0.1153050E+00
         21   -1    0    0  501  502  0.00000000000E+00  0.00000000000E+00  0.14027198186E+04  0.14027198186E+04  0.00000000000E+00 0. -1.
         21   -1    0    0  502  503 -0.00000000000E+00 -0.00000000000E+00 -0.75451943851E+02  0.75451943851E+02  0.00000000000E+00 0. -1.
         -6    2    1    2    0  503 -0.83273437147E+02 -0.42069303751E+02  0.74113728491E+02  0.20986282086E+03  0.17275782812E+03 0.  0.
        -24    2    3    3    0    0 -0.11562591664E+02 -0.80538404755E+02  0.49175970242E+02  0.12462023246E+03  0.80571695535E+02 0.  0.
          6    2    1    2  501    0  0.83273437147E+02  0.42069303751E+02  0.12531541463E+04  0.12683089416E+04  0.17177882692E+03 0.  0.
         24    2    5    5    0    0 -0.87786954217E+01 -0.14139304345E+02  0.39806497166E+03  0.40643157836E+03  0.80336298171E+02 0.  0.
          5    1    5    5  501    0  0.92052132568E+02  0.56208608096E+02  0.85508917461E+03  0.86187736325E+03  0.47000000000E+01 0. -1.
        -13    1    6    6    0    0  0.11173300549E+02 -0.40606743388E+02  0.13858409065E+03  0.14484232957E+03  0.00000000000E+00 0.  1.
         14    1    6    6    0    0 -0.19951995970E+02  0.26467439043E+02  0.25948088100E+03  0.26158924878E+03  0.00000000000E+00 0. -1.
         -5    1    3    3    0  503 -0.71710845483E+02  0.38469101004E+02  0.24937758249E+02  0.85242588407E+02  0.47000000000E+01 0.  1.
         11    1    4    4    0    0  0.32254111821E+02 -0.54872057819E+02  0.29622239463E+02  0.70205039203E+02  0.00000000000E+00 0. -1.
        -12    1    4    4    0    0 -0.43816703485E+02 -0.25666346936E+02  0.19553730778E+02  0.54415193252E+02  0.00000000000E+00 0.  1.
<mgrwt>
<rscale>  2 0.19612485E+03</rscale>
<asrwt>0</asrwt>
<pdfrwt beam="1">  1       21 0.21580303E+00 0.19634042E+03</pdfrwt>
<pdfrwt beam="2">  1       21 0.11607992E-01 0.19634042E+03</pdfrwt>
<totfact> 0.66261081E+03</totfact>
</mgrwt>
</event>
<event>
12    1  0.1074575E-001  0.2006592E+03  0.7546771E-02  0.1149223E+00
         21   -1    0    0  501  502  0.00000000000E+00  0.00000000000E+00  0.15042265200E+04  0.15042265200E+04  0.00000000000E+00 0.  1.
         21   -1    0    0  502  503 -0.00000000000E+00 -0.00000000000E+00 -0.27214330253E+02  0.27214330253E+02  0.00000000000E+00 0.  1.
         -6    2    1    2    0  503 -0.14966524714E+02 -0.99654259067E+02  0.83896340172E+03  0.86258332643E+03  0.17330734953E+03 0.  0.
        -24    2    3    3    0    0 -0.76192104737E+02 -0.50655883423E+02  0.42466168208E+03  0.44089930093E+03  0.75388288128E+02 0.  0.
          6    2    1    2  501    0  0.14966524714E+02  0.99654259067E+02  0.63804878799E+03  0.66885752378E+03  0.17351992120E+03 0.  0.
         24    2    5    5    0    0  0.72263165219E+02  0.79973050318E+02  0.50876145276E+03  0.52600249222E+03  0.78884422959E+02 0.  0.
          5    1    5    5  501    0 -0.57296640505E+02  0.19681208749E+02  0.12928733523E+03  0.14285503156E+03  0.47000000000E+01 0. -1.
        -11    1    6    6    0    0  0.58297206534E+01  0.44426040384E+02  0.90226852376E+02  0.10073998013E+03  0.00000000000E+00 0.  1.
         12    1    6    6    0    0  0.66433444565E+02  0.35547009934E+02  0.41853460038E+03  0.42526251209E+03  0.00000000000E+00 0. -1.
         -5    1    3    3    0  503  0.61225580024E+02 -0.48998375644E+02  0.41430171964E+03  0.42168402550E+03  0.47000000000E+01 0.  1.
         13    1    4    4    0    0  0.10828807524E+02 -0.77142668913E+01  0.12982246545E+03  0.13050151540E+03  0.00000000000E+00 0. -1.
        -14    1    4    4    0    0 -0.87020912262E+02 -0.42941616532E+02  0.29483921663E+03  0.31039778553E+03  0.00000000000E+00 0.  1.
<mgrwt>
<rscale>  2 0.20061328E+03</rscale>
<asrwt>0</asrwt>
<pdfrwt beam="1">  1       21 0.23141940E+00 0.20065924E+03</pdfrwt>
<pdfrwt beam="2">  1       21 0.41868212E-02 0.20065924E+03</pdfrwt>
<totfact> 0.30929846E+04</totfact>
</mgrwt>
</event>
<event>
12    1  0.1074575E-001  0.1941205E+03  0.7546771E-02  0.1155086E+00
         21   -1    0    0  501  502  0.00000000000E+00  0.00000000000E+00  0.55169739466E+02  0.55169739466E+02  0.00000000000E+00 0. -1.
         21   -1    0    0  502  503 -0.00000000000E+00 -0.00000000000E+00 -0.69044324036E+03  0.69044324036E+03  0.00000000000E+00 0.  1.
         -6    2    1    2    0  503 -0.83137130177E+02 -0.30377586237E+02 -0.36789805880E+03  0.41597083618E+03  0.17276624300E+03 0.  0.
        -24    2    3    3    0    0 -0.57229156354E+02  0.19537838077E+02 -0.33792019971E+03  0.35206829532E+03  0.78135265686E+02 0.  0.
          6    2    1    2  501    0  0.83137130177E+02  0.30377586237E+02 -0.26737544209E+03  0.32964214365E+03  0.17128845751E+03 0.  0.
         24    2    5    5    0    0  0.19372805693E+02 -0.28225098031E+02 -0.20737327351E+03  0.22417881394E+03  0.77977588384E+02 0.  0.
          5    1    5    5  501    0  0.63764324485E+02  0.58602684268E+02 -0.60002168579E+02  0.10546332971E+03  0.47000000000E+01 0. -1.
        -13    1    6    6    0    0  0.46261711703E+02 -0.10368979557E+02 -0.15983528803E+03  0.16671826837E+03  0.00000000000E+00 0.  1.
         14    1    6    6    0    0 -0.26888906010E+02 -0.17856118474E+02 -0.47537985481E+02  0.57460545568E+02  0.00000000000E+00 0. -1.
         -5    1    3    3    0  503 -0.25907973824E+02 -0.49915424314E+02 -0.29977859090E+02  0.63902540855E+02  0.47000000000E+01 0.  1.
         13    1    4    4    0    0 -0.33191378959E+00 -0.85561655310E+00  0.43788305463E+01  0.44739695354E+01  0.00000000000E+00 0. -1.
        -14    1    4    4    0    0 -0.56897242564E+02  0.20393454630E+02 -0.34229903026E+03  0.34759432579E+03  0.00000000000E+00 0.  1.
<mgrwt>
<rscale>  2 0.19379112E+03</rscale>
<asrwt>0</asrwt>
<pdfrwt beam="1">  1       21 0.84876530E-02 0.19412046E+03</pdfrwt>
<pdfrwt beam="2">  1       21 0.10622203E+00 0.19412046E+03</pdfrwt>
<totfact> 0.76861121E+04</totfact>
</mgrwt>
</event>
<event>
12    1  0.1074575E-001  0.2376088E+03  0.7546771E-02  0.1121440E+00
         21   -1    0    0  501  502  0.00000000000E+00  0.00000000000E+00  0.55159277438E+02  0.55159277438E+02  0.00000000000E+00 0. -1.
         21   -1    0    0  502  503 -0.00000000000E+00 -0.00000000000E+00 -0.11870409285E+04  0.11870409285E+04  0.00000000000E+00 0. -1.
         -6    2    1    2    0  503  0.98938963089E+01 -0.16267752581E+03 -0.33437041243E+03  0.41004511554E+03  0.17254436381E+03 0.  0.
        -24    2    3    3    0    0  0.63625022787E+02 -0.15158618204E+03 -0.26300865486E+03  0.31990831783E+03  0.78366224681E+02 0.  0.
          6    2    1    2  501    0 -0.98938963089E+01  0.16267752581E+03 -0.79751123864E+03  0.83215509040E+03  0.17290474876E+03 0.  0.
         24    2    5    5    0    0  0.26744039335E+02  0.65047629892E+02 -0.21067908785E+03  0.23611146943E+03  0.80103121942E+02 0.  0.
          5    1    5    5  501    0 -0.36637935644E+02  0.97629895917E+02 -0.58683215079E+03  0.59604362097E+03  0.47000000000E+01 0. -1.
        -13    1    6    6    0    0  0.17657272733E+02 -0.54931069797E+01 -0.11720711293E+03  0.11865690382E+03  0.00000000000E+00 0.  1.
         14    1    6    6    0    0  0.90867666028E+01  0.70540736872E+02 -0.93471974925E+02  0.11745456561E+03  0.00000000000E+00 0. -1.
         -5    1    3    3    0  503 -0.53731126479E+02 -0.11091343769E+02 -0.71361757569E+02  0.90136797716E+02  0.47000000000E+01 0.  1.
         11    1    4    4    0    0  0.55933617602E+02 -0.68026361192E+02 -0.18694812652E+03  0.20665371374E+03  0.00000000000E+00 0. -1.
        -12    1    4    4    0    0  0.76914051851E+01 -0.83559820849E+02 -0.76060528348E+02  0.11325460409E+03  0.00000000000E+00 0.  1.
<mgrwt>
<rscale>  2 0.23754319E+03</rscale>
<asrwt>0</asrwt>
<pdfrwt beam="1">  1       21 0.84860426E-02 0.23760875E+03</pdfrwt>
<pdfrwt beam="2">  1       21 0.18262168E+00 0.23760875E+03</pdfrwt>
<totfact> 0.18337399E+04</totfact>
</mgrwt>
</event>
<event>
12    1  0.1074575E-001  0.3521698E+03  0.7546771E-02  0.1062060E+00
         21   -1    0    0  501  502  0.00000000000E+00  0.00000000000E+00  0.80196797078E+02  0.80196797078E+02  0.00000000000E+00 0. -1.
         21   -1    0    0  502  503 -0.00000000000E+00 -0.00000000000E+00 -0.24846802550E+04  0.24846802550E+04  0.00000000000E+00 0.  1.
         -6    2    1    2    0  503 -0.29653350860E+03 -0.60325993262E+02 -0.41169522522E+03  0.54177164353E+03  0.18014496406E+03 0.  0.
        -24    2    3    3    0    0 -0.24817540697E+03  0.41160365246E+01 -0.25211585280E+03  0.36294505910E+03  0.80986037745E+02 0.  0.
          6    2    1    2  501    0  0.29653350860E+03  0.60325993262E+02 -0.19927882327E+04  0.20231054085E+04  0.17372163517E+03 0.  0.
         24    2    5    5    0    0  0.31280144033E+03  0.55125652838E+02 -0.18067295112E+04  0.18362053631E+04  0.80591749912E+02 0.  0.
          5    1    5    5  501    0 -0.16267931728E+02  0.52003404241E+01 -0.18605872154E+03  0.18690004549E+03  0.47000000000E+01 0. -1.
        -13    1    6    6    0    0  0.10745517344E+03  0.37036745690E+02 -0.46247314959E+03  0.47623497239E+03  0.00000000000E+00 0.  1.
         14    1    6    6    0    0  0.20534626688E+03  0.18088907148E+02 -0.13442563616E+04  0.13599703907E+04  0.00000000000E+00 0. -1.
         -5    1    3    3    0  503 -0.48358101625E+02 -0.64442029787E+02 -0.15957937242E+03  0.17882658443E+03  0.47000000000E+01 0.  1.
         11    1    4    4    0    0 -0.55436792072E+02  0.29215232940E+01 -0.15254069853E+02  0.57571345830E+02  0.00000000000E+00 0. -1.
        -12    1    4    4    0    0 -0.19273861490E+03  0.11945132306E+01 -0.23686178294E+03  0.30537371327E+03  0.00000000000E+00 0.  1.
<mgrwt>
<rscale>  2 0.35135645E+03</rscale>
<asrwt>0</asrwt>
<pdfrwt beam="1">  1       21 0.12337971E-01 0.35216978E+03</pdfrwt>
<pdfrwt beam="2">  1       21 0.38225845E+00 0.35216978E+03</pdfrwt>
<totfact> 0.52206000E+02</totfact>
</mgrwt>
</event>
<event>
12    1  0.1074575E-001  0.1761302E+03  0.7546771E-02  0.1171768E+00
         21   -1    0    0  503  502  0.00000000000E+00  0.00000000000E+00  0.27659724365E+03  0.27659724365E+03  0.00000000000E+00 0.  1.
         21   -1    0    0  501  503 -0.00000000000E+00 -0.00000000000E+00 -0.28246946378E+03  0.28246946378E+03  0.00000000000E+00 0.  1.
          6    2    1    2  501    0 -0.26508036284E+02  0.10516602474E+02 -0.22026030615E+03  0.28160663072E+03  0.17313121350E+03 0.  0.
         24    2    3    3    0    0 -0.78531332826E+02  0.22546600240E+02 -0.10962948962E+03  0.15867408094E+03  0.80519063275E+02 0.  0.
         -6    2    1    2    0  502  0.26508036284E+02 -0.10516602474E+02  0.21438808602E+03  0.27746007671E+03  0.17380612137E+03 0.  0.
        -24    2    5    5    0    0  0.21024684682E+02 -0.21695695116E+02  0.29148584592E+02  0.91743081937E+02  0.81574582727E+02 0.  0.
          5    1    3    3  501    0  0.52023296542E+02 -0.12029997766E+02 -0.11063081653E+03  0.12293254978E+03  0.47000000000E+01 0. -1.
        -11    1    4    4    0    0 -0.61442350236E+02  0.47126840730E+01 -0.11756045453E+03  0.13273218247E+03  0.00000000000E+00 0.  1.
         12    1    4    4    0    0 -0.17088982590E+02  0.17833916167E+02  0.79309649130E+01  0.25941898471E+02  0.00000000000E+00 0. -1.
         -5    1    5    5    0  502  0.54833516017E+01  0.11179092643E+02  0.18523950143E+03  0.18571699477E+03  0.47000000000E+01 0.  1.
         11    1    6    6    0    0 -0.10551643211E+02  0.26591334196E+02  0.43203491428E+01  0.28932708920E+02  0.00000000000E+00 0. -1.
        -12    1    6    6    0    0  0.31576327893E+02 -0.48287029312E+02  0.24828235449E+02  0.62810373016E+02  0.00000000000E+00 0.  1.
<mgrwt>
<rscale>  2 0.17596346E+03</rscale>
<asrwt>0</asrwt>
<pdfrwt beam="1">  1       21 0.42553423E-01 0.17613019E+03</pdfrwt>
<pdfrwt beam="2">  1       21 0.43456840E-01 0.17613019E+03</pdfrwt>
<totfact> 0.27291011E+04</totfact>
</mgrwt>
</event>
<event>
12    1  0.1074575E-001  0.1766010E+03  0.7546771E-02  0.1171545E+00
         21   -1    0    0  501  502  0.00000000000E+00  0.00000000000E+00  0.10972384571E+03  0.10972384571E+03  0.00000000000E+00 0. -1.
         21   -1    0    0  502  503 -0.00000000000E+00 -0.00000000000E+00 -0.14503573983E+04  0.14503573983E+04  0.00000000000E+00 0. -1.
         -6    2    1    2    0  503  0.23071155547E+01  0.33628362669E+02 -0.13699391586E+04  0.13810652259E+04  0.17167314916E+03 0.  0.
        -24    2    3    3    0    0 -0.76897273684E+01  0.44720517109E+01 -0.30014448153E+03  0.31081629757E+03  0.80255404094E+02 0.  0.
          6    2    1    2  501    0 -0.23071155547E+01 -0.33628362669E+02  0.29305606065E+02  0.17901601814E+03  0.17335433841E+03 0.  0.
         24    2    5    5    0    0 -0.24792679720E+02  0.29221994771E+02 -0.24928654041E+02  0.92881164595E+02  0.80850918350E+02 0.  0.
          5    1    5    5  501    0  0.22485564165E+02 -0.62850357441E+02  0.54234260106E+02  0.86134853547E+02  0.47000000000E+01 0. -1.
        -13    1    6    6    0    0 -0.92494742821E+01 -0.28169799094E+02 -0.12277146100E+02  0.32090787959E+02  0.00000000000E+00 0.  1.
         14    1    6    6    0    0 -0.15543205438E+02  0.57391793865E+02 -0.12651507941E+02  0.60790376636E+02  0.00000000000E+00 0. -1.
         -5    1    3    3    0  503  0.99968429232E+01  0.29156310958E+02 -0.10697946771E+04  0.10702489283E+04  0.47000000000E+01 0.  1.
         13    1    4    4    0    0 -0.32438654859E+02 -0.24975672916E+02 -0.18278119386E+03  0.18730994474E+03  0.00000000000E+00 0. -1.
        -14    1    4    4    0    0  0.24748927491E+02  0.29447724627E+02 -0.11736328767E+03  0.12350635283E+03  0.00000000000E+00 0.  1.
<mgrwt>
<rscale>  2 0.17618706E+03</rscale>
<asrwt>0</asrwt>
<pdfrwt beam="1">  1       21 0.16880592E-01 0.17660101E+03</pdfrwt>
<pdfrwt beam="2">  1       21 0.22313190E+00 0.17660101E+03</pdfrwt>
<totfact> 0.30948980E+03</totfact>
</mgrwt>
</event>
<event>
12    1  0.1074575E-001  0.2025892E+03  0.7546771E-02  0.1147643E+00
         21   -1    0    0  501  502  0.00000000000E+00  0.00000000000E+00  0.98607236100E+02  0.98607236100E+02  0.00000000000E+00 0.  1.
         21   -1    0    0  502  503 -0.00000000000E+00 -0.00000000000E+00 -0.41898738694E+03  0.41898738694E+03  0.00000000000E+00 0.  1.
         -6    2    1    2    0  503  0.58991341659E+02 -0.86769755489E+02 -0.18356622203E+03  0.27313512719E+03  0.17290827331E+03 0.  0.
        -24    2    3    3    0    0 -0.26396002052E+02 -0.98145226232E+01 -0.55790895100E+02  0.10119987629E+03  0.79597218582E+02 0.  0.
          6    2    1    2  501    0 -0.58991341659E+02  0.86769755489E+02 -0.13681392881E+03  0.24445949585E+03  0.17330154395E+03 0.  0.
         24    2    5    5    0    0 -0.40964738759E+02  0.12829522492E+03 -0.10303087696E+03  0.18777874412E+03  0.80670444271E+02 0.  0.
          5    1    5    5  501    0 -0.18026602900E+02 -0.41525469431E+02 -0.33783051858E+02  0.56680751727E+02  0.47000000000E+01 0. -1.
        -11    1    6    6    0    0 -0.27645417695E+02 -0.35558888862E+00 -0.17728747521E+02  0.32843630305E+02  0.00000000000E+00 0.  1.
         12    1    6    6    0    0 -0.13319321065E+02  0.12865081381E+03 -0.85302129435E+02  0.15493511382E+03  0.00000000000E+00 0. -1.
         -5    1    3    3    0  503  0.85387343712E+02 -0.76955232866E+02 -0.12777532693E+03  0.17193525090E+03  0.47000000000E+01 0.  1.
         13    1    4    4    0    0 -0.59951184386E+01 -0.10356464081E+02 -0.73324268110E+02  0.74294320693E+02  0.00000000000E+00 0. -1.
        -14    1    4    4    0    0 -0.20400883613E+02  0.54194145796E+00  0.17533373010E+02  0.26905555595E+02  0.00000000000E+00 0.  1.
<mgrwt>
<rscale>  2 0.20250509E+03</rscale>
<asrwt>0</asrwt>
<pdfrwt beam="1">  1       21 0.15170344E-01 0.20258922E+03</pdfrwt>
<pdfrwt beam="2">  1       21 0.64459599E-01 0.20258922E+03</pdfrwt>
<totfact> 0.84927971E+04</totfact>
</mgrwt>
</event>
<event>
12    1  0.1074575E-001  0.1740682E+03  0.7546771E-02  0.1174084E+00
         21   -1    0    0  503  502  0.00000000000E+00  0.00000000000E+00  0.65705298262E+02  0.65705298262E+02  0.00000000000E+00 0.  1.
         21   -1    0    0  501  503 -0.00000000000E+00 -0.00000000000E+00 -0.49295610282E+03  0.49295610282E+03  0.00000000000E+00 0.  1.
          6    2    1    2  501    0  0.26524400246E+00 -0.11875352865E+02 -0.28829882635E+03  0.33593422130E+03  0.17203050138E+03 0.  0.
         24    2    3    3    0    0 -0.78549660103E+01 -0.12056640532E+02 -0.30544015190E+03  0.31639232483E+03  0.81261022315E+02 0.  0.
         -6    2    1    2    0  502 -0.26524400246E+00  0.11875352865E+02 -0.13895197821E+03  0.22272717979E+03  0.17366245998E+03 0.  0.
        -24    2    5    5    0    0 -0.16199786349E+02 -0.12829214233E+02 -0.16414369959E+03  0.18372797337E+03  0.79911152320E+02 0.  0.
          5    1    3    3  501    0  0.81202100127E+01  0.18128766703E+00  0.17141325551E+02  0.19541896466E+02  0.47000000000E+01 0. -1.
        -13    1    4    4    0    0 -0.18094292980E+01 -0.17165630165E+02 -0.83103372365E+01  0.19157103078E+02  0.00000000000E+00 0.  1.
         14    1    4    4    0    0 -0.60455367123E+01  0.51089896331E+01 -0.29712981466E+03  0.29723522175E+03  0.00000000000E+00 0. -1.
         -5    1    5    5    0  502  0.15934542347E+02  0.24704567098E+02  0.25191721382E+02  0.38999206421E+02  0.47000000000E+01 0.  1.
         13    1    6    6    0    0 -0.42726739516E+02 -0.28845602990E+02 -0.10275269266E+03  0.11495981442E+03  0.00000000000E+00 0. -1.
        -14    1    6    6    0    0  0.26526953166E+02  0.16016388757E+02 -0.61391006933E+02  0.68768158950E+02  0.00000000000E+00 0.  1.
<mgrwt>
<rscale>  2 0.17365975E+03</rscale>
<asrwt>0</asrwt>
<pdfrwt beam="1">  1       21 0.10108507E-01 0.17406822E+03</pdfrwt>
<pdfrwt beam="2">  1       21 0.75839403E-01 0.17406822E+03</pdfrwt>
<totfact> 0.12431386E+05</totfact>
</mgrwt>
</event>
<event>
12    1  0.1074575E-001  0.2153506E+03  0.7546771E-02  0.1137558E+00
         21   -1    0    0  501  502  0.00000000000E+00  0.00000000000E+00  0.82834295690E+03  0.82834295690E+03  0.00000000000E+00 0. -1.
         21   -1    0    0  502  503 -0.00000000000E+00 -0.00000000000E+00 -0.66688918702E+02  0.66688918702E+02  0.00000000000E+00 0. -1.
         -6    2    1    2    0  503 -0.16231953049E+01  0.12812450447E+03  0.19912326063E+03  0.29268913756E+03  0.17204166622E+03 0.  0.
        -24    2    3    3    0    0 -0.15808659691E+01  0.98004121303E+02  0.22136579020E+03  0.25495242605E+03  0.79941350668E+02 0.  0.
          6    2    1    2  501    0  0.16231953049E+01 -0.12812450447E+03  0.56253077757E+03  0.60234273804E+03  0.17308198909E+03 0.  0.
         24    2    5    5    0    0  0.14491877696E+02 -0.13032529220E+03  0.27856602285E+03  0.31803917075E+03  0.79719437629E+02 0.  0.
          5    1    5    5  501    0 -0.12868682391E+02  0.22007877314E+01  0.28396475472E+03  0.28430356730E+03  0.47000000000E+01 0. -1.
        -11    1    6    6    0    0 -0.16198090652E+02 -0.69621757534E+01  0.85495963844E+01  0.19594530623E+02  0.00000000000E+00 0.  1.
         12    1    6    6    0    0  0.30689968348E+02 -0.12336311645E+03  0.27001642646E+03  0.29844464012E+03  0.00000000000E+00 0. -1.
         -5    1    3    3    0  503 -0.42329335865E-01  0.30120383165E+02 -0.22242529576E+02  0.37736711512E+02  0.47000000000E+01 0.  1.
         11    1    4    4    0    0 -0.17470328674E+02  0.10644369824E+03  0.18005029241E+03  0.20988944965E+03  0.00000000000E+00 0. -1.
        -12    1    4    4    0    0  0.15889462705E+02 -0.84395769338E+01  0.41315497797E+02  0.45062976400E+02  0.00000000000E+00 0.  1.
<mgrwt>
<rscale>  2 0.21514153E+03</rscale>
<asrwt>0</asrwt>
<pdfrwt beam="1">  1       21 0.12743737E+00 0.21535064E+03</pdfrwt>
<pdfrwt beam="2">  1       21 0.10259834E-01 0.21535064E+03</pdfrwt>
<totfact> 0.34790596E+04</totfact>
</mgrwt>
</event>
<event>
12    1  0.1074575E-001  0.2004187E+03  0.7546771E-02  0.1149549E+00
         21   -1    0    0  503  502  0.00000000000E+00  0.00000000000E+00  0.12121011792E+03  0.12121011792E+03  0.00000000000E+00 0. -1.
         21   -1    0    0  501  503 -0.00000000000E+00 -0.00000000000E+00 -0.71624774743E+03  0.71624774743E+03  0.00000000000E+00 0. -1.
          6    2    1    2  501    0  0.58125458910E+01 -0.99021630300E+02 -0.60470119661E+03  0.63680635955E+03  0.17326203690E+03 0.  0.
         24    2    3    3    0    0  0.49197412917E+02 -0.33466959187E+01 -0.27370305489E+03  0.28950562593E+03  0.80427354649E+02 0.  0.
         -6    2    1    2    0  502 -0.58125458910E+01  0.99021630300E+02  0.96635671002E+01  0.20065150579E+03  0.17415100715E+03 0.  0.
        -24    2    5    5    0    0 -0.57336955019E+02  0.93445506237E+02  0.34969012829E+02  0.14278689244E+03  0.84532098913E+02 0.  0.
          5    1    3    3  501    0 -0.43384867026E+02 -0.95674934381E+02 -0.33099814172E+03  0.34730073363E+03  0.47000000000E+01 0. -1.
        -11    1    4    4    0    0  0.22172933263E+02  0.37348249400E+02 -0.99162494634E+02  0.10825770663E+03  0.00000000000E+00 0.  1.
         12    1    4    4    0    0  0.27024479653E+02 -0.40694945318E+02 -0.17454056025E+03  0.18124791930E+03  0.00000000000E+00 0. -1.
         -5    1    5    5    0  502  0.51524409128E+02  0.55761240628E+01 -0.25305445728E+02  0.57864613358E+02  0.47000000000E+01 0.  1.
         13    1    6    6    0    0 -0.87305642868E+01  0.83025151181E+02  0.40465485756E+02  0.92773131988E+02  0.00000000000E+00 0. -1.
        -14    1    6    6    0    0 -0.48606390733E+02  0.10420355055E+02 -0.54964729268E+01  0.50013760448E+02  0.00000000000E+00 0.  1.
<mgrwt>
<rscale>  2 0.20022539E+03</rscale>
<asrwt>0</asrwt>
<pdfrwt beam="1">  1       21 0.18647711E-01 0.20041867E+03</pdfrwt>
<pdfrwt beam="2">  1       21 0.11019196E+00 0.20041867E+03</pdfrwt>
<totfact> 0.17015953E+04</totfact>
</mgrwt>
</event>
<event>
12    1  0.1074575E-001  0.1804554E+03  0.7546771E-02  0.1167556E+00
         21   -1    0    0  503  502  0.00000000000E+00  0.00000000000E+00  0.17284615391E+03  0.17284615391E+03  0.00000000000E+00 0. -1.
         21   -1    0    0  501  503 -0.00000000000E+00 -0.00000000000E+00 -0.28847158556E+03  0.28847158556E+03  0.00000000000E+00 0. -1.
          6    2    1    2  501    0 -0.52111113710E+02  0.94878058327E+01 -0.19431445923E+03  0.26518341968E+03  0.17250666762E+03 0.  0.
         24    2    3    3    0    0  0.20740243067E+02  0.85901356580E+01 -0.38672296444E+02  0.93268618587E+02  0.81850721364E+02 0.  0.
         -6    2    1    2    0  502  0.52111113710E+02 -0.94878058327E+01  0.78689027580E+02  0.19613431979E+03  0.17167155183E+03 0.  0.
        -24    2    5    5    0    0  0.43333247389E+02  0.56928287475E+02  0.27075194586E+02  0.11143351612E+03  0.81029390395E+02 0.  0.
          5    1    3    3  501    0 -0.72851356777E+02  0.89767017465E+00 -0.15564216279E+03  0.17191480109E+03  0.47000000000E+01 0. -1.
        -13    1    4    4    0    0  0.40788796646E+01  0.29535530518E+02  0.14938217307E+02  0.33348690508E+02  0.00000000000E+00 0.  1.
         14    1    4    4    0    0  0.16661363402E+02 -0.20945394860E+02 -0.53610513751E+02  0.59919928078E+02  0.00000000000E+00 0. -1.
         -5    1    5    5    0  502  0.87778663216E+01 -0.66416093308E+02  0.51613832994E+02  0.84700803678E+02  0.47000000000E+01 0.  1.
         11    1    6    6    0    0  0.58519070051E+02  0.14695826089E+02  0.27809410715E+01  0.60400186236E+02  0.00000000000E+00 0. -1.
        -12    1    6    6    0    0 -0.15185822663E+02  0.42232461386E+02  0.24294253515E+02  0.51033329879E+02  0.00000000000E+00 0.  1.
<mgrwt>
<rscale>  2 0.18025549E+03</rscale>
<asrwt>0</asrwt>
<pdfrwt beam="1">  1       21 0.26591717E-01 0.18045536E+03</pdfrwt>
<pdfrwt beam="2">  1       21 0.44380243E-01 0.18045536E+03</pdfrwt>
<totfact> 0.65959857E+04</totfact>
</mgrwt>
</event>
<event>
12    1  0.1074575E-001  0.1822790E+03  0.7546771E-02  0.1166104E+00
         21   -1    0    0  501  502  0.00000000000E+00  0.00000000000E+00  0.91214144020E+02  0.91214144020E+02  0.00000000000E+00 0. -1.
         21   -1    0    0  502  503 -0.00000000000E+00 -0.00000000000E+00 -0.49071747921E+03  0.49071747921E+03  0.00000000000E+00 0. -1.
         -6    2    1    2    0  503  0.47799792276E+02 -0.24983093344E+02 -0.48865430240E+02  0.18674486940E+03  0.17197918734E+03 0.  0.
        -24    2    3    3    0    0  0.55627627882E+02 -0.58549550819E+02 -0.80172358975E+02  0.13994534093E+03  0.81453105653E+02 0.  0.
          6    2    1    2  501    0 -0.47799792276E+02  0.24983093344E+02 -0.35063790495E+03  0.39518675383E+03  0.17411678530E+03 0.  0.
         24    2    5    5    0    0 -0.52856691559E+02  0.32242022529E+02 -0.36447244115E+03  0.37810610176E+03  0.79313844756E+02 0.  0.
          5    1    5    5  501    0  0.50568992829E+01 -0.72589291849E+01  0.13834536202E+02  0.17080652072E+02  0.47000000000E+01 0. -1.
        -13    1    6    6    0    0  0.35684026528E+01 -0.16571925576E+02 -0.22966515062E+02  0.28545105165E+02  0.00000000000E+00 0.  1.
         14    1    6    6    0    0 -0.56425094212E+02  0.48813948105E+02 -0.34150592609E+03  0.34956099660E+03  0.00000000000E+00 0. -1.
         -5    1    3    3    0  503 -0.78278356059E+01  0.33566457474E+02  0.31306928735E+02  0.46799528464E+02  0.47000000000E+01 0.  1.
         13    1    4    4    0    0  0.63320888652E+02 -0.83035274092E+01 -0.43731994763E+02  0.77401362217E+02  0.00000000000E+00 0. -1.
        -14    1    4    4    0    0 -0.76932607705E+01 -0.50246023409E+02 -0.36440364212E+02  0.62543978716E+02  0.00000000000E+00 0.  1.
<mgrwt>
<rscale>  2 0.18176664E+03</rscale>
<asrwt>0</asrwt>
<pdfrwt beam="1">  1       21 0.14032945E-01 0.18227899E+03</pdfrwt>
<pdfrwt beam="2">  1       21 0.75494996E-01 0.18227899E+03</pdfrwt>
<totfact> 0.69682038E+04</totfact>
</mgrwt>
</event>
<event>
12    1  0.1074575E-001  0.2221432E+03  0.7546771E-02  0.1132361E+00
         21   -1    0    0  501  502  0.00000000000E+00  0.00000000000E+00  0.74574611156E+02  0.74574611156E+02  0.00000000000E+00 0.  1.
         21   -1    0    0  502  503 -0.00000000000E+00 -0.00000000000E+00 -0.68706250914E+03  0.68706250914E+03  0.00000000000E+00 0.  1.
         -6    2    1    2    0  503 -0.13234551499E+03  0.46825869785E+02 -0.38065479583E+03  0.44055426622E+03  0.17170320462E+03 0.  0.
        -24    2    3    3    0    0 -0.62297868914E+02  0.85977816321E+02 -0.29111365098E+03  0.32022449327E+03  0.80767313497E+02 0.  0.
          6    2    1    2  501    0  0.13234551499E+03 -0.46825869785E+02 -0.23183310215E+03  0.32108285407E+03  0.17216159417E+03 0.  0.
         24    2    5    5    0    0  0.10525395391E+03  0.29826936320E+02 -0.17295611213E+03  0.22059307688E+03  0.82337402819E+02 0.  0.
          5    1    5    5  501    0  0.27091561081E+02 -0.76652806104E+02 -0.58876990025E+02  0.10048977719E+03  0.47000000000E+01 0. -1.
        -11    1    6    6    0    0  0.68772256311E+02 -0.15624176023E+02 -0.56494507738E+02  0.90362423158E+02  0.00000000000E+00 0.  1.
         12    1    6    6    0    0  0.36481697599E+02  0.45451112342E+02 -0.11646160439E+03  0.13023065372E+03  0.00000000000E+00 0. -1.
         -5    1    3    3    0  503 -0.70047646076E+02 -0.39151946536E+02 -0.89541144847E+02  0.12032977295E+03  0.47000000000E+01 0.  1.
         13    1    4    4    0    0  0.19296241625E+02  0.24086118991E+02 -0.73519942050E+02  0.79734985721E+02  0.00000000000E+00 0. -1.
        -14    1    4    4    0    0 -0.81594110539E+02  0.61891697330E+02 -0.21759370893E+03  0.24048950754E+03  0.00000000000E+00 0.  1.
<mgrwt>
<rscale>  2 0.22205440E+03</rscale>
<asrwt>0</asrwt>
<pdfrwt beam="1">  1       21 0.11473018E-01 0.22214322E+03</pdfrwt>
<pdfrwt beam="2">  1       21 0.10570192E+00 0.22214322E+03</pdfrwt>
<totfact> 0.45030727E+04</totfact>
</mgrwt>
</event>
<event>
12    1  0.1074575E-001  0.2269018E+03  0.7546771E-02  0.1129410E+00
         21   -1    0    0  501  502  0.00000000000E+00  0.00000000000E+00  0.98883866919E+03  0.98883866919E+03  0.00000000000E+00 0. -1.
         21   -1    0    0  502  503 -0.00000000000E+00 -0.00000000000E+00 -0.77800930273E+02  0.77800930273E+02  0.00000000000E+00 0. -1.
         -6    2    1    2    0  503 -0.13764835808E+03 -0.50720919412E+02  0.14240128003E+03  0.26521186700E+03  0.16893646053E+03 0.  0.
        -24    2    3    3    0    0 -0.48497573283E+01 -0.10165754765E+02  0.70951337874E+02  0.10898327175E+03  0.81953636027E+02 0.  0.
          6    2    1    2  501    0  0.13764835808E+03  0.50720919412E+02  0.76863645889E+03  0.80142773247E+03  0.17310321281E+03 0.  0.
         24    2    5    5    0    0  0.63468628989E+02  0.41983632859E+02  0.17808851347E+03  0.20615641767E+03  0.70668646670E+02 0.  0.
          5    1    5    5  501    0  0.74179729089E+02  0.87372865531E+01  0.59054794542E+03  0.59527131480E+03  0.47000000000E+01 0. -1.
        -11    1    6    6    0    0  0.46912137586E+02  0.68594435825E+01  0.37924387352E+02  0.60712929225E+02  0.00000000000E+00 0.  1.
         12    1    6    6    0    0  0.16556491403E+02  0.35124189276E+02  0.14016412612E+03  0.14544348845E+03  0.00000000000E+00 0. -1.
         -5    1    3    3    0  503 -0.13279860075E+03 -0.40555164647E+02  0.71449942156E+02  0.15622859525E+03  0.47000000000E+01 0.  1.
         11    1    4    4    0    0  0.12440296317E+02  0.51231482427E+01 -0.14904869875E+02  0.20078913476E+02  0.00000000000E+00 0. -1.
        -12    1    4    4    0    0 -0.17290053645E+02 -0.15288903008E+02  0.85856207749E+02  0.88904358270E+02  0.00000000000E+00 0.  1.
<mgrwt>
<rscale>  2 0.22610694E+03</rscale>
<asrwt>0</asrwt>
<pdfrwt beam="1">  1       21 0.15212902E+00 0.22690175E+03</pdfrwt>
<pdfrwt beam="2">  1       21 0.11969375E-01 0.22690175E+03</pdfrwt>
<totfact> 0.16593879E+04</totfact>
</mgrwt>
</event>
<event>
12    1  0.1074575E-001  0.1815188E+03  0.7546771E-02  0.1166393E+00
         21   -1    0    0  501  502  0.00000000000E+00  0.00000000000E+00  0.28021267174E+03  0.28021267174E+03  0.00000000000E+00 0. -1.
         21   -1    0    0  502  503 -0.00000000000E+00 -0.00000000000E+00 -0.12474610686E+03  0.12474610686E+03  0.00000000000E+00 0.  1.
         -6    2    1    2    0  503  0.43899239956E+02 -0.38821309015E+02  0.28712015597E+02  0.18356364455E+03  0.17157212611E+03 0.  0.
        -24    2    3    3    0    0  0.16178277296E+02  0.57695222248E+01 -0.44423794947E+02  0.93409716259E+02  0.80354698003E+02 0.  0.
          6    2    1    2  501    0 -0.43899239956E+02  0.38821309015E+02  0.12675454928E+03  0.22139513406E+03  0.17179887171E+03 0.  0.
         24    2    5    5    0    0 -0.31454811118E+02 -0.43754283736E+02  0.75973979392E+02  0.12354653363E+03  0.81165620431E+02 0.  0.
          5    1    5    5  501    0 -0.12444428838E+02  0.82575592752E+02  0.50780569886E+02  0.97848600426E+02  0.47000000000E+01 0. -1.
        -11    1    6    6    0    0 -0.37552076167E+02 -0.38787740791E+02  0.91444486082E+02  0.10619200203E+03  0.00000000000E+00 0.  1.
         12    1    6    6    0    0  0.60972650492E+01 -0.49665429452E+01 -0.15470506690E+02  0.17354531602E+02  0.00000000000E+00 0. -1.
         -5    1    3    3    0  503  0.27720962660E+02 -0.44590831240E+02  0.73135810544E+02  0.90153928286E+02  0.47000000000E+01 0.  1.
         11    1    4    4    0    0 -0.16436488673E+02  0.31568114904E+02 -0.36682138821E+02  0.51110501337E+02  0.00000000000E+00 0. -1.
        -12    1    4    4    0    0  0.32614765969E+02 -0.25798592679E+02 -0.77416561257E+01  0.42299214921E+02  0.00000000000E+00 0.  1.
<mgrwt>
<rscale>  2 0.18146517E+03</rscale>
<asrwt>0</asrwt>
<pdfrwt beam="1">  1       21 0.43109642E-01 0.18151884E+03</pdfrwt>
<pdfrwt beam="2">  1       21 0.19191709E-01 0.18151884E+03</pdfrwt>
<totfact> 0.12946849E+05</totfact>
</mgrwt>
</event>
<event>
12    1  0.1074575E-001  0.1911985E+03  0.7546771E-02  0.1157648E+00
         21   -1    0    0  501  502  0.00000000000E+00  0.00000000000E+00  0.10184652982E+03  0.10184652982E+03  0.00000000000E+00 0.  1.
         21   -1    0    0  502  503 -0.00000000000E+00 -0.00000000000E+00 -0.63741043741E+03  0.63741043741E+03  0.00000000000E+00 0.  1.
         -6    2    1    2    0  503  0.20122331941E+02  0.76330012111E+02 -0.51259571717E+03  0.54668384442E+03  0.17285160542E+03 0.  0.
        -24    2    3    3    0    0 -0.43187929829E+00  0.11666315222E+03 -0.34340928580E+03  0.37148288452E+03  0.80368640100E+02 0.  0.
          6    2    1    2  501    0 -0.20122331941E+02 -0.76330012111E+02 -0.22968190414E+02  0.19257312281E+03  0.17414273130E+03 0.  0.
         24    2    5    5    0    0  0.55944671330E+02 -0.38177729567E+02 -0.26573917407E+01  0.10495803168E+03  0.80136018109E+02 0.  0.
          5    1    5    5  501    0 -0.76067003272E+02 -0.38152282543E+02 -0.20310798673E+02  0.87615091124E+02  0.47000000000E+01 0. -1.
        -13    1    6    6    0    0 -0.77101043081E+01 -0.38855583194E+02  0.80022350874E+01  0.40413337157E+02  0.00000000000E+00 0.  1.
         14    1    6    6    0    0  0.63654775639E+02  0.67785362654E+00 -0.10659626828E+02  0.64544694524E+02  0.00000000000E+00 0. -1.
         -5    1    3    3    0  503  0.20554211239E+02 -0.40333140106E+02 -0.16918643137E+03  0.17520095990E+03  0.47000000000E+01 0.  1.
         13    1    4    4    0    0 -0.33332297587E+02  0.29213553726E+02 -0.73168504765E+02  0.85545916754E+02  0.00000000000E+00 0. -1.
        -14    1    4    4    0    0  0.32900418289E+02  0.87449598491E+02 -0.27024078104E+03  0.28593696777E+03  0.00000000000E+00 0.  1.
<mgrwt>
<rscale>  2 0.19090403E+03</rscale>
<asrwt>0</asrwt>
<pdfrwt beam="1">  1       21 0.15668697E-01 0.19119851E+03</pdfrwt>
<pdfrwt beam="2">  1       21 0.98063144E-01 0.19119851E+03</pdfrwt>
<totfact> 0.31175291E+04</totfact>
</mgrwt>
</event>
<event>
12    1  0.1074575E-001  0.2064625E+03  0.7546771E-02  0.1144584E+00
         21   -1    0    0  501  502  0.00000000000E+00  0.00000000000E+00  0.10749872546E+04  0.10749872546E+04  0.00000000000E+00 0.  1.
         21   -1    0    0  502  503 -0.00000000000E+00 -0.00000000000E+00 -0.77343394860E+02  0.77343394860E+02  0.00000000000E+00 0.  1.
         -6    2    1    2    0  503  0.10824320425E+03  0.27470206550E+02  0.96245637448E+02  0.22779376733E+03  0.17365360403E+03 0.  0.
        -24    2    3    3    0    0  0.12908473294E+03  0.21813938866E+02  0.12073863246E+03  0.19480347351E+03  0.78942128901E+02 0.  0.
          6    2    1    2  501    0 -0.10824320425E+03 -0.27470206550E+02  0.90139822229E+03  0.92453688212E+03  0.17256444520E+03 0.  0.
         24    2    5    5    0    0 -0.25381021237E+02 -0.14236239528E+02  0.71483719844E+03  0.71991922678E+03  0.80278303826E+02 0.  0.
          5    1    5    5  501    0 -0.82862183014E+02 -0.13233967022E+02  0.18656102385E+03  0.20461765534E+03  0.47000000000E+01 0. -1.
        -11    1    6    6    0    0 -0.36030916435E+02  0.84111876792E+00  0.67555845048E+03  0.67651914565E+03  0.00000000000E+00 0.  1.
         12    1    6    6    0    0  0.10649895198E+02 -0.15077358296E+02  0.39278747961E+02  0.43400081133E+02  0.00000000000E+00 0. -1.
         -5    1    3    3    0  503 -0.20841528690E+02  0.56562676843E+01 -0.24492995008E+02  0.32990293826E+02  0.47000000000E+01 0.  1.
         11    1    4    4    0    0  0.10409441859E+03  0.49300166722E+02  0.98152717166E+02  0.15132782397E+03  0.00000000000E+00 0. -1.
        -12    1    4    4    0    0  0.24990314355E+02 -0.27486227857E+02  0.22585915290E+02  0.43475649539E+02  0.00000000000E+00 0.  1.
<mgrwt>
<rscale>  2 0.20623334E+03</rscale>
<asrwt>0</asrwt>
<pdfrwt beam="1">  1       21 0.16538264E+00 0.20646253E+03</pdfrwt>
<pdfrwt beam="2">  1       21 0.11898985E-01 0.20646253E+03</pdfrwt>
<totfact> 0.13569290E+04</totfact>
</mgrwt>
</event>
<event>
12    1  0.1074575E-001  0.2252328E+03  0.7546771E-02  0.1130101E+00
         21   -1    0    0  501  502  0.00000000000E+00  0.00000000000E+00  0.54465740856E+03  0.54465740856E+03  0.00000000000E+00 0. -1.
         21   -1    0    0  502  503 -0.00000000000E+00 -0.00000000000E+00 -0.95812570751E+02  0.95812570751E+02  0.00000000000E+00 0.  1.
         -6    2    1    2    0  503 -0.30756346937E+02 -0.13998626037E+03  0.27941948029E+03  0.35889422663E+03  0.17374611931E+03 0.  0.
        -24    2    3    3    0    0 -0.15215538384E+02 -0.52900248253E+02  0.24549899339E+03  0.26403549130E+03  0.80093920119E+02 0.  0.
          6    2    1    2  501    0  0.30756346937E+02  0.13998626037E+03  0.16942535752E+03  0.28157575268E+03  0.17331430050E+03 0.  0.
         24    2    5    5    0    0 -0.37434281487E+02  0.39474792258E+02  0.53769403774E+02  0.11379343340E+03  0.84250887522E+02 0.  0.
          5    1    5    5  501    0  0.68190628424E+02  0.10051146811E+03  0.11565595374E+03  0.16778231928E+03  0.47000000000E+01 0. -1.
        -11    1    6    6    0    0 -0.10349942927E+02 -0.32171078645E+01 -0.20943374279E+02  0.23581688400E+02  0.00000000000E+00 0.  1.
         12    1    6    6    0    0 -0.27084338560E+02  0.42691900123E+02  0.74712778053E+02  0.90211744999E+02  0.00000000000E+00 0. -1.
         -5    1    3    3    0  503 -0.15540808553E+02 -0.87086012115E+02  0.33920486905E+02  0.94858735330E+02  0.47000000000E+01 0.  1.
         11    1    4    4    0    0 -0.46641983940E+02 -0.34939360639E+02  0.18001565012E+03  0.18921381524E+03  0.00000000000E+00 0. -1.
        -12    1    4    4    0    0  0.31426445556E+02 -0.17960887614E+02  0.65483343264E+02  0.74821676065E+02  0.00000000000E+00 0.  1.
<mgrwt>
<rscale>  2 0.22514953E+03</rscale>
<asrwt>0</asrwt>
<pdfrwt beam="1">  1       21 0.83793446E-01 0.22523281E+03</pdfrwt>
<pdfrwt beam="2">  1       21 0.14740396E-01 0.22523281E+03</pdfrwt>
<totfact> 0.49349688E+04</totfact>
</mgrwt>
</event>
<event>
12    1  0.1074575E-001  0.2697404E+03  0.7546771E-02  0.1101567E+00
         21   -1    0    0  503  502  0.00000000000E+00  0.00000000000E+00  0.82729821859E+03  0.82729821859E+03  0.00000000000E+00 0.  1.
         21   -1    0    0  501  503 -0.00000000000E+00 -0.00000000000E+00 -0.10644694824E+03  0.10644694824E+03  0.00000000000E+00 0. -1.
          6    2    1    2  501    0 -0.18543216632E+03  0.87979879296E+02  0.16468683742E+03  0.31604058335E+03  0.17502670778E+03 0.  0.
         24    2    3    3    0    0 -0.56477999876E+02 -0.48934926775E+01  0.70651053939E+02  0.13132604997E+03  0.95085483845E+02 0.  0.
         -6    2    1    2    0  502  0.18543216632E+03 -0.87979879296E+02  0.55616443293E+03  0.61770458349E+03  0.17353538121E+03 0.  0.
        -24    2    5    5    0    0  0.21012256313E+03 -0.86163942694E+02  0.52509233437E+03  0.57769860106E+03  0.80237132928E+02 0.  0.
          5    1    3    3  501    0 -0.12895416645E+03  0.92873371973E+02  0.94035783477E+02  0.18471453338E+03  0.47000000000E+01 0. -1.
        -11    1    4    4    0    0 -0.12005294405E+02  0.28188609174E+02  0.69424430386E+02  0.75884625026E+02  0.00000000000E+00 0.  1.
         12    1    4    4    0    0 -0.44472705471E+02 -0.33082101851E+02  0.12266235535E+01  0.55441424947E+02  0.00000000000E+00 0. -1.
         -5    1    5    5    0  502 -0.24690396809E+02 -0.18159366016E+01  0.31072098566E+02  0.40005982423E+02  0.47000000000E+01 0.  1.
         13    1    6    6    0    0  0.27584142378E+02 -0.52145916694E+01  0.19718962794E+02  0.34306185603E+02  0.00000000000E+00 0. -1.
        -14    1    6    6    0    0  0.18253842076E+03 -0.80949351025E+02  0.50537337157E+03  0.54339241546E+03  0.00000000000E+00 0.  1.
<mgrwt>
<rscale>  2 0.26949878E+03</rscale>
<asrwt>0</asrwt>
<pdfrwt beam="1">  1       21 0.12727664E+00 0.26974042E+03</pdfrwt>
<pdfrwt beam="2">  1       21 0.16376454E-01 0.26974042E+03</pdfrwt>
<totfact> 0.14551628E+04</totfact>
</mgrwt>
</event>
<event>
12    1  0.1074575E-001  0.2883453E+03  0.7546771E-02  0.1093047E+00
         21   -1    0    0  503  502  0.00000000000E+00  0.00000000000E+00  0.10814850404E+03  0.10814850404E+03  0.00000000000E+00 0.  1.
         21   -1    0    0  501  503 -0.00000000000E+00 -0.00000000000E+00 -0.87109587623E+03  0.87109587623E+03  0.00000000000E+00 0.  1.
          6    2    1    2  501    0 -0.19749380311E+03  0.81129561005E+02 -0.19433063663E+03  0.34771746625E+03  0.19379688354E+03 0.  0.
         24    2    3    3    0    0 -0.15912474278E+03 -0.14616624355E+02 -0.89188485653E+02  0.20035234584E+03  0.81560695434E+02 0.  0.
         -6    2    1    2    0  502  0.19749380311E+03 -0.81129561005E+02 -0.56861673556E+03  0.63152691402E+03  0.17296081418E+03 0.  0.
        -24    2    5    5    0    0  0.88321617689E+02 -0.85911737275E+02 -0.43270095119E+03  0.45706595644E+03  0.80607943935E+02 0.  0.
          5    1    3    3  501    0 -0.38369060327E+02  0.95746185359E+02 -0.10514215098E+03  0.14736512041E+03  0.47000000000E+01 0. -1.
        -13    1    4    4    0    0 -0.11993619867E+03 -0.46750845624E+02 -0.64323754935E+02  0.14390232370E+03  0.00000000000E+00 0.  1.
         14    1    4    4    0    0 -0.39188544106E+02  0.32134221269E+02 -0.24864730718E+02  0.56450022139E+02  0.00000000000E+00 0. -1.
         -5    1    5    5    0  502  0.10917218542E+03  0.47821762705E+01 -0.13591578437E+03  0.17446095758E+03  0.47000000000E+01 0.  1.
         13    1    6    6    0    0  0.30277022973E+02  0.39687041737E+01 -0.18115831193E+03  0.18371386098E+03  0.00000000000E+00 0. -1.
        -14    1    6    6    0    0  0.58044594716E+02 -0.89880441449E+02 -0.25154263926E+03  0.27335209546E+03  0.00000000000E+00 0.  1.
<mgrwt>
<rscale>  2 0.28489116E+03</rscale>
<asrwt>0</asrwt>
<pdfrwt beam="1">  1       21 0.16638231E-01 0.28834535E+03</pdfrwt>
<pdfrwt beam="2">  1       21 0.13401475E+00 0.28834535E+03</pdfrwt>
<totfact> 0.12269852E+04</totfact>
</mgrwt>
</event>
<event>
12    1  0.1074575E-001  0.2145250E+03  0.7546771E-02  0.1138156E+00
         21   -1    0    0  503  502  0.00000000000E+00  0.00000000000E+00  0.12363419367E+04  0.12363419367E+04  0.00000000000E+00 0. -1.
         21   -1    0    0  501  503 -0.00000000000E+00 -0.00000000000E+00 -0.50498853335E+02  0.50498853335E+02  0.00000000000E+00 0. -1.
          6    2    1    2  501    0 -0.10490826108E+03  0.69317808255E+02  0.26099327376E+03  0.33743668943E+03  0.17301828991E+03 0.  0.
         24    2    3    3    0    0 -0.28710131117E+01  0.50884448622E+02  0.63973772601E+02  0.11474820172E+03  0.80480037215E+02 0.  0.
         -6    2    1    2    0  502  0.10490826108E+03 -0.69317808255E+02  0.92484980957E+03  0.94940410057E+03  0.17381102995E+03 0.  0.
        -24    2    5    5    0    0  0.10210790764E+03 -0.39435670270E+01  0.39726810084E+03  0.41775931053E+03  0.79115871114E+02 0.  0.
          5    1    3    3  501    0 -0.10203724797E+03  0.18433359632E+02  0.19701950116E+03  0.22268848771E+03  0.47000000000E+01 0. -1.
        -11    1    4    4    0    0 -0.63982802883E+01  0.12181404671E+02  0.73465114236E+02  0.74742542238E+02  0.00000000000E+00 0.  1.
         12    1    4    4    0    0  0.35272671766E+01  0.38703043951E+02 -0.94913416358E+01  0.40005659485E+02  0.00000000000E+00 0. -1.
         -5    1    5    5    0  502  0.28003534387E+01 -0.65374241228E+02  0.52758170872E+03  0.53164479004E+03  0.47000000000E+01 0.  1.
         11    1    6    6    0    0  0.77044394866E+02 -0.32445485281E+02  0.33098268776E+03  0.34137675359E+03  0.00000000000E+00 0. -1.
        -12    1    6    6    0    0  0.25063512773E+02  0.28501918254E+02  0.66285413085E+02  0.76382556939E+02  0.00000000000E+00 0.  1.
<mgrwt>
<rscale>  2 0.21436437E+03</rscale>
<asrwt>0</asrwt>
<pdfrwt beam="1">  1       21 0.19020643E+00 0.21452500E+03</pdfrwt>
<pdfrwt beam="2">  1       21 0.77690553E-02 0.21452500E+03</pdfrwt>
<totfact> 0.19323811E+04</totfact>
</mgrwt>
</event>
<event>
12    1  0.1074575E-001  0.2678509E+03  0.7546771E-02  0.1102829E+00
         21   -1    0    0  503  502  0.00000000000E+00  0.00000000000E+00  0.15743296486E+03  0.15743296486E+03  0.00000000000E+00 0. -1.
         21   -1    0    0  501  503 -0.00000000000E+00 -0.00000000000E+00 -0.66505042398E+03  0.66505042398E+03  0.00000000000E+00 0.  1.
          6    2    1    2  501    0  0.70667528818E+02 -0.19157921094E+03 -0.48723509342E+03  0.55600554565E+03  0.17334254192E+03 0.  0.
         24    2    3    3    0    0  0.42101413864E+02 -0.11303004410E+03 -0.43267793114E+03  0.45608273298E+03  0.79075579730E+02 0.  0.
         -6    2    1    2    0  502 -0.70667528818E+02  0.19157921094E+03 -0.20382365706E+02  0.26647784319E+03  0.16999560696E+03 0.  0.
        -24    2    5    5    0    0 -0.10134363848E+03  0.15482152606E+03 -0.52939019109E+02  0.20839017855E+03  0.79897989860E+02 0.  0.
          5    1    3    3  501    0  0.28566114953E+02 -0.78549166843E+02 -0.54557162279E+02  0.99922812666E+02  0.47000000000E+01 0. -1.
        -13    1    4    4    0    0  0.49801854890E+02 -0.81579635874E+02 -0.20587473112E+03  0.22697988161E+03  0.00000000000E+00 0.  1.
         14    1    4    4    0    0 -0.77004410251E+01 -0.31450408226E+02 -0.22680320002E+03  0.22910285137E+03  0.00000000000E+00 0. -1.
         -5    1    5    5    0  502  0.30676109660E+02  0.36757684886E+02  0.32556653403E+02  0.58087664636E+02  0.47000000000E+01 0.  1.
         13    1    6    6    0    0 -0.54753795835E+02  0.31263213781E+02 -0.42272089083E+02  0.75909789946E+02  0.00000000000E+00 0. -1.
        -14    1    6    6    0    0 -0.46589842643E+02  0.12355831227E+03 -0.10666930027E+02  0.13248038861E+03  0.00000000000E+00 0.  1.
<mgrwt>
<rscale>  2 0.26731088E+03</rscale>
<asrwt>0</asrwt>
<pdfrwt beam="1">  1       21 0.24220456E-01 0.26785095E+03</pdfrwt>
<pdfrwt beam="2">  1       21 0.10231545E+00 0.26785095E+03</pdfrwt>
<totfact> 0.11958146E+04</totfact>
</mgrwt>
</event>
<event>
12    1  0.1074575E-001  0.2333873E+03  0.7546771E-02  0.1125194E+00
         21   -1    0    0  501  502  0.00000000000E+00  0.00000000000E+00  0.42091273169E+02  0.42091273169E+02  0.00000000000E+00 0.  1.
         21   -1    0    0  502  503 -0.00000000000E+00 -0.00000000000E+00 -0.15705486544E+04  0.15705486544E+04  0.00000000000E+00 0. -1.
         -6    2    1    2    0  503 -0.69005541320E+02 -0.13183377804E+03 -0.11267288323E+04  0.11506465502E+04  0.17979908849E+03 0.  0.
        -24    2    3    3    0    0 -0.90323618208E+01  0.10849551536E+02 -0.40128728219E+03  0.40886299187E+03  0.77059502652E+02 0.  0.
          6    2    1    2  501    0  0.69005541320E+02  0.13183377804E+03 -0.40172854894E+03  0.46199337737E+03  0.17294549410E+03 0.  0.
         24    2    5    5    0    0 -0.13820627396E+02  0.12453180398E+02 -0.16387479934E+03  0.18323111752E+03  0.79828573352E+02 0.  0.
          5    1    5    5  501    0  0.82826168716E+02  0.11938059764E+03 -0.23785374960E+03  0.27876225985E+03  0.47000000000E+01 0. -1.
        -13    1    6    6    0    0  0.20576779497E+02  0.27982850480E+02 -0.36511579436E+02  0.50393840976E+02  0.00000000000E+00 0.  1.
         14    1    6    6    0    0 -0.34397406893E+02 -0.15529670083E+02 -0.12736321991E+03  0.13283727654E+03  0.00000000000E+00 0. -1.
         -5    1    3    3    0  503 -0.59973179499E+02 -0.14268332957E+03 -0.72544155011E+03  0.74178355834E+03  0.47000000000E+01 0.  1.
         13    1    4    4    0    0  0.10477856143E+02  0.85960041210E+01 -0.37865402763E+03  0.37889648903E+03  0.00000000000E+00 0. -1.
        -14    1    4    4    0    0 -0.19510217964E+02  0.22535474153E+01 -0.22633254557E+02  0.29966502846E+02  0.00000000000E+00 0.  1.
<mgrwt>
<rscale>  2 0.23206659E+03</rscale>
<asrwt>0</asrwt>
<pdfrwt beam="1">  1       21 0.64755797E-02 0.23338728E+03</pdfrwt>
<pdfrwt beam="2">  1       21 0.24162290E+00 0.23338728E+03</pdfrwt>
<totfact> 0.12452970E+04</totfact>
</mgrwt>
</event>
<event>
12    1  0.1074575E-001  0.2018198E+03  0.7546771E-02  0.1151693E+00
         21   -1    0    0  501  502  0.00000000000E+00  0.00000000000E+00  0.20298300299E+03  0.20298300299E+03  0.00000000000E+00 0. -1.
         21   -1    0    0  502  503 -0.00000000000E+00 -0.00000000000E+00 -0.21665521580E+03  0.21665521580E+03  0.00000000000E+00 0. -1.
         -6    2    1    2    0  503  0.58849369401E+02 -0.31214929428E+02 -0.87104562815E+02  0.21981453436E+03  0.19050880440E+03 0.  0.
        -24    2    3    3    0    0  0.11388299894E+03 -0.10325302305E+02 -0.77354888892E+02  0.15996285900E+03  0.80798441246E+02 0.  0.
          6    2    1    2  501    0 -0.58849369401E+02  0.31214929428E+02  0.73432350012E+02  0.19982368443E+03  0.17349229013E+03 0.  0.
         24    2    5    5    0    0 -0.75526720021E+02  0.54723125618E+02  0.21293188779E+02  0.14006289925E+03  0.10230009747E+03 0.  0.
          5    1    5    5  501    0  0.16677350620E+02 -0.23508196190E+02  0.52139161233E+02  0.59760785185E+02  0.47000000000E+01 0. -1.
        -13    1    6    6    0    0  0.21432273256E+02 -0.66666964888E+01 -0.33315842896E+01  0.22691113522E+02  0.00000000000E+00 0.  1.
         14    1    6    6    0    0 -0.96958993278E+02  0.61389822107E+02  0.24624773069E+02  0.11737178573E+03  0.00000000000E+00 0. -1.
         -5    1    3    3    0  503 -0.55033629540E+02 -0.20889627123E+02 -0.97496739236E+01  0.59851675359E+02  0.47000000000E+01 0.  1.
         11    1    4    4    0    0  0.93447270240E+02  0.12977393668E+02 -0.22551101828E+02  0.97001841505E+02  0.00000000000E+00 0. -1.
        -12    1    4    4    0    0  0.20435728701E+02 -0.23302695973E+02 -0.54803787064E+02  0.62961017492E+02  0.00000000000E+00 0.  1.
<mgrwt>
<rscale>  2 0.19770092E+03</rscale>
<asrwt>0</asrwt>
<pdfrwt beam="1">  1       21 0.31228154E-01 0.20181978E+03</pdfrwt>
<pdfrwt beam="2">  1       21 0.33331572E-01 0.20181978E+03</pdfrwt>
<totfact> 0.85074752E+04</totfact>
</mgrwt>
</event>
<event>
12    1  0.1074575E-001  0.2211600E+03  0.7546771E-02  0.1133211E+00
         21   -1    0    0  501  502  0.00000000000E+00  0.00000000000E+00  0.35671700190E+03  0.35671700190E+03  0.00000000000E+00 0. -1.
         21   -1    0    0  502  503 -0.00000000000E+00 -0.00000000000E+00 -0.16947139936E+03  0.16947139936E+03  0.00000000000E+00 0. -1.
         -6    2    1    2    0  503 -0.13350442950E+03  0.31642724987E+02 -0.22625975266E+02  0.22129853066E+03  0.17215228774E+03 0.  0.
        -24    2    3    3    0    0 -0.11742025282E+03  0.82687942183E+02 -0.17762058263E+02  0.16735353435E+03  0.84064874894E+02 0.  0.
          6    2    1    2  501    0  0.13350442950E+03 -0.31642724987E+02  0.20987157781E+03  0.30488987060E+03  0.17345621719E+03 0.  0.
         24    2    5    5    0    0  0.34295984662E+02 -0.34469725687E+02  0.17546689711E+03  0.19974197707E+03  0.82120940504E+02 0.  0.
          5    1    5    5  501    0  0.99208444843E+02  0.28270007003E+01  0.34404680703E+02  0.10514789354E+03  0.47000000000E+01 0. -1.
        -13    1    6    6    0    0  0.81018996253E+01 -0.51953365962E+01 -0.77526402717E+01  0.12358629822E+02  0.00000000000E+00 0.  1.
         14    1    6    6    0    0  0.26194085036E+02 -0.29274389091E+02  0.18321953738E+03  0.18738334724E+03  0.00000000000E+00 0. -1.
         -5    1    3    3    0  503 -0.16084176685E+02 -0.51045217196E+02 -0.48639170027E+01  0.53944996309E+02  0.47000000000E+01 0.  1.
         11    1    4    4    0    0 -0.36782524593E+02  0.75324008708E+02  0.25775255254E+01  0.83864796196E+02  0.00000000000E+00 0. -1.
        -12    1    4    4    0    0 -0.80637728227E+02  0.73639334752E+01 -0.20339583788E+02  0.83488738154E+02  0.00000000000E+00 0.  1.
<mgrwt>
<rscale>  2 0.22090428E+03</rscale>
<asrwt>0</asrwt>
<pdfrwt beam="1">  1       21 0.54879539E-01 0.22116002E+03</pdfrwt>
<pdfrwt beam="2">  1       21 0.26072523E-01 0.22116002E+03</pdfrwt>
<totfact> 0.43190391E+04</totfact>
</mgrwt>
</event>
<event>
12    1  0.1074575E-001  0.1925750E+03  0.7546771E-02  0.1156196E+00
         21   -1    0    0  501  502  0.00000000000E+00  0.00000000000E+00  0.21873353887E+03  0.21873353887E+03  0.00000000000E+00 0.  1.
         21   -1    0    0  502  503 -0.00000000000E+00 -0.00000000000E+00 -0.24854382930E+03  0.24854382930E+03  0.00000000000E+00 0. -1.
         -6    2    1    2    0  503  0.79830171344E+02 -0.12824589255E+02 -0.14675077653E+03  0.24211760695E+03  0.17477934328E+03 0.  0.
        -24    2    3    3    0    0 -0.57438544925E+01 -0.26318472940E+02 -0.12665922533E+03  0.15306279672E+03  0.81608862863E+02 0.  0.
          6    2    1    2  501    0 -0.79830171344E+02  0.12824589255E+02  0.11694048610E+03  0.22515976123E+03  0.17459815131E+03 0.  0.
         24    2    5    5    0    0  0.20717530568E+02  0.31029043966E+02  0.49043330769E+02  0.10238616377E+03  0.81765888952E+02 0.  0.
          5    1    5    5  501    0 -0.10054770191E+03 -0.18204454711E+02  0.67897155331E+02  0.12277359746E+03  0.47000000000E+01 0. -1.
        -13    1    6    6    0    0  0.32841852606E+02  0.36961366792E+02  0.64883065767E+02  0.81575377051E+02  0.00000000000E+00 0.  1.
         14    1    6    6    0    0 -0.12124322038E+02 -0.59323228260E+01 -0.15839734998E+02  0.20810786718E+02  0.00000000000E+00 0. -1.
         -5    1    3    3    0  503  0.85574025837E+02  0.13493883685E+02 -0.20091551203E+02  0.89054810227E+02  0.47000000000E+01 0.  1.
         11    1    4    4    0    0 -0.17586766992E+02  0.26361284246E+02 -0.52642340625E+02  0.61444509167E+02  0.00000000000E+00 0. -1.
        -12    1    4    4    0    0  0.11842912500E+02 -0.52679757186E+02 -0.74016884701E+02  0.91618287555E+02  0.00000000000E+00 0.  1.
<mgrwt>
<rscale>  2 0.19253392E+03</rscale>
<asrwt>0</asrwt>
<pdfrwt beam="1">  1       21 0.33651314E-01 0.19257504E+03</pdfrwt>
<pdfrwt beam="2">  1       21 0.38237512E-01 0.19257504E+03</pdfrwt>
<totfact> 0.56109077E+04</totfact>
</mgrwt>
</event>
<event>
12    1  0.1074575E-001  0.1822754E+03  0.7546771E-02  0.1166560E+00
         21   -1    0    0  501  502  0.00000000000E+00  0.00000000000E+00  0.34379745333E+03  0.34379745333E+03  0.00000000000E+00 0.  1.
         21   -1    0    0  502  503 -0.00000000000E+00 -0.00000000000E+00 -0.17845368418E+03  0.17845368418E+03  0.00000000000E+00 0.  1.
         -6    2    1    2    0  503 -0.89939320250E+01 -0.55044389753E+02 -0.96819001546E+02  0.20294935116E+03  0.16942179441E+03 0.  0.
        -24    2    3    3    0    0  0.28312475456E+02 -0.90987699574E+02 -0.76858100297E+02  0.14723384938E+03  0.81794138437E+02 0.  0.
          6    2    1    2  501    0  0.89939320250E+01  0.55044389753E+02  0.26216277070E+03  0.31930178635E+03  0.17353252365E+03 0.  0.
         24    2    5    5    0    0  0.29102306917E+02 -0.33984763078E+02  0.11666522142E+03  0.14748163723E+03  0.78346353087E+02 0.  0.
          5    1    5    5  501    0 -0.20108374892E+02  0.89029152831E+02  0.14549754928E+03  0.17182014912E+03  0.47000000000E+01 0. -1.
        -13    1    6    6    0    0  0.36334704579E+02  0.97834019607E+01  0.85064166473E+02  0.93015257504E+02  0.00000000000E+00 0.  1.
         14    1    6    6    0    0 -0.72323976620E+01 -0.43768165038E+02  0.31601054946E+02  0.54466379726E+02  0.00000000000E+00 0. -1.
         -5    1    3    3    0  503 -0.37306407481E+02  0.35943309821E+02 -0.19960901249E+02  0.55715501781E+02  0.47000000000E+01 0.  1.
         11    1    4    4    0    0  0.19844900107E+02 -0.99134115410E+01  0.13159570820E+02  0.25792830260E+02  0.00000000000E+00 0. -1.
        -12    1    4    4    0    0  0.84675753485E+01 -0.81074288033E+02 -0.90017671117E+02  0.12144101912E+03  0.00000000000E+00 0.  1.
<mgrwt>
<rscale>  2 0.18129014E+03</rscale>
<asrwt>0</asrwt>
<pdfrwt beam="1">  1       21 0.52891916E-01 0.18227538E+03</pdfrwt>
<pdfrwt beam="2">  1       21 0.27454413E-01 0.18227538E+03</pdfrwt>
<totfact> 0.43085493E+04</totfact>
</mgrwt>
</event>
<event>
12    1  0.1074575E-001  0.1863810E+03  0.7546771E-02  0.1162284E+00
         21   -1    0    0  501  502  0.00000000000E+00  0.00000000000E+00  0.98999377563E+02  0.98999377563E+02  0.00000000000E+00 0. -1.
         21   -1    0    0  502  503 -0.00000000000E+00 -0.00000000000E+00 -0.36091965270E+03  0.36091965270E+03  0.00000000000E+00 0.  1.
         -6    2    1    2    0  503  0.56692446497E+02  0.31959246620E+02 -0.17582023815E+03  0.25461172633E+03  0.17227579083E+03 0.  0.
        -24    2    3    3    0    0  0.68983383959E+02 -0.34055102567E+01 -0.18705605703E+03  0.21524083863E+03  0.81045329158E+02 0.  0.
          6    2    1    2  501    0 -0.56692446497E+02 -0.31959246620E+02 -0.86100036978E+02  0.20530730393E+03  0.17464949397E+03 0.  0.
         24    2    5    5    0    0 -0.36973834098E+02 -0.45540822225E+02  0.15093566667E+02  0.10121350829E+03  0.81088393804E+02 0.  0.
          5    1    5    5  501    0 -0.19718612398E+02  0.13581575605E+02 -0.10119360365E+03  0.10409379563E+03  0.47000000000E+01 0. -1.
        -13    1    6    6    0    0 -0.25889425663E+02 -0.62501585435E+02 -0.10616278397E+02  0.68479310087E+02  0.00000000000E+00 0.  1.
         14    1    6    6    0    0 -0.11084408436E+02  0.16960763210E+02  0.25709845065E+02  0.32734198207E+02  0.00000000000E+00 0. -1.
         -5    1    3    3    0  503 -0.12290937462E+02  0.35364756877E+02  0.11235818876E+02  0.39370887703E+02  0.47000000000E+01 0.  1.
         11    1    4    4    0    0 -0.12590165966E+01 -0.10539047204E+02  0.41648652642E+01  0.11401874470E+02  0.00000000000E+00 0. -1.
        -12    1    4    4    0    0  0.70242400555E+02  0.71335369474E+01 -0.19122092230E+03  0.20383896416E+03  0.00000000000E+00 0.  1.
<mgrwt>
<rscale>  2 0.18582288E+03</rscale>
<asrwt>0</asrwt>
<pdfrwt beam="1">  1       21 0.15230673E-01 0.18638099E+03</pdfrwt>
<pdfrwt beam="2">  1       21 0.55526100E-01 0.18638099E+03</pdfrwt>
<totfact> 0.11689328E+05</totfact>
</mgrwt>
</event>
<event>
12    1  0.1074575E-001  0.2130779E+03  0.7546771E-02  0.1139214E+00
         21   -1    0    0  503  502  0.00000000000E+00  0.00000000000E+00  0.29164263835E+03  0.29164263835E+03  0.00000000000E+00 0.  1.
         21   -1    0    0  501  503 -0.00000000000E+00 -0.00000000000E+00 -0.45098484922E+03  0.45098484922E+03  0.00000000000E+00 0.  1.
          6    2    1    2  501    0  0.59247396200E+02 -0.10945883184E+03 -0.38023735747E+03  0.43571241544E+03  0.17254961931E+03 0.  0.
         24    2    3    3    0    0  0.46198175767E+02 -0.58268492764E+02 -0.89389553244E+02  0.14006859563E+03  0.78097570759E+02 0.  0.
         -6    2    1    2    0  502 -0.59247396200E+02  0.10945883184E+03  0.22089514660E+03  0.30691507213E+03  0.17294711876E+03 0.  0.
        -24    2    5    5    0    0 -0.19043834650E+02  0.58945188705E+02  0.26329214271E+02  0.10186398941E+03  0.76458105553E+02 0.  0.
          5    1    3    3  501    0  0.13049220433E+02 -0.51190339072E+02 -0.29084780423E+03  0.29564381981E+03  0.47000000000E+01 0. -1.
        -11    1    4    4    0    0  0.55254029831E+02 -0.12495757171E+02 -0.28668167470E+02  0.63490279460E+02  0.00000000000E+00 0.  1.
         12    1    4    4    0    0 -0.90558540641E+01 -0.45772735593E+02 -0.60721385775E+02  0.76578316167E+02  0.00000000000E+00 0. -1.
         -5    1    5    5    0  502 -0.40203561550E+02  0.50513643131E+02  0.19456593233E+03  0.20505108272E+03  0.47000000000E+01 0.  1.
         11    1    6    6    0    0  0.13799991896E+02 -0.31104355089E+01 -0.14816103846E+02  0.20484909533E+02  0.00000000000E+00 0. -1.
        -12    1    6    6    0    0 -0.32843826546E+02  0.62055624214E+02  0.41145318117E+02  0.81379079877E+02  0.00000000000E+00 0.  1.
<mgrwt>
<rscale>  2 0.21299724E+03</rscale>
<asrwt>0</asrwt>
<pdfrwt beam="1">  1       21 0.44868099E-01 0.21307791E+03</pdfrwt>
<pdfrwt beam="2">  1       21 0.69382284E-01 0.21307791E+03</pdfrwt>
<totfact> 0.88810869E+03</totfact>
</mgrwt>
</event>
<event>
12    1  0.1074575E-001  0.2535681E+03  0.7546771E-02  0.1111190E+00
         21   -1    0    0  503  502  0.00000000000E+00  0.00000000000E+00  0.17766516121E+03  0.17766516121E+03  0.00000000000E+00 0.  1.
         21   -1    0    0  501  503 -0.00000000000E+00 -0.00000000000E+00 -0.88589736997E+03  0.88589736997E+03  0.00000000000E+00 0.  1.
          6    2    1    2  501    0  0.13707932142E+03  0.12232251235E+03 -0.76330810428E+03  0.80408200772E+03  0.17365216870E+03 0.  0.
         24    2    3    3    0    0  0.53185634090E+02  0.94267454389E+02 -0.26542572293E+03  0.29838032421E+03  0.82854926531E+02 0.  0.
         -6    2    1    2    0  502 -0.13707932142E+03 -0.12232251235E+03  0.55075895516E+02  0.25948052346E+03  0.17476627364E+03 0.  0.
        -24    2    5    5    0    0 -0.14258269412E+03 -0.71926344588E+02  0.89040497561E+02  0.19827803145E+03  0.76699047202E+02 0.  0.
          5    1    3    3  501    0  0.83893687329E+02  0.28055057959E+02 -0.49788238135E+03  0.50570168352E+03  0.47000000000E+01 0. -1.
        -11    1    4    4    0    0  0.43186893556E+02  0.69457367220E+01 -0.12784742316E+03  0.13512333123E+03  0.00000000000E+00 0.  1.
         12    1    4    4    0    0  0.99987405335E+01  0.87321717667E+02 -0.13757829976E+03  0.16325699297E+03  0.00000000000E+00 0. -1.
         -5    1    5    5    0  502  0.55033727025E+01 -0.50396167760E+02 -0.33964602044E+02  0.61202492008E+02  0.47000000000E+01 0.  1.
         11    1    6    6    0    0 -0.71001089344E+02 -0.24182859452E+02  0.77077746889E+00  0.75010395794E+02  0.00000000000E+00 0. -1.
        -12    1    6    6    0    0 -0.71581604777E+02 -0.47743485136E+02  0.88269720092E+02  0.12326763566E+03  0.00000000000E+00 0.  1.
<mgrwt>
<rscale>  2 0.25337625E+03</rscale>
<asrwt>0</asrwt>
<pdfrwt beam="1">  1       21 0.27333102E-01 0.25356811E+03</pdfrwt>
<pdfrwt beam="2">  1       21 0.13629190E+00 0.25356811E+03</pdfrwt>
<totfact> 0.46774900E+03</totfact>
</mgrwt>
</event>
<event>
12    1  0.1074575E-001  0.1990300E+03  0.7546771E-02  0.1150637E+00
         21   -1    0    0  501  502  0.00000000000E+00  0.00000000000E+00  0.66110036094E+02  0.66110036094E+02  0.00000000000E+00 0.  1.
         21   -1    0    0  502  503 -0.00000000000E+00 -0.00000000000E+00 -0.71626287874E+03  0.71626287874E+03  0.00000000000E+00 0. -1.
         -6    2    1    2    0  503 -0.14943422779E+02 -0.97492027429E+02 -0.48420358888E+03  0.52351319020E+03  0.17287262228E+03 0.  0.
        -24    2    3    3    0    0  0.18346199662E+02 -0.97410541646E+02 -0.46957315981E+03  0.48684787884E+03  0.81832194478E+02 0.  0.
          6    2    1    2  501    0  0.14943422779E+02  0.97492027429E+02 -0.16594925377E+03  0.25885972464E+03  0.17245637395E+03 0.  0.
         24    2    5    5    0    0  0.90593020774E+01  0.12796436132E+03 -0.90928165273E+02  0.17753666685E+03  0.82428078419E+02 0.  0.
          5    1    5    5  501    0  0.58841207014E+01 -0.30472333895E+02 -0.75021088494E+02  0.81323057789E+02  0.47000000000E+01 0. -1.
        -11    1    6    6    0    0  0.28022569528E+02  0.64332690864E+02 -0.69986131622E+01  0.70519076164E+02  0.00000000000E+00 0.  1.
         12    1    6    6    0    0 -0.18963267451E+02  0.63631670459E+02 -0.83929552111E+02  0.10701759068E+03  0.00000000000E+00 0. -1.
         -5    1    3    3    0  503 -0.33289622441E+02 -0.81485783426E-01 -0.14630429071E+02  0.36665311358E+02  0.47000000000E+01 0.  1.
         11    1    4    4    0    0 -0.43285829486E+01 -0.83555193040E+02 -0.21207876096E+03  0.22798598151E+03  0.00000000000E+00 0. -1.
        -12    1    4    4    0    0  0.22674782611E+02 -0.13855348605E+02 -0.25749439886E+03  0.25886189734E+03  0.00000000000E+00 0.  1.
<mgrwt>
<rscale>  2 0.19893959E+03</rscale>
<asrwt>0</asrwt>
<pdfrwt beam="1">  1       21 0.10170775E-01 0.19903001E+03</pdfrwt>
<pdfrwt beam="2">  1       21 0.11019429E+00 0.19903001E+03</pdfrwt>
<totfact> 0.51044602E+04</totfact>
</mgrwt>
</event>
<event>
12    1  0.1074575E-001  0.3099491E+03  0.7546771E-02  0.1080455E+00
         21   -1    0    0  503  502  0.00000000000E+00  0.00000000000E+00  0.54033863120E+03  0.54033863120E+03  0.00000000000E+00 0.  1.
         21   -1    0    0  501  503 -0.00000000000E+00 -0.00000000000E+00 -0.31768348931E+03  0.31768348931E+03  0.00000000000E+00 0. -1.
          6    2    1    2  501    0 -0.18989800920E+03  0.17496452562E+03 -0.17383897281E+03  0.35475673365E+03  0.17017200851E+03 0.  0.
         24    2    3    3    0    0 -0.78813377217E+02  0.48634128934E+02 -0.13429352487E+03  0.18188366738E+03  0.80436874089E+02 0.  0.
         -6    2    1    2    0  502  0.18989800920E+03 -0.17496452562E+03  0.39649411470E+03  0.50326538686E+03  0.17144861474E+03 0.  0.
        -24    2    5    5    0    0  0.15049460206E+03 -0.55180476814E+02  0.26354425417E+03  0.31996617176E+03  0.85025095665E+02 0.  0.
          5    1    3    3  501    0 -0.11108463199E+03  0.12633039668E+03 -0.39545447946E+02  0.17287306627E+03  0.47000000000E+01 0. -1.
        -11    1    4    4    0    0 -0.24028348393E+02  0.60998230453E+02 -0.61031138020E+02  0.89570896238E+02  0.00000000000E+00 0.  1.
         12    1    4    4    0    0 -0.54785028824E+02 -0.12364101518E+02 -0.73262386846E+02  0.92312771142E+02  0.00000000000E+00 0. -1.
         -5    1    5    5    0  502  0.39403407142E+02 -0.11978404880E+03  0.13294986053E+03  0.18329921510E+03  0.47000000000E+01 0.  1.
         13    1    6    6    0    0  0.11486386806E+03 -0.38661746700E+01  0.13685789621E+03  0.17871412716E+03  0.00000000000E+00 0. -1.
        -14    1    6    6    0    0  0.35630734006E+02 -0.51314302144E+02  0.12668635796E+03  0.14125204460E+03  0.00000000000E+00 0.  1.
<mgrwt>
<rscale>  2 0.30977290E+03</rscale>
<asrwt>0</asrwt>
<pdfrwt beam="1">  1       21 0.83129020E-01 0.30994914E+03</pdfrwt>
<pdfrwt beam="2">  1       21 0.48874383E-01 0.30994914E+03</pdfrwt>
<totfact> 0.46779465E+03</totfact>
</mgrwt>
</event>
<event>
12    1  0.1074575E-001  0.2079431E+03  0.7546771E-02  0.1143273E+00
         21   -1    0    0  503  502  0.00000000000E+00  0.00000000000E+00  0.12707084178E+03  0.12707084178E+03  0.00000000000E+00 0. -1.
         21   -1    0    0  501  503 -0.00000000000E+00 -0.00000000000E+00 -0.36999098480E+03  0.36999098480E+03  0.00000000000E+00 0. -1.
          6    2    1    2  501    0 -0.60081113972E+02  0.98408239146E+02 -0.19244169091E+03  0.28307953693E+03  0.17264500583E+03 0.  0.
         24    2    3    3    0    0  0.68435400835E+01  0.79939932335E+02 -0.17882763126E+03  0.21217523313E+03  0.81251344788E+02 0.  0.
         -6    2    1    2    0  502  0.60081113972E+02 -0.98408239146E+02 -0.50478452106E+02  0.21398228966E+03  0.17305035213E+03 0.  0.
        -24    2    5    5    0    0  0.49664345389E+02 -0.93452056689E+01 -0.75449192433E+02  0.12078164121E+03  0.79635068541E+02 0.  0.
          5    1    3    3  501    0 -0.66924654055E+02  0.18468306811E+02 -0.13614059654E+02  0.70904303798E+02  0.47000000000E+01 0. -1.
        -11    1    4    4    0    0 -0.34915550797E+02  0.39878145421E+02 -0.11107425106E+03  0.12307254535E+03  0.00000000000E+00 0.  1.
         12    1    4    4    0    0  0.41759090880E+02  0.40061786914E+02 -0.67753380197E+02  0.89102687782E+02  0.00000000000E+00 0. -1.
         -5    1    5    5    0  502  0.10416768583E+02 -0.89063033477E+02  0.24970740327E+02  0.93200648454E+02  0.47000000000E+01 0.  1.
         11    1    6    6    0    0  0.64130697845E+02  0.16658894310E+01 -0.79499997086E+02  0.10215562212E+03  0.00000000000E+00 0. -1.
        -12    1    6    6    0    0 -0.14466352456E+02 -0.11011095100E+02  0.40508046530E+01  0.18626019087E+02  0.00000000000E+00 0.  1.
<mgrwt>
<rscale>  2 0.20785878E+03</rscale>
<asrwt>0</asrwt>
<pdfrwt beam="1">  1       21 0.19549360E-01 0.20794313E+03</pdfrwt>
<pdfrwt beam="2">  1       21 0.56921690E-01 0.20794313E+03</pdfrwt>
<totfact> 0.69371981E+04</totfact>
</mgrwt>
</event>
<event>
12    1  0.1074575E-001  0.2309120E+03  0.7546771E-02  0.1126456E+00
         21   -1    0    0  503  502  0.00000000000E+00  0.00000000000E+00  0.64000143736E+02  0.64000143736E+02  0.00000000000E+00 0. -1.
         21   -1    0    0  501  503 -0.00000000000E+00 -0.00000000000E+00 -0.93591330625E+03  0.93591330625E+03  0.00000000000E+00 0.  1.
          6    2    1    2  501    0  0.52629495251E+02  0.14367587197E+03 -0.61114668756E+03  0.65331508774E+03  0.17293845783E+03 0.  0.
         24    2    3    3    0    0  0.76797561605E+02  0.31188758157E+02 -0.29977662081E+03  0.32133488551E+03  0.80743310296E+02 0.  0.
         -6    2    1    2    0  502 -0.52629495251E+02 -0.14367587197E+03 -0.26076647495E+03  0.34659836225E+03  0.16946577913E+03 0.  0.
        -24    2    5    5    0    0 -0.60013973791E+02 -0.12119545740E+03 -0.10340942075E+03  0.18740278420E+03  0.78334406752E+02 0.  0.
          5    1    3    3  501    0 -0.24168066354E+02  0.11248711381E+03 -0.31137006675E+03  0.33198020223E+03  0.47000000000E+01 0. -1.
        -11    1    4    4    0    0  0.38181130473E+02  0.17473671708E+02 -0.26281725354E+03  0.26615040238E+03  0.00000000000E+00 0.  1.
         12    1    4    4    0    0  0.38616431132E+02  0.13715086449E+02 -0.36959367270E+02  0.55184483133E+02  0.00000000000E+00 0. -1.
         -5    1    5    5    0  502  0.73844785400E+01 -0.22480414562E+02 -0.15735705420E+03  0.15919557804E+03  0.47000000000E+01 0.  1.
         11    1    6    6    0    0 -0.47407571326E+02 -0.20372551463E+02 -0.53028685331E+02  0.73990270577E+02  0.00000000000E+00 0. -1.
        -12    1    6    6    0    0 -0.12606402465E+02 -0.10082290594E+03 -0.50380735424E+02  0.11341251363E+03  0.00000000000E+00 0.  1.
<mgrwt>
<rscale>  2 0.23026191E+03</rscale>
<asrwt>0</asrwt>
<pdfrwt beam="1">  1       21 0.98461765E-02 0.23091195E+03</pdfrwt>
<pdfrwt beam="2">  1       21 0.14398665E+00 0.23091195E+03</pdfrwt>
<totfact> 0.27117547E+04</totfact>
</mgrwt>
</event>
<event>
12    1  0.1074575E-001  0.2351157E+03  0.7546771E-02  0.1123173E+00
         21   -1    0    0  503  502  0.00000000000E+00  0.00000000000E+00  0.26902746026E+04  0.26902746026E+04  0.00000000000E+00 0.  1.
         21   -1    0    0  501  503 -0.00000000000E+00 -0.00000000000E+00 -0.27001743267E+02  0.27001743267E+02  0.00000000000E+00 0. -1.
          6    2    1    2  501    0  0.96800924315E+02 -0.12551330804E+03  0.19969972172E+04  0.20107336195E+04  0.17299651378E+03 0.  0.
         24    2    3    3    0    0  0.87476159389E+02 -0.15921631989E+03  0.16411996311E+04  0.16531908157E+04  0.80633301107E+02 0.  0.
         -6    2    1    2    0  502 -0.96800924315E+02  0.12551330804E+03  0.66627564221E+03  0.70654272641E+03  0.17365305467E+03 0.  0.
        -24    2    5    5    0    0  0.60050754667E+01  0.61046464454E+02  0.19020298261E+03  0.21522580757E+03  0.79888934774E+02 0.  0.
          5    1    3    3  501    0  0.93247649261E+01  0.33703011848E+02  0.35579758611E+03  0.35754280377E+03  0.47000000000E+01 0. -1.
        -11    1    4    4    0    0  0.94814298068E+02 -0.95409509151E+02  0.11001539459E+04  0.11083462592E+04  0.00000000000E+00 0.  1.
         12    1    4    4    0    0 -0.73381386795E+01 -0.63806810735E+02  0.54104568515E+03  0.54484455654E+03  0.00000000000E+00 0. -1.
         -5    1    5    5    0  502 -0.10280599978E+03  0.64466843585E+02  0.47607265960E+03  0.49131691883E+03  0.47000000000E+01 0.  1.
         11    1    6    6    0    0 -0.12546608983E+02 -0.30267048702E+01 -0.77884168818E+00  0.12930001304E+02  0.00000000000E+00 0. -1.
        -12    1    6    6    0    0  0.18551684449E+02  0.64073169324E+02  0.19098182430E+03  0.20229580627E+03  0.00000000000E+00 0.  1.
<mgrwt>
<rscale>  2 0.23499448E+03</rscale>
<asrwt>0</asrwt>
<pdfrwt beam="1">  1       21 0.41388819E+00 0.23511570E+03</pdfrwt>
<pdfrwt beam="2">  1       21 0.41541165E-02 0.23511570E+03</pdfrwt>
<totfact> 0.24776811E+03</totfact>
</mgrwt>
</event>
<event>
12    1  0.1074575E-001  0.2124077E+03  0.7546771E-02  0.1140430E+00
         21   -1    0    0  501  502  0.00000000000E+00  0.00000000000E+00  0.56171442401E+03  0.56171442401E+03  0.00000000000E+00 0.  1.
         21   -1    0    0  502  503 -0.00000000000E+00 -0.00000000000E+00 -0.10528384964E+03  0.10528384964E+03  0.00000000000E+00 0. -1.
         -6    2    1    2    0  503  0.68336315669E+02  0.94179716446E+02  0.59634882165E+02  0.21692735412E+03  0.17309386692E+03 0.  0.
        -24    2    3    3    0    0  0.14980709174E+02 -0.11967601326E+02 -0.40279481418E+01  0.82060309307E+02  0.79687043291E+02 0.  0.
          6    2    1    2  501    0 -0.68336315669E+02 -0.94179716446E+02  0.39679569220E+03  0.45007091953E+03  0.17770014133E+03 0.  0.
         24    2    5    5    0    0 -0.68641296881E+02 -0.13557411336E+03  0.29744158690E+03  0.34233551519E+03  0.75034255443E+02 0.  0.
          5    1    5    5  501    0  0.30498121269E+00  0.41394396911E+02  0.99354105298E+02  0.10773540434E+03  0.47000000000E+01 0. -1.
        -11    1    6    6    0    0 -0.39511628086E+02 -0.28630980266E+02  0.15092714931E+03  0.15861874475E+03  0.00000000000E+00 0.  1.
         12    1    6    6    0    0 -0.29129668795E+02 -0.10694313309E+03  0.14651443759E+03  0.18371677044E+03  0.00000000000E+00 0. -1.
         -5    1    3    3    0  503  0.53355606495E+02  0.10614731777E+03  0.63662830306E+02  0.13486704482E+03  0.47000000000E+01 0.  1.
         13    1    4    4    0    0 -0.24560426540E+02  0.88201516350E+01 -0.21779024600E+02  0.33990227113E+02  0.00000000000E+00 0. -1.
        -14    1    4    4    0    0  0.39541135714E+02 -0.20787752961E+02  0.17751076458E+02  0.48070082194E+02  0.00000000000E+00 0.  1.
<mgrwt>
<rscale>  2 0.21144150E+03</rscale>
<asrwt>0</asrwt>
<pdfrwt beam="1">  1       21 0.86417602E-01 0.21240765E+03</pdfrwt>
<pdfrwt beam="2">  1       21 0.16197516E-01 0.21240765E+03</pdfrwt>
<totfact> 0.38927183E+04</totfact>
</mgrwt>
</event>
<event>
12    1  0.1074575E-001  0.2198120E+03  0.7546771E-02  0.1134258E+00
         21   -1    0    0  501  502  0.00000000000E+00  0.00000000000E+00  0.81461636554E+03  0.81461636554E+03  0.00000000000E+00 0. -1.
         21   -1    0    0  502  503 -0.00000000000E+00 -0.00000000000E+00 -0.60107875990E+02  0.60107875990E+02  0.00000000000E+00 0.  1.
         -6    2    1    2    0  503 -0.11540703634E+03 -0.71300122634E+02  0.31614705888E+03  0.38433860072E+03  0.17136133065E+03 0.  0.
        -24    2    3    3    0    0 -0.30411133015E+02 -0.85318522739E+02  0.24218467697E+03  0.27070170944E+03  0.80136822976E+02 0.  0.
          6    2    1    2  501    0  0.11540703634E+03  0.71300122634E+02  0.43836143066E+03  0.49038564080E+03  0.17295907402E+03 0.  0.
         24    2    5    5    0    0  0.50368627272E+02  0.59382069173E+02  0.39606971350E+03  0.41175540493E+03  0.81290016509E+02 0.  0.
          5    1    5    5  501    0  0.65038409071E+02  0.11918053460E+02  0.42291717166E+02  0.78630235874E+02  0.47000000000E+01 0. -1.
        -13    1    6    6    0    0  0.72655045302E+02  0.45266855079E+02  0.28387661089E+03  0.29650256995E+03  0.00000000000E+00 0.  1.
         14    1    6    6    0    0 -0.22286418030E+02  0.14115214095E+02  0.11219310261E+03  0.11525283498E+03  0.00000000000E+00 0. -1.
         -5    1    3    3    0  503 -0.84995903329E+02  0.14018400105E+02  0.73962381909E+02  0.11363689129E+03  0.47000000000E+01 0.  1.
         13    1    4    4    0    0 -0.44102368688E+02 -0.70717234541E+02  0.23515481245E+03  0.24948693754E+03  0.00000000000E+00 0. -1.
        -14    1    4    4    0    0  0.13691235673E+02 -0.14601288198E+02  0.70298645222E+01  0.21214771893E+02  0.00000000000E+00 0.  1.
<mgrwt>
<rscale>  2 0.21949763E+03</rscale>
<asrwt>0</asrwt>
<pdfrwt beam="1">  1       21 0.12532559E+00 0.21981204E+03</pdfrwt>
<pdfrwt beam="2">  1       21 0.92473661E-02 0.21981204E+03</pdfrwt>
<totfact> 0.43502586E+04</totfact>
</mgrwt>
</event>
<event>
12    1  0.1074575E-001  0.2964222E+03  0.7546771E-02  0.1087108E+00
         21   -1    0    0  501  502  0.00000000000E+00  0.00000000000E+00  0.36304603593E+03  0.36304603593E+03  0.00000000000E+00 0. -1.
         21   -1    0    0  502  503 -0.00000000000E+00 -0.00000000000E+00 -0.24172619891E+03  0.24172619891E+03  0.00000000000E+00 0. -1.
         -6    2    1    2    0  503 -0.16955279766E+03  0.17026622389E+03  0.53933089277E+02  0.30128868984E+03  0.17357234316E+03 0.  0.
        -24    2    3    3    0    0 -0.10315825330E+03  0.11494431258E+03  0.10243073054E+03  0.20207749792E+03  0.80557062932E+02 0.  0.
          6    2    1    2  501    0  0.16955279766E+03 -0.17026622389E+03  0.67386747746E+02  0.30348354500E+03  0.17269206733E+03 0.  0.
         24    2    5    5    0    0  0.97941013094E+02 -0.22739228492E+02  0.10799822841E+02  0.12994210288E+03  0.81601466717E+02 0.  0.
          5    1    5    5  501    0  0.71611784569E+02 -0.14752699540E+03  0.56586924905E+02  0.17354144211E+03  0.47000000000E+01 0. -1.
        -11    1    6    6    0    0  0.67858389447E+02  0.97505247529E+00  0.42624679355E+02  0.80140969770E+02  0.00000000000E+00 0.  1.
         12    1    6    6    0    0  0.30082623647E+02 -0.23714280968E+02 -0.31824856514E+02  0.49801133114E+02  0.00000000000E+00 0. -1.
         -5    1    3    3    0  503 -0.66394544367E+02  0.55321911309E+02 -0.48497641265E+02  0.99211191914E+02  0.47000000000E+01 0.  1.
         11    1    4    4    0    0 -0.10930768106E+03  0.76830405102E+02  0.66102051143E+02  0.14906562800E+03  0.00000000000E+00 0. -1.
        -12    1    4    4    0    0  0.61494277631E+01  0.38113907482E+02  0.36328679399E+02  0.53011869918E+02  0.00000000000E+00 0.  1.
<mgrwt>
<rscale>  2 0.29629343E+03</rscale>
<asrwt>0</asrwt>
<pdfrwt beam="1">  1       21 0.55853236E-01 0.29642216E+03</pdfrwt>
<pdfrwt beam="2">  1       21 0.37188646E-01 0.29642216E+03</pdfrwt>
<totfact> 0.19996709E+04</totfact>
</mgrwt>
</event>
<event>
12    1  0.1074575E-001  0.2360442E+03  0.7546771E-02  0.1124758E+00
         21   -1    0    0  503  502  0.00000000000E+00  0.00000000000E+00  0.13858939611E+04  0.13858939611E+04  0.00000000000E+00 0.  1.
         21   -1    0    0  501  503 -0.00000000000E+00 -0.00000000000E+00 -0.10940628361E+03  0.10940628361E+03  0.00000000000E+00 0. -1.
          6    2    1    2  501    0 -0.43638901720E+00  0.14009878747E+03  0.27977138604E+02  0.22467228207E+03  0.17339853909E+03 0.  0.
         24    2    3    3    0    0 -0.29416084211E+02  0.15984717413E+03  0.41717765593E+02  0.18671551273E+03  0.81889472095E+02 0.  0.
         -6    2    1    2    0  502  0.43638901720E+00 -0.14009878747E+03  0.12485105389E+04  0.12706279627E+04  0.18997103218E+03 0.  0.
        -24    2    5    5    0    0 -0.66674632214E+02 -0.33449863037E+02  0.62295717618E+03  0.63249241134E+03  0.80041283890E+02 0.  0.
          5    1    3    3  501    0  0.28979695194E+02 -0.19748386655E+02 -0.13740626989E+02  0.37956769345E+02  0.47000000000E+01 0. -1.
        -13    1    4    4    0    0  0.21002365787E+02  0.96799128931E+01  0.93543358279E+00  0.23144656365E+02  0.00000000000E+00 0.  1.
         14    1    4    4    0    0 -0.50418449998E+02  0.15016726123E+03  0.40782332011E+02  0.16357085636E+03  0.00000000000E+00 0. -1.
         -5    1    5    5    0  502  0.67111021231E+02 -0.10664892444E+03  0.62555336271E+03  0.63813555132E+03  0.47000000000E+01 0.  1.
         13    1    6    6    0    0 -0.11649371659E+02 -0.25002989226E+02  0.44895850175E+03  0.44980506180E+03  0.00000000000E+00 0. -1.
        -14    1    6    6    0    0 -0.55025260555E+02 -0.84468738106E+01  0.17399867443E+03  0.18268734954E+03  0.00000000000E+00 0.  1.
<mgrwt>
<rscale>  2 0.23269334E+03</rscale>
<asrwt>0</asrwt>
<pdfrwt beam="1">  1       21 0.21321444E+00 0.23604418E+03</pdfrwt>
<pdfrwt beam="2">  1       21 0.16831737E-01 0.23604418E+03</pdfrwt>
<totfact> 0.33819797E+03</totfact>
</mgrwt>
</event>
<event>
12    1  0.1074575E-001  0.1851489E+03  0.7546771E-02  0.1163075E+00
         21   -1    0    0  503  502  0.00000000000E+00  0.00000000000E+00  0.17346925880E+03  0.17346925880E+03  0.00000000000E+00 0.  1.
         21   -1    0    0  501  503 -0.00000000000E+00 -0.00000000000E+00 -0.30435984200E+03  0.30435984200E+03  0.00000000000E+00 0.  1.
          6    2    1    2  501    0  0.62868130638E+02 -0.86383224264E+01 -0.20751145965E+03  0.27810270431E+03  0.17393414213E+03 0.  0.
         24    2    3    3    0    0  0.15422801906E+02  0.27049576710E+02 -0.24827151057E+02  0.85956062480E+02  0.76174239928E+02 0.  0.
         -6    2    1    2    0  502 -0.62868130638E+02  0.86383224264E+01  0.76620876451E+02  0.19972639648E+03  0.17318444584E+03 0.  0.
        -24    2    5    5    0    0 -0.60476239661E+01  0.57831516832E+02  0.91786951599E+01  0.98636940201E+02  0.79145053115E+02 0.  0.
          5    1    3    3  501    0  0.47445328732E+02 -0.35687899136E+02 -0.18268430859E+03  0.19214664183E+03  0.47000000000E+01 0. -1.
        -13    1    4    4    0    0  0.23186161154E+01 -0.48377851460E+01 -0.45462012831E+02  0.45777448121E+02  0.00000000000E+00 0.  1.
         14    1    4    4    0    0  0.13104185790E+02  0.31887361856E+02  0.20634861774E+02  0.40178614359E+02  0.00000000000E+00 0. -1.
         -5    1    5    5    0  502 -0.56820506672E+02 -0.49193194406E+02  0.67442181291E+02  0.10108945628E+03  0.47000000000E+01 0.  1.
         11    1    6    6    0    0  0.36140370655E+02  0.23960982196E+02  0.10117750670E+02  0.44526665466E+02  0.00000000000E+00 0. -1.
        -12    1    6    6    0    0 -0.42187994621E+02  0.33870534636E+02 -0.93905551009E+00  0.54110274735E+02  0.00000000000E+00 0.  1.
<mgrwt>
<rscale>  2 0.18497260E+03</rscale>
<asrwt>0</asrwt>
<pdfrwt beam="1">  1       21 0.26687579E-01 0.18514888E+03</pdfrwt>
<pdfrwt beam="2">  1       21 0.46824591E-01 0.18514888E+03</pdfrwt>
<totfact> 0.58551186E+04</totfact>
</mgrwt>
</event>
<event>
12    1  0.1074575E-001  0.1959738E+03  0.7546771E-02  0.1153705E+00
         21   -1    0    0  503  502  0.00000000000E+00  0.00000000000E+00  0.98180275235E+03  0.98180275235E+03  0.00000000000E+00 0.  1.
         21   -1    0    0  501  503 -0.00000000000E+00 -0.00000000000E+00 -0.50149001496E+02  0.50149001496E+02  0.00000000000E+00 0.  1.
          6    2    1    2  501    0  0.75684854962E+02 -0.42775561826E+02  0.21642941344E+03  0.29036456097E+03  0.17295069039E+03 0.  0.
         24    2    3    3    0    0  0.49616379726E+02 -0.56970684787E+02  0.51870730944E+02  0.12308420677E+03  0.82168760273E+02 0.  0.
         -6    2    1    2    0  502 -0.75684854962E+02  0.42775561826E+02  0.71522433741E+03  0.74158719287E+03  0.17563532062E+03 0.  0.
        -24    2    5    5    0    0 -0.64458225849E+02 -0.21998165703E+02  0.20176175327E+03  0.22391201644E+03  0.69209853712E+02 0.  0.
          5    1    3    3  501    0  0.26068475235E+02  0.14195122961E+02  0.16455868250E+03  0.16728035420E+03  0.47000000000E+01 0. -1.
        -13    1    4    4    0    0  0.20894820637E+02  0.13897654272E+02  0.37740973803E+02  0.45322394325E+02  0.00000000000E+00 0.  1.
         14    1    4    4    0    0  0.28721559089E+02 -0.70868339059E+02  0.14129757141E+02  0.77761812443E+02  0.00000000000E+00 0. -1.
         -5    1    5    5    0  502 -0.11226629113E+02  0.64773727529E+02  0.51346258415E+03  0.51767517644E+03  0.47000000000E+01 0.  1.
         11    1    6    6    0    0 -0.42024632543E+02  0.22186628215E+02  0.96152545070E+02  0.10725496788E+03  0.00000000000E+00 0. -1.
        -12    1    6    6    0    0 -0.22433593306E+02 -0.44184793918E+02  0.10560920820E+03  0.11665704856E+03  0.00000000000E+00 0.  1.
<mgrwt>
<rscale>  2 0.19537038E+03</rscale>
<asrwt>0</asrwt>
<pdfrwt beam="1">  1       21 0.15104656E+00 0.19597375E+03</pdfrwt>
<pdfrwt beam="2">  1       21 0.77152317E-02 0.19597375E+03</pdfrwt>
<totfact> 0.37434190E+04</totfact>
</mgrwt>
</event>
<event>
12    1  0.1074575E-001  0.1934238E+03  0.7546771E-02  0.1155593E+00
         21   -1    0    0  503  502  0.00000000000E+00  0.00000000000E+00  0.27200430135E+03  0.27200430135E+03  0.00000000000E+00 0. -1.
         21   -1    0    0  501  503 -0.00000000000E+00 -0.00000000000E+00 -0.28905987346E+03  0.28905987346E+03  0.00000000000E+00 0. -1.
          6    2    1    2  501    0  0.60685148743E+02  0.56730782707E+02  0.19496211457E+03  0.27463248587E+03  0.17467600635E+03 0.  0.
         24    2    3    3    0    0  0.47433864767E+02  0.11715190281E+02  0.24555376624E+02  0.97820307485E+02  0.81108746910E+02 0.  0.
         -6    2    1    2    0  502 -0.60685148743E+02 -0.56730782707E+02 -0.21201768668E+03  0.28643168894E+03  0.17375426319E+03 0.  0.
        -24    2    5    5    0    0  0.29411275655E+02 -0.21513537905E+02 -0.13844661893E+03  0.16480762869E+03  0.81647000758E+02 0.  0.
          5    1    3    3  501    0  0.13251283976E+02  0.45015592426E+02  0.17040673795E+03  0.17681217839E+03  0.47000000000E+01 0. -1.
        -11    1    4    4    0    0  0.52385710562E+02  0.39964118606E+02  0.19352805170E+02  0.68672589255E+02  0.00000000000E+00 0.  1.
         12    1    4    4    0    0 -0.49518457949E+01 -0.28248928325E+02  0.52025714547E+01  0.29147718230E+02  0.00000000000E+00 0. -1.
         -5    1    5    5    0  502 -0.90096424398E+02 -0.35217244802E+02 -0.73571067751E+02  0.12162406025E+03  0.47000000000E+01 0.  1.
         11    1    6    6    0    0 -0.11824439337E+02  0.21229547183E+02 -0.70460799952E+02  0.74533451343E+02  0.00000000000E+00 0. -1.
        -12    1    6    6    0    0  0.41235714992E+02 -0.42743085088E+02 -0.67985818979E+02  0.90274177349E+02  0.00000000000E+00 0.  1.
<mgrwt>
<rscale>  2 0.19321549E+03</rscale>
<asrwt>0</asrwt>
<pdfrwt beam="1">  1       21 0.41846816E-01 0.19342383E+03</pdfrwt>
<pdfrwt beam="2">  1       21 0.44470750E-01 0.19342383E+03</pdfrwt>
<totfact> 0.26678378E+04</totfact>
</mgrwt>
</event>
<event>
12    1  0.1074575E-001  0.2439544E+03  0.7546771E-02  0.1117394E+00
         21   -1    0    0  501  502  0.00000000000E+00  0.00000000000E+00  0.71160797661E+02  0.71160797661E+02  0.00000000000E+00 0.  1.
         21   -1    0    0  502  503 -0.00000000000E+00 -0.00000000000E+00 -0.11068547326E+04  0.11068547326E+04  0.00000000000E+00 0.  1.
         -6    2    1    2    0  503  0.16408030063E+03  0.44548753402E+02 -0.22533744652E+03  0.33210044034E+03  0.17494799566E+03 0.  0.
        -24    2    3    3    0    0  0.67433269596E+01  0.28090918722E+02 -0.99101978727E+02  0.12965719660E+03  0.78455173633E+02 0.  0.
          6    2    1    2  501    0 -0.16408030063E+03 -0.44548753402E+02 -0.81035648840E+03  0.84591508990E+03  0.17316975645E+03 0.  0.
         24    2    5    5    0    0 -0.13073693694E+03  0.33036886328E+02 -0.53163867890E+03  0.55464713985E+03  0.82523828710E+02 0.  0.
          5    1    5    5  501    0 -0.33343363693E+02 -0.77585639731E+02 -0.27871780950E+03  0.29126795005E+03  0.47000000000E+01 0. -1.
        -11    1    6    6    0    0 -0.88974658861E+02  0.93653626396E+00 -0.44036792576E+03  0.44926748943E+03  0.00000000000E+00 0.  1.
         12    1    6    6    0    0 -0.41762278077E+02  0.32100350064E+02 -0.91270753138E+02  0.10537965042E+03  0.00000000000E+00 0. -1.
         -5    1    3    3    0  503  0.15733697367E+03  0.16457834680E+02 -0.12623546780E+03  0.20244324374E+03  0.47000000000E+01 0.  1.
         13    1    4    4    0    0 -0.76220346333E+01  0.23864583310E+02  0.40904690463E+01  0.25383965127E+02  0.00000000000E+00 0. -1.
        -14    1    4    4    0    0  0.14365361593E+02  0.42263354115E+01 -0.10319244777E+03  0.10427323147E+03  0.00000000000E+00 0.  1.
<mgrwt>
<rscale>  2 0.24363573E+03</rscale>
<asrwt>0</asrwt>
<pdfrwt beam="1">  1       21 0.10947815E-01 0.24395438E+03</pdfrwt>
<pdfrwt beam="2">  1       21 0.17028535E+00 0.24395438E+03</pdfrwt>
<totfact> 0.14174095E+04</totfact>
</mgrwt>
</event>
<event>
12    1  0.1074575E-001  0.1851078E+03  0.7546771E-02  0.1163947E+00
         21   -1    0    0  503  502  0.00000000000E+00  0.00000000000E+00  0.10913195989E+03  0.10913195989E+03  0.00000000000E+00 0. -1.
         21   -1    0    0  501  503 -0.00000000000E+00 -0.00000000000E+00 -0.39197765794E+03  0.39197765794E+03  0.00000000000E+00 0. -1.
          6    2    1    2  501    0  0.12502922076E+02  0.49221524684E+02 -0.25945500458E+03  0.31871898583E+03  0.17800508693E+03 0.  0.
         24    2    3    3    0    0  0.12070652482E+02  0.36768651502E+02 -0.37242121008E+02  0.96107403620E+02  0.79699580104E+02 0.  0.
         -6    2    1    2    0  502 -0.12502922076E+02 -0.49221524684E+02 -0.23390693471E+02  0.18239063200E+03  0.17360914880E+03 0.  0.
        -24    2    5    5    0    0  0.16974847179E+02  0.33378058698E+02  0.10402215842E+02  0.88286005253E+02  0.79271510581E+02 0.  0.
          5    1    3    3  501    0  0.43226959380E+00  0.12452873182E+02 -0.22221288357E+03  0.22261158221E+03  0.47000000000E+01 0. -1.
        -11    1    4    4    0    0  0.17780120283E+01  0.61272949466E+02 -0.31489159316E+02  0.68913734606E+02  0.00000000000E+00 0.  1.
         12    1    4    4    0    0  0.10292640454E+02 -0.24504297963E+02 -0.57529616918E+01  0.27193669014E+02  0.00000000000E+00 0. -1.
         -5    1    5    5    0  502 -0.29477769255E+02 -0.82599583383E+02 -0.33792909313E+02  0.94104626747E+02  0.47000000000E+01 0.  1.
         13    1    6    6    0    0  0.34991573323E+02 -0.13324321743E+02  0.71839628322E+01  0.38125543609E+02  0.00000000000E+00 0. -1.
        -14    1    6    6    0    0 -0.18016726144E+02  0.46702380441E+02  0.32182530101E+01  0.50160461643E+02  0.00000000000E+00 0.  1.
<mgrwt>
<rscale>  2 0.18404282E+03</rscale>
<asrwt>0</asrwt>
<pdfrwt beam="1">  1       21 0.16789532E-01 0.18510779E+03</pdfrwt>
<pdfrwt beam="2">  1       21 0.60304256E-01 0.18510779E+03</pdfrwt>
<totfact> 0.82068466E+04</totfact>
</mgrwt>
</event>
<event>
12    1  0.1074575E-001  0.1833287E+03  0.7546771E-02  0.1165002E+00
         21   -1    0    0  503  502  0.00000000000E+00  0.00000000000E+00  0.14519736433E+04  0.14519736433E+04  0.00000000000E+00 0. -1.
         21   -1    0    0  501  503 -0.00000000000E+00 -0.00000000000E+00 -0.22959531801E+02  0.22959531801E+02  0.00000000000E+00 0. -1.
          6    2    1    2  501    0  0.75345370150E+01 -0.57244022576E+02  0.73013874921E+03  0.75241246354E+03  0.17230285788E+03 0.  0.
         24    2    3    3    0    0 -0.19561007133E+02  0.32324733575E+02  0.38084687403E+03  0.39077226299E+03  0.78937308439E+02 0.  0.
         -6    2    1    2    0  502 -0.75345370150E+01  0.57244022576E+02  0.69887536229E+03  0.72252071155E+03  0.17399930816E+03 0.  0.
        -24    2    5    5    0    0 -0.31005301494E+02  0.42079965425E+02  0.68333598716E+03  0.69020372540E+03  0.81859996327E+02 0.  0.
          5    1    3    3  501    0  0.27095544148E+02 -0.89568756152E+02  0.34929187518E+03  0.36164020055E+03  0.47000000000E+01 0. -1.
        -11    1    4    4    0    0 -0.29748295384E+02  0.47686931809E+02  0.35254328286E+03  0.35699547733E+03  0.00000000000E+00 0.  1.
         12    1    4    4    0    0  0.10187288251E+02 -0.15362198233E+02  0.28303591164E+02  0.33776785656E+02  0.00000000000E+00 0. -1.
         -5    1    5    5    0  502  0.23470764479E+02  0.15164057151E+02  0.15539375125E+02  0.32316986149E+02  0.47000000000E+01 0.  1.
         13    1    6    6    0    0 -0.53063617231E+02  0.43699371122E+01  0.39686959684E+03  0.40042517493E+03  0.00000000000E+00 0. -1.
        -14    1    6    6    0    0  0.22058315737E+02  0.37710028313E+02  0.28646639032E+03  0.28977855047E+03  0.00000000000E+00 0.  1.
<mgrwt>
<rscale>  2 0.18292502E+03</rscale>
<asrwt>0</asrwt>
<pdfrwt beam="1">  1       21 0.22338049E+00 0.18332868E+03</pdfrwt>
<pdfrwt beam="2">  1       21 0.35322368E-02 0.18332868E+03</pdfrwt>
<totfact> 0.46583905E+04</totfact>
</mgrwt>
</event>
<event>
12    1  0.1074575E-001  0.1926541E+03  0.7546771E-02  0.1156428E+00
         21   -1    0    0  503  502  0.00000000000E+00  0.00000000000E+00  0.43510214763E+02  0.43510214763E+02  0.00000000000E+00 0. -1.
         21   -1    0    0  501  503 -0.00000000000E+00 -0.00000000000E+00 -0.11619497219E+04  0.11619497219E+04  0.00000000000E+00 0.  1.
          6    2    1    2  501    0 -0.14767621233E+02 -0.80188345795E+02 -0.87498655166E+03  0.89594479315E+03  0.17454899983E+03 0.  0.
         24    2    3    3    0    0  0.39801149560E+02 -0.53381976951E+02 -0.30493814325E+03  0.32264416512E+03  0.81720371463E+02 0.  0.
         -6    2    1    2    0  502  0.14767621233E+02  0.80188345795E+02 -0.24345295550E+03  0.30951514354E+03  0.17286419265E+03 0.  0.
        -24    2    5    5    0    0 -0.64848771762E+01  0.14741747069E+02 -0.29234332648E+02  0.84467072342E+02  0.77592959513E+02 0.  0.
          5    1    3    3  501    0 -0.54568770793E+02 -0.26806368844E+02 -0.57004840841E+03  0.57330062802E+03  0.47000000000E+01 0. -1.
        -11    1    4    4    0    0 -0.24783055665E+02 -0.89985886011E+01 -0.93690934171E+02  0.97330188486E+02  0.00000000000E+00 0.  1.
         12    1    4    4    0    0  0.64584205225E+02 -0.44383388350E+02 -0.21124720908E+03  0.22531397664E+03  0.00000000000E+00 0. -1.
         -5    1    5    5    0  502  0.21252498409E+02  0.65446598725E+02 -0.21421862285E+03  0.22504807119E+03  0.47000000000E+01 0.  1.
         13    1    6    6    0    0 -0.25788630588E+02  0.35473305432E+02 -0.13529211644E+00  0.43856894211E+02  0.00000000000E+00 0. -1.
        -14    1    6    6    0    0  0.19303753412E+02 -0.20731558363E+02 -0.29099040532E+02  0.40610178131E+02  0.00000000000E+00 0.  1.
<mgrwt>
<rscale>  2 0.19227169E+03</rscale>
<asrwt>0</asrwt>
<pdfrwt beam="1">  1       21 0.66938789E-02 0.19265411E+03</pdfrwt>
<pdfrwt beam="2">  1       21 0.17876150E+00 0.19265411E+03</pdfrwt>
<totfact> 0.30316413E+04</totfact>
</mgrwt>
</event>
<event>
12    1  0.1074575E-001  0.1837242E+03  0.7546771E-02  0.1164287E+00
         21   -1    0    0  503  502  0.00000000000E+00  0.00000000000E+00  0.26667488085E+03  0.26667488085E+03  0.00000000000E+00 0.  1.
         21   -1    0    0  501  503 -0.00000000000E+00 -0.00000000000E+00 -0.38523323546E+03  0.38523323546E+03  0.00000000000E+00 0.  1.
          6    2    1    2  501    0  0.31869466023E+02  0.56550583131E+02 -0.32642121118E+03  0.37448867462E+03  0.17168962985E+03 0.  0.
         24    2    3    3    0    0 -0.16889769005E+02  0.12350596597E+01 -0.26768781680E+03  0.28010132509E+03  0.80704370282E+02 0.  0.
         -6    2    1    2    0  502 -0.31869466023E+02 -0.56550583131E+02  0.20786285657E+03  0.27741944168E+03  0.17187480375E+03 0.  0.
        -24    2    5    5    0    0  0.14474861655E+02 -0.31565510872E+02  0.29881305724E+02  0.91754224191E+02  0.79498692622E+02 0.  0.
          5    1    3    3  501    0  0.48759235028E+02  0.55315523471E+02 -0.58733394373E+02  0.94387349534E+02  0.47000000000E+01 0. -1.
        -13    1    4    4    0    0 -0.82357995616E+01  0.23519741069E+02 -0.24767136837E+03  0.24892190206E+03  0.00000000000E+00 0.  1.
         14    1    4    4    0    0 -0.86539694438E+01 -0.22284681409E+02 -0.20016448434E+02  0.31179423031E+02  0.00000000000E+00 0. -1.
         -5    1    5    5    0  502 -0.46344327677E+02 -0.24985072259E+02  0.17798155085E+03  0.18566521749E+03  0.47000000000E+01 0.  1.
         11    1    6    6    0    0  0.19668960674E+02 -0.52648658884E+02  0.38784720647E+02  0.68286190785E+02  0.00000000000E+00 0. -1.
        -12    1    6    6    0    0 -0.51940990191E+01  0.21083148011E+02 -0.89034149227E+01  0.23468033407E+02  0.00000000000E+00 0.  1.
<mgrwt>
<rscale>  2 0.18368087E+03</rscale>
<asrwt>0</asrwt>
<pdfrwt beam="1">  1       21 0.41026905E-01 0.18372419E+03</pdfrwt>
<pdfrwt beam="2">  1       21 0.59266652E-01 0.18372419E+03</pdfrwt>
<totfact> 0.15309766E+04</totfact>
</mgrwt>
</event>
<event>
12    1  0.1074575E-001  0.2133261E+03  0.7546771E-02  0.1140059E+00
         21   -1    0    0  503  502  0.00000000000E+00  0.00000000000E+00  0.57173909620E+03  0.57173909620E+03  0.00000000000E+00 0.  1.
         21   -1    0    0  501  503 -0.00000000000E+00 -0.00000000000E+00 -0.81572931114E+02  0.81572931114E+02  0.00000000000E+00 0. -1.
          6    2    1    2  501    0  0.84604591460E+02  0.77872654488E+02  0.17540053659E+03  0.27617636076E+03  0.17968290623E+03 0.  0.
         24    2    3    3    0    0  0.74230180703E+02  0.11957136190E+03  0.16561453647E+03  0.23185631567E+03  0.80757328525E+02 0.  0.
         -6    2    1    2    0  502 -0.84604591460E+02 -0.77872654488E+02  0.31476562850E+03  0.37713566656E+03  0.17300815846E+03 0.  0.
        -24    2    5    5    0    0 -0.99037614435E+02 -0.63074487992E+02  0.13575023140E+03  0.19686947371E+03  0.80886489895E+02 0.  0.
          5    1    3    3  501    0  0.10374410757E+02 -0.41698707411E+02  0.97860001161E+01  0.44320045088E+02  0.47000000000E+01 0. -1.
        -11    1    4    4    0    0  0.85761759557E+02  0.71117768947E+02  0.10190421576E+03  0.15098770033E+03  0.00000000000E+00 0.  1.
         12    1    4    4    0    0 -0.11531578854E+02  0.48453592952E+02  0.63710320713E+02  0.80868615335E+02  0.00000000000E+00 0. -1.
         -5    1    5    5    0  502  0.14433022975E+02 -0.14798166496E+02  0.17901539710E+03  0.18026619285E+03  0.47000000000E+01 0.  1.
         13    1    6    6    0    0 -0.10753838643E+03 -0.53886352311E+02  0.13911721763E+03  0.18390716072E+03  0.00000000000E+00 0. -1.
        -14    1    6    6    0    0  0.85007719973E+01 -0.91881356802E+01 -0.33669862370E+01  0.12962312994E+02  0.00000000000E+00 0.  1.
<mgrwt>
<rscale>  2 0.21191444E+03</rscale>
<asrwt>0</asrwt>
<pdfrwt beam="1">  1       21 0.87959858E-01 0.21332612E+03</pdfrwt>
<pdfrwt beam="2">  1       21 0.12549682E-01 0.21332612E+03</pdfrwt>
<totfact> 0.59400754E+04</totfact>
</mgrwt>
</event>
<event>
12    1  0.1074575E-001  0.1957521E+03  0.7546771E-02  0.1154493E+00
         21   -1    0    0  501  502  0.00000000000E+00  0.00000000000E+00  0.44998067811E+02  0.44998067811E+02  0.00000000000E+00 0. -1.
         21   -1    0    0  502  503 -0.00000000000E+00 -0.00000000000E+00 -0.23155577618E+04  0.23155577618E+04  0.00000000000E+00 0.  1.
         -6    2    1    2    0  503 -0.67116558320E+02  0.44769684347E+02 -0.20753989859E+04  0.20841384152E+04  0.17275134175E+03 0.  0.
        -24    2    3    3    0    0 -0.81234632789E+02 -0.26906259231E+02 -0.12979607564E+04  0.13032613112E+04  0.80404649912E+02 0.  0.
          6    2    1    2  501    0  0.67116558320E+02 -0.44769684347E+02 -0.19516070810E+03  0.27641741440E+03  0.17835337945E+03 0.  0.
         24    2    5    5    0    0  0.54142998774E+02  0.80101557250E+01 -0.29741215108E+02  0.10223439736E+03  0.81066054649E+02 0.  0.
          5    1    5    5  501    0  0.12973559546E+02 -0.52779840072E+02 -0.16541949299E+03  0.17418301704E+03  0.47000000000E+01 0. -1.
        -11    1    6    6    0    0 -0.21214699954E+02  0.72616375034E+01 -0.57919073521E+01  0.23159038498E+02  0.00000000000E+00 0.  1.
         12    1    6    6    0    0  0.75357698728E+02  0.74851822158E+00 -0.23949307756E+02  0.79075358862E+02  0.00000000000E+00 0. -1.
         -5    1    3    3    0  503  0.14118074469E+02  0.71675943579E+02 -0.77743822947E+03  0.78087710400E+03  0.47000000000E+01 0.  1.
         11    1    4    4    0    0 -0.18902829812E+02 -0.40542414119E+02 -0.30620772157E+03  0.30945786961E+03  0.00000000000E+00 0. -1.
        -12    1    4    4    0    0 -0.62331802976E+02  0.13636154888E+02 -0.99175303481E+03  0.99380344155E+03  0.00000000000E+00 0.  1.
<mgrwt>
<rscale>  2 0.19446697E+03</rscale>
<asrwt>0</asrwt>
<pdfrwt beam="1">  1       21 0.69227793E-02 0.19575210E+03</pdfrwt>
<pdfrwt beam="2">  1       21 0.35623967E+00 0.19575210E+03</pdfrwt>
<totfact> 0.24660815E+03</totfact>
</mgrwt>
</event>
<event>
12    1  0.1074575E-001  0.2055735E+03  0.7546771E-02  0.1145376E+00
         21   -1    0    0  503  502  0.00000000000E+00  0.00000000000E+00  0.76835925324E+03  0.76835925324E+03  0.00000000000E+00 0.  1.
         21   -1    0    0  501  503 -0.00000000000E+00 -0.00000000000E+00 -0.19127274685E+03  0.19127274685E+03  0.00000000000E+00 0.  1.
          6    2    1    2  501    0  0.10709196294E+03 -0.25468292317E+02 -0.11720097101E+03  0.23554942090E+03  0.17213407461E+03 0.  0.
         24    2    3    3    0    0  0.10978055637E+02  0.15989188051E+02 -0.97848315824E+02  0.12899792575E+03  0.81792420790E+02 0.  0.
         -6    2    1    2    0  502 -0.10709196294E+03  0.25468292317E+02  0.69428747741E+03  0.72408257919E+03  0.17361784979E+03 0.  0.
        -24    2    5    5    0    0 -0.53730319498E+02  0.27259571283E+02  0.17326509933E+03  0.20031060388E+03  0.80458137683E+02 0.  0.
          5    1    3    3  501    0  0.96113907302E+02 -0.41457480368E+02 -0.19352655185E+02  0.10655149515E+03  0.47000000000E+01 0. -1.
        -13    1    4    4    0    0  0.20917873230E+02  0.35412783824E+02 -0.15737202696E+02  0.44037282243E+02  0.00000000000E+00 0.  1.
         14    1    4    4    0    0 -0.99398175934E+01 -0.19423595772E+02 -0.82111113128E+02  0.84960643510E+02  0.00000000000E+00 0. -1.
         -5    1    5    5    0  502 -0.53361643441E+02 -0.17912789663E+01  0.52102237807E+03  0.52377197531E+03  0.47000000000E+01 0.  1.
         11    1    6    6    0    0  0.15601555704E+02  0.26681838653E+01  0.48892244122E+01  0.16565997129E+02  0.00000000000E+00 0. -1.
        -12    1    6    6    0    0 -0.69331875202E+02  0.24591387418E+02  0.16837587492E+03  0.18374460675E+03  0.00000000000E+00 0.  1.
<mgrwt>
<rscale>  2 0.20525993E+03</rscale>
<asrwt>0</asrwt>
<pdfrwt beam="1">  1       21 0.11820911E+00 0.20557354E+03</pdfrwt>
<pdfrwt beam="2">  1       21 0.29426577E-01 0.20557354E+03</pdfrwt>
<totfact> 0.60038518E+03</totfact>
</mgrwt>
</event>
<event>
12    1  0.1074575E-001  0.2048233E+03  0.7546771E-02  0.1146685E+00
         21   -1    0    0  501  502  0.00000000000E+00  0.00000000000E+00  0.84174427706E+02  0.84174427706E+02  0.00000000000E+00 0. -1.
         21   -1    0    0  502  503 -0.00000000000E+00 -0.00000000000E+00 -0.78012983195E+03  0.78012983195E+03  0.00000000000E+00 0.  1.
         -6    2    1    2    0  503  0.91416553858E+02  0.41745531948E+02 -0.61521537545E+03  0.64841541965E+03  0.17847387062E+03 0.  0.
        -24    2    3    3    0    0  0.10759501284E+03  0.14887178964E+02 -0.30209931028E+03  0.33369828646E+03  0.91061727549E+02 0.  0.
          6    2    1    2  501    0 -0.91416553858E+02 -0.41745531948E+02 -0.80740028793E+02  0.21588884000E+03  0.17317437233E+03 0.  0.
         24    2    5    5    0    0 -0.33792742749E+02  0.26387013803E+02 -0.88240847234E+02  0.12621777625E+03  0.79411938404E+02 0.  0.
          5    1    5    5  501    0 -0.57623811110E+02 -0.68132545751E+02  0.75008184410E+01  0.89671063753E+02  0.47000000000E+01 0. -1.
        -13    1    6    6    0    0 -0.13332901242E+02 -0.27732162199E+02 -0.42465510615E+02  0.52441955223E+02  0.00000000000E+00 0.  1.
         14    1    6    6    0    0 -0.20459841507E+02  0.54119176003E+02 -0.45775336618E+02  0.73775821027E+02  0.00000000000E+00 0. -1.
         -5    1    3    3    0  503 -0.16178458986E+02  0.26858352984E+02 -0.31311606517E+03  0.31471713320E+03  0.47000000000E+01 0.  1.
         11    1    4    4    0    0  0.33638864454E+02  0.12988916461E+02 -0.18343583610E+02  0.40457041566E+02  0.00000000000E+00 0. -1.
        -12    1    4    4    0    0  0.73956148390E+02  0.18982625033E+01 -0.28375572667E+03  0.29324124489E+03  0.00000000000E+00 0.  1.
<mgrwt>
<rscale>  2 0.20366330E+03</rscale>
<asrwt>0</asrwt>
<pdfrwt beam="1">  1       21 0.12949912E-01 0.20482333E+03</pdfrwt>
<pdfrwt beam="2">  1       21 0.12001998E+00 0.20482333E+03</pdfrwt>
<totfact> 0.26822527E+04</totfact>
</mgrwt>
</event>
<event>
12    1  0.1074575E-001  0.2224888E+03  0.7546771E-02  0.1132764E+00
         21   -1    0    0  503  502  0.00000000000E+00  0.00000000000E+00  0.21842903295E+03  0.21842903295E+03  0.00000000000E+00 0. -1.
         21   -1    0    0  501  503 -0.00000000000E+00 -0.00000000000E+00 -0.25453867282E+03  0.25453867282E+03  0.00000000000E+00 0. -1.
          6    2    1    2  501    0  0.10425695786E+03  0.88174913606E+02 -0.10187059962E+03  0.24470164935E+03  0.17566146270E+03 0.  0.
         24    2    3    3    0    0  0.64694949718E+02  0.12360157928E+03 -0.10673891570E+03  0.19116669226E+03  0.75423611581E+02 0.  0.
         -6    2    1    2    0  502 -0.10425695786E+03 -0.88174913606E+02  0.65760959754E+02  0.22826605642E+03  0.17069434681E+03 0.  0.
        -24    2    5    5    0    0 -0.45104607334E+02 -0.47788041267E+02  0.10405400725E+03  0.14691160038E+03  0.80235026087E+02 0.  0.
          5    1    3    3  501    0  0.39562008145E+02 -0.35426665676E+02  0.48683160854E+01  0.53534957092E+02  0.47000000000E+01 0. -1.
        -11    1    4    4    0    0  0.38872225255E+02  0.89492158902E+02 -0.27920678461E+02  0.10148625861E+03  0.00000000000E+00 0.  1.
         12    1    4    4    0    0  0.25822724463E+02  0.34109420380E+02 -0.78818237242E+02  0.89680433648E+02  0.00000000000E+00 0. -1.
         -5    1    5    5    0  502 -0.59152350530E+02 -0.40386872339E+02 -0.38293047495E+02  0.81354456036E+02  0.47000000000E+01 0.  1.
         11    1    6    6    0    0 -0.53209014799E+02 -0.65406652133E+02  0.84397521056E+02  0.11929866286E+03  0.00000000000E+00 0. -1.
        -12    1    6    6    0    0  0.81044074658E+01  0.17618610866E+02  0.19656486193E+02  0.27612937523E+02  0.00000000000E+00 0.  1.
<mgrwt>
<rscale>  2 0.22150724E+03</rscale>
<asrwt>0</asrwt>
<pdfrwt beam="1">  1       21 0.33604467E-01 0.22248883E+03</pdfrwt>
<pdfrwt beam="2">  1       21 0.39159796E-01 0.22248883E+03</pdfrwt>
<totfact> 0.52889064E+04</totfact>
</mgrwt>
</event>
<event>
12    1  0.1074575E-001  0.2605015E+03  0.7546771E-02  0.1106899E+00
         21   -1    0    0  501  502  0.00000000000E+00  0.00000000000E+00  0.42399526133E+03  0.42399526133E+03  0.00000000000E+00 0. -1.
         21   -1    0    0  502  503 -0.00000000000E+00 -0.00000000000E+00 -0.20424893456E+03  0.20424893456E+03  0.00000000000E+00 0.  1.
         -6    2    1    2    0  503  0.32665599103E+02  0.19188945570E+03 -0.36697606117E+02  0.26269731947E+03  0.17255307238E+03 0.  0.
        -24    2    3    3    0    0 -0.51011210456E+02  0.14178365593E+03 -0.11761217639E+02  0.16191878456E+03  0.58091461247E+02 0.  0.
          6    2    1    2  501    0 -0.32665599103E+02 -0.19188945570E+03  0.25644393289E+03  0.36554687643E+03  0.17312545618E+03 0.  0.
         24    2    5    5    0    0 -0.57471113506E+02 -0.18477904622E+03  0.15597174572E+03  0.26170747224E+03  0.81959689807E+02 0.  0.
          5    1    5    5  501    0  0.24805514403E+02 -0.71104094818E+01  0.10047218717E+03  0.10383940419E+03  0.47000000000E+01 0. -1.
        -13    1    6    6    0    0 -0.39819341032E+02 -0.28161977461E+02  0.17211302190E+02  0.51719491662E+02  0.00000000000E+00 0.  1.
         14    1    6    6    0    0 -0.17651772474E+02 -0.15661706876E+03  0.13876044353E+03  0.20998798057E+03  0.00000000000E+00 0. -1.
         -5    1    3    3    0  503  0.83676809559E+02  0.50105799766E+02 -0.24936388478E+02  0.10077853491E+03  0.47000000000E+01 0.  1.
         11    1    4    4    0    0 -0.11030785376E+02  0.90716852839E+02  0.13382569250E+02  0.92359724852E+02  0.00000000000E+00 0. -1.
        -12    1    4    4    0    0 -0.39980425079E+02  0.51066803094E+02 -0.25143786889E+02  0.69559059704E+02  0.00000000000E+00 0.  1.
<mgrwt>
<rscale>  2 0.26040643E+03</rscale>
<asrwt>0</asrwt>
<pdfrwt beam="1">  1       21 0.65230040E-01 0.26050149E+03</pdfrwt>
<pdfrwt beam="2">  1       21 0.31422913E-01 0.26050149E+03</pdfrwt>
<totfact> 0.20302967E+04</totfact>
</mgrwt>
</event>
<event>
12    1  0.1074575E-001  0.2089915E+03  0.7546771E-02  0.1142561E+00
         21   -1    0    0  501  502  0.00000000000E+00  0.00000000000E+00  0.12253873983E+04  0.12253873983E+04  0.00000000000E+00 0. -1.
         21   -1    0    0  502  503 -0.00000000000E+00 -0.00000000000E+00 -0.36263509966E+02  0.36263509966E+02  0.00000000000E+00 0. -1.
         -6    2    1    2    0  503 -0.98954974668E+02  0.59441714022E+02  0.50038118664E+03  0.54189819770E+03  0.17305178515E+03 0.  0.
        -24    2    3    3    0    0  0.11109581978E+02  0.49761686999E+02  0.19869704000E+03  0.22058320601E+03  0.81097402923E+02 0.  0.
          6    2    1    2  501    0  0.98954974668E+02 -0.59441714022E+02  0.68874270166E+03  0.71975271053E+03  0.17421839988E+03 0.  0.
         24    2    5    5    0    0  0.59660838205E+02 -0.10529509591E+03  0.54420953245E+03  0.56304122789E+03  0.78771417793E+02 0.  0.
          5    1    5    5  501    0  0.39294136462E+02  0.45853381883E+02  0.14453316921E+03  0.15671148264E+03  0.47000000000E+01 0. -1.
        -11    1    6    6    0    0  0.53006065582E+02 -0.71959263232E+02  0.22614427890E+03  0.24316458096E+03  0.00000000000E+00 0.  1.
         12    1    6    6    0    0  0.66547726235E+01 -0.33335832673E+02  0.31806525355E+03  0.31987664693E+03  0.00000000000E+00 0. -1.
         -5    1    3    3    0  503 -0.11006455665E+03  0.96800270233E+01  0.30168414664E+03  0.32131499169E+03  0.47000000000E+01 0.  1.
         11    1    4    4    0    0 -0.33662820755E+02  0.27631512280E+02  0.68910409412E+02  0.81518896566E+02  0.00000000000E+00 0. -1.
        -12    1    4    4    0    0  0.44772402733E+02  0.22130174719E+02  0.12978663059E+03  0.13906430944E+03  0.00000000000E+00 0.  1.
<mgrwt>
<rscale>  2 0.20874822E+03</rscale>
<asrwt>0</asrwt>
<pdfrwt beam="1">  1       21 0.18852111E+00 0.20899152E+03</pdfrwt>
<pdfrwt beam="2">  1       21 0.55790025E-02 0.20899152E+03</pdfrwt>
<totfact> 0.35230719E+04</totfact>
</mgrwt>
</event>
<event>
12    1  0.1074575E-001  0.1802313E+03  0.7546771E-02  0.1167960E+00
         21   -1    0    0  503  502  0.00000000000E+00  0.00000000000E+00  0.27100925850E+03  0.27100925850E+03  0.00000000000E+00 0.  1.
         21   -1    0    0  501  503 -0.00000000000E+00 -0.00000000000E+00 -0.38077032507E+03  0.38077032507E+03  0.00000000000E+00 0.  1.
          6    2    1    2  501    0 -0.28336632953E+02 -0.34675971608E+02 -0.32510614111E+03  0.37096502973E+03  0.17296144807E+03 0.  0.
         24    2    3    3    0    0 -0.55538720342E+00  0.35230828572E+02 -0.10530761073E+03  0.13860272150E+03  0.82942762150E+02 0.  0.
         -6    2    1    2    0  502  0.28336632953E+02  0.34675971608E+02  0.21534507453E+03  0.28081455384E+03  0.17457927927E+03 0.  0.
        -24    2    5    5    0    0 -0.80518472596E+01 -0.14486323013E+02  0.21133562631E+03  0.21933920610E+03  0.56322771477E+02 0.  0.
          5    1    3    3  501    0 -0.27781245750E+02 -0.69906800180E+02 -0.21979853038E+03  0.23236230822E+03  0.47000000000E+01 0. -1.
        -13    1    4    4    0    0  0.76074549347E+01  0.33728810144E+02 -0.11826459435E+03  0.12321534110E+03  0.00000000000E+00 0.  1.
         14    1    4    4    0    0 -0.81628421381E+01  0.15020184275E+01  0.12956983622E+02  0.15387380404E+02  0.00000000000E+00 0. -1.
         -5    1    5    5    0  502  0.36388480213E+02  0.49162294621E+02  0.40094482212E+01  0.61475347739E+02  0.47000000000E+01 0.  1.
         11    1    6    6    0    0  0.96894943653E+01 -0.18136502090E+02  0.26132532809E+02  0.33252492841E+02  0.00000000000E+00 0. -1.
        -12    1    6    6    0    0 -0.17741341625E+02  0.36501790773E+01  0.18520309350E+03  0.18608671326E+03  0.00000000000E+00 0.  1.
<mgrwt>
<rscale>  2 0.17983833E+03</rscale>
<asrwt>0</asrwt>
<pdfrwt beam="1">  1       21 0.41693732E-01 0.18023128E+03</pdfrwt>
<pdfrwt beam="2">  1       21 0.58580050E-01 0.18023128E+03</pdfrwt>
<totfact> 0.15225443E+04</totfact>
</mgrwt>
</event>
<event>
12    1  0.1074575E-001  0.1746887E+03  0.7546771E-02  0.1173104E+00
         21   -1    0    0  503  502  0.00000000000E+00  0.00000000000E+00  0.21607602614E+03  0.21607602614E+03  0.00000000000E+00 0. -1.
         21   -1    0    0  501  503 -0.00000000000E+00 -0.00000000000E+00 -0.71832899196E+03  0.71832899196E+03  0.00000000000E+00 0. -1.
          6    2    1    2  501    0  0.21380347685E+02  0.87327575865E+01 -0.66992634570E+03  0.69226761865E+03  0.17291549046E+03 0.  0.
         24    2    3    3    0    0  0.64764829793E+02  0.35733719079E+02 -0.56507927405E+03  0.57553603063E+03  0.80347711388E+02 0.  0.
         -6    2    1    2    0  502 -0.21380347685E+02 -0.87327575865E+01  0.16767337988E+03  0.24213739945E+03  0.17315535676E+03 0.  0.
        -24    2    5    5    0    0  0.41636078100E+02  0.15251094375E+02  0.14407981117E+03  0.17054800388E+03  0.79758828750E+02 0.  0.
          5    1    3    3  501    0 -0.43384482108E+02 -0.27000961493E+02 -0.10484707164E+03  0.11673158802E+03  0.47000000000E+01 0. -1.
        -13    1    4    4    0    0  0.33057060052E+02  0.20957657258E+02 -0.78655601650E+02  0.87856111273E+02  0.00000000000E+00 0.  1.
         14    1    4    4    0    0  0.31707769741E+02  0.14776061821E+02 -0.48642367240E+03  0.48767991935E+03  0.00000000000E+00 0. -1.
         -5    1    5    5    0  502 -0.63016425786E+02 -0.23983851961E+02  0.23593568707E+02  0.71589395570E+02  0.47000000000E+01 0.  1.
         11    1    6    6    0    0  0.31112199110E+02  0.39920595888E+02  0.44414467702E+02  0.67336972390E+02  0.00000000000E+00 0. -1.
        -12    1    6    6    0    0  0.10523878991E+02 -0.24669501513E+02  0.99665343466E+02  0.10321103149E+03  0.00000000000E+00 0.  1.
<mgrwt>
<rscale>  2 0.17462928E+03</rscale>
<asrwt>0</asrwt>
<pdfrwt beam="1">  1       21 0.33242465E-01 0.17468875E+03</pdfrwt>
<pdfrwt beam="2">  1       21 0.11051215E+00 0.17468875E+03</pdfrwt>
<totfact> 0.57095604E+03</totfact>
</mgrwt>
</event>
<event>
12    1  0.1074575E-001  0.2054803E+03  0.7546771E-02  0.1146416E+00
         21   -1    0    0  501  502  0.00000000000E+00  0.00000000000E+00  0.65888377751E+02  0.65888377751E+02  0.00000000000E+00 0. -1.
         21   -1    0    0  502  503 -0.00000000000E+00 -0.00000000000E+00 -0.62922420381E+03  0.62922420381E+03  0.00000000000E+00 0. -1.
         -6    2    1    2    0  503  0.10314803835E+03  0.11677166099E+02 -0.24994417862E+03  0.32356492690E+03  0.17733103357E+03 0.  0.
        -24    2    3    3    0    0  0.50718333877E+02 -0.53440895320E+02 -0.83339426934E+02  0.13710187662E+03  0.80144780284E+02 0.  0.
          6    2    1    2  501    0 -0.10314803835E+03 -0.11677166099E+02 -0.31339164743E+03  0.37154765466E+03  0.17046249141E+03 0.  0.
         24    2    5    5    0    0 -0.13471402650E+01 -0.39679782033E+02 -0.14007701985E+03  0.16855105497E+03  0.84921061896E+02 0.  0.
          5    1    5    5  501    0 -0.10180089809E+03  0.28002615934E+02 -0.17331462759E+03  0.20299659969E+03  0.47000000000E+01 0. -1.
        -13    1    6    6    0    0 -0.38198561302E+02 -0.23856646184E+02 -0.10860231828E+03  0.11757012031E+03  0.00000000000E+00 0.  1.
         14    1    6    6    0    0  0.36851421037E+02 -0.15823135849E+02 -0.31474701562E+02  0.50980934661E+02  0.00000000000E+00 0. -1.
         -5    1    3    3    0  503  0.52429704474E+02  0.65118061419E+02 -0.16660475169E+03  0.18646305028E+03  0.47000000000E+01 0.  1.
         13    1    4    4    0    0  0.36778531820E+02 -0.37272257855E+01 -0.76573058464E+02  0.85029323750E+02  0.00000000000E+00 0. -1.
        -14    1    4    4    0    0  0.13939802057E+02 -0.49713669534E+02 -0.67663684699E+01  0.52072552868E+02  0.00000000000E+00 0.  1.
<mgrwt>
<rscale>  2 0.20398984E+03</rscale>
<asrwt>0</asrwt>
<pdfrwt beam="1">  1       21 0.10136674E-01 0.20548034E+03</pdfrwt>
<pdfrwt beam="2">  1       21 0.96803721E-01 0.20548034E+03</pdfrwt>
<totfact> 0.69795976E+04</totfact>
</mgrwt>
</event>
<event>
12    1  0.1074575E-001  0.1998002E+03  0.7546771E-02  0.1149996E+00
         21   -1    0    0  501  502  0.00000000000E+00  0.00000000000E+00  0.65372616229E+03  0.65372616229E+03  0.00000000000E+00 0. -1.
         21   -1    0    0  502  503 -0.00000000000E+00 -0.00000000000E+00 -0.49328002293E+03  0.49328002293E+03  0.00000000000E+00 0.  1.
         -6    2    1    2    0  503 -0.73715706632E+02 -0.68488808149E+02 -0.45669864186E+03  0.49832459187E+03  0.17213084309E+03 0.  0.
        -24    2    3    3    0    0 -0.55747603414E+02 -0.57503781707E+01 -0.11753135432E+03  0.15290383068E+03  0.80156721811E+02 0.  0.
          6    2    1    2  501    0  0.73715706632E+02  0.68488808149E+02  0.61714478122E+03  0.64868159335E+03  0.17261345926E+03 0.  0.
         24    2    5    5    0    0  0.10490835477E+03  0.86580357051E+02  0.55102795717E+03  0.57322425532E+03  0.80326310619E+02 0.  0.
          5    1    5    5  501    0 -0.31192648142E+02 -0.18091548902E+02  0.66116824056E+02  0.75457338033E+02  0.47000000000E+01 0. -1.
        -13    1    6    6    0    0  0.12932762171E+02 -0.14096463324E+02  0.10811391973E+03  0.10979337983E+03  0.00000000000E+00 0.  1.
         14    1    6    6    0    0  0.91975592603E+02  0.10067682037E+03  0.44291403744E+03  0.46343087549E+03  0.00000000000E+00 0. -1.
         -5    1    3    3    0  503 -0.17968103218E+02 -0.62738429979E+02 -0.33916728754E+03  0.34542076120E+03  0.47000000000E+01 0.  1.
         11    1    4    4    0    0  0.14361795696E+02  0.14614690629E+01  0.15599730725E+01  0.14520006317E+02  0.00000000000E+00 0. -1.
        -12    1    4    4    0    0 -0.70109399111E+02 -0.72118472336E+01 -0.11909132739E+03  0.13838382436E+03  0.00000000000E+00 0.  1.
<mgrwt>
<rscale>  2 0.19969594E+03</rscale>
<asrwt>0</asrwt>
<pdfrwt beam="1">  1       21 0.10057326E+00 0.19980022E+03</pdfrwt>
<pdfrwt beam="2">  1       21 0.75889235E-01 0.19980022E+03</pdfrwt>
<totfact> 0.12454803E+03</totfact>
</mgrwt>
</event>
<event>
12    1  0.1074575E-001  0.2856115E+03  0.7546771E-02  0.1092867E+00
         21   -1    0    0  501  502  0.00000000000E+00  0.00000000000E+00  0.10184235743E+04  0.10184235743E+04  0.00000000000E+00 0.  1.
         21   -1    0    0  502  503 -0.00000000000E+00 -0.00000000000E+00 -0.94942450153E+02  0.94942450153E+02  0.00000000000E+00 0.  1.
         -6    2    1    2    0  503 -0.13487834614E+03  0.18097536362E+03  0.23951300101E+03  0.37274711775E+03  0.17501338703E+03 0.  0.
        -24    2    3    3    0    0 -0.13868136040E+03  0.81295875444E+02  0.18782006048E+03  0.26029840329E+03  0.81469899672E+02 0.  0.
          6    2    1    2  501    0  0.13487834614E+03 -0.18097536362E+03  0.68396812315E+03  0.74061890672E+03  0.17251006059E+03 0.  0.
         24    2    5    5    0    0  0.12385567715E+03 -0.15287769036E+03  0.67678685476E+03  0.70923994736E+03  0.79177264292E+02 0.  0.
          5    1    5    5  501    0  0.11022668990E+02 -0.28097673267E+02  0.71812683895E+01  0.31378959358E+02  0.47000000000E+01 0. -1.
        -13    1    6    6    0    0  0.24269919349E+01 -0.54472835917E+02  0.14306669756E+03  0.15310538884E+03  0.00000000000E+00 0.  1.
         14    1    6    6    0    0  0.12142868522E+03 -0.98404854441E+02  0.53372015720E+03  0.55613455852E+03  0.00000000000E+00 0. -1.
         -5    1    3    3    0  503  0.38030142601E+01  0.99679488181E+02  0.51692940527E+02  0.11244871445E+03  0.47000000000E+01 0.  1.
         11    1    4    4    0    0 -0.46915824441E+02  0.27729822454E+01  0.14758807155E+02  0.49260596852E+02  0.00000000000E+00 0. -1.
        -12    1    4    4    0    0 -0.91765535958E+02  0.78522893199E+02  0.17306125332E+03  0.21103780644E+03  0.00000000000E+00 0.  1.
<mgrwt>
<rscale>  2 0.28522898E+03</rscale>
<asrwt>0</asrwt>
<pdfrwt beam="1">  1       21 0.15668054E+00 0.28561151E+03</pdfrwt>
<pdfrwt beam="2">  1       21 0.14606532E-01 0.28561151E+03</pdfrwt>
<totfact> 0.10330258E+04</totfact>
</mgrwt>
</event>
<event>
12    1  0.1074575E-001  0.1796907E+03  0.7546771E-02  0.1169238E+00
         21   -1    0    0  501  502  0.00000000000E+00  0.00000000000E+00  0.98320918558E+02  0.98320918558E+02  0.00000000000E+00 0. -1.
         21   -1    0    0  502  503 -0.00000000000E+00 -0.00000000000E+00 -0.33157123113E+03  0.33157123113E+03  0.00000000000E+00 0.  1.
         -6    2    1    2    0  503 -0.45387335085E+02  0.16701904419E+02 -0.15821555127E+03  0.23941782509E+03  0.17306001996E+03 0.  0.
        -24    2    3    3    0    0  0.86806696034E+01  0.41041359775E+02 -0.26202314954E+02  0.94623685770E+02  0.80668044247E+02 0.  0.
          6    2    1    2  501    0  0.45387335085E+02 -0.16701904419E+02 -0.75034761304E+02  0.19047432460E+03  0.16825958853E+03 0.  0.
         24    2    5    5    0    0  0.59466351764E+02  0.25770393030E+02  0.32054012023E+01  0.10022063886E+03  0.76377625701E+02 0.  0.
          5    1    5    5  501    0 -0.14079016679E+02 -0.42472297449E+02 -0.78240162506E+02  0.90253685743E+02  0.47000000000E+01 0. -1.
        -13    1    6    6    0    0  0.61061555926E+02  0.29923865046E+02 -0.24410702848E+02  0.72248416764E+02  0.00000000000E+00 0.  1.
         14    1    6    6    0    0 -0.15952041625E+01 -0.41534720159E+01  0.27616104050E+02  0.27972222096E+02  0.00000000000E+00 0. -1.
         -5    1    3    3    0  503 -0.54068004688E+02 -0.24339455356E+02 -0.13201323632E+03  0.14479413932E+03  0.47000000000E+01 0.  1.
         11    1    4    4    0    0 -0.82680082785E+00 -0.94349555044E+01  0.22144764578E+02  0.24085111235E+02  0.00000000000E+00 0. -1.
        -12    1    4    4    0    0  0.95074704313E+01  0.50476315280E+02 -0.48347079531E+02  0.70538574535E+02  0.00000000000E+00 0.  1.
<mgrwt>
<rscale>  2 0.17852473E+03</rscale>
<asrwt>0</asrwt>
<pdfrwt beam="1">  1       21 0.15126295E-01 0.17969066E+03</pdfrwt>
<pdfrwt beam="2">  1       21 0.51010959E-01 0.17969066E+03</pdfrwt>
<totfact> 0.14179592E+05</totfact>
</mgrwt>
</event>
<event>
12    1  0.1074575E-001  0.2226957E+03  0.7546771E-02  0.1132024E+00
         21   -1    0    0  501  502  0.00000000000E+00  0.00000000000E+00  0.57367432601E+03  0.57367432601E+03  0.00000000000E+00 0. -1.
         21   -1    0    0  502  503 -0.00000000000E+00 -0.00000000000E+00 -0.86511568387E+02  0.86511568387E+02  0.00000000000E+00 0. -1.
         -6    2    1    2    0  503  0.12537451834E+03  0.61890758841E+02  0.26489340216E+03  0.34606630688E+03  0.17333245043E+03 0.  0.
        -24    2    3    3    0    0  0.66240532164E+02  0.10310838699E+03  0.20556062531E+03  0.25258802277E+03  0.80786081728E+02 0.  0.
          6    2    1    2  501    0 -0.12537451834E+03 -0.61890758841E+02  0.22226935547E+03  0.31411958752E+03  0.17238971258E+03 0.  0.
         24    2    5    5    0    0 -0.55373888572E+02  0.33712514944E+01  0.18768206227E+03  0.21224913541E+03  0.82143204913E+02 0.  0.
          5    1    5    5  501    0 -0.70000629769E+02 -0.65262010335E+02  0.34587293197E+02  0.10187045210E+03  0.47000000000E+01 0. -1.
        -11    1    6    6    0    0 -0.25667121015E+02 -0.28091134476E+02  0.15037940103E+03  0.15511891307E+03  0.00000000000E+00 0.  1.
         12    1    6    6    0    0 -0.29706767558E+02  0.31462385971E+02  0.37302661244E+02  0.57130222348E+02  0.00000000000E+00 0. -1.
         -5    1    3    3    0  503  0.59133986178E+02 -0.41217628150E+02  0.59332776845E+02  0.93478284108E+02  0.47000000000E+01 0.  1.
         13    1    4    4    0    0  0.65569102506E+02  0.64726016731E+02  0.19001031265E+03  0.21116979745E+03  0.00000000000E+00 0. -1.
        -14    1    4    4    0    0  0.67142965830E+00  0.38382370259E+02  0.15550312665E+02  0.41418225318E+02  0.00000000000E+00 0.  1.
<mgrwt>
<rscale>  2 0.22251223E+03</rscale>
<asrwt>0</asrwt>
<pdfrwt beam="1">  1       21 0.88257586E-01 0.22269570E+03</pdfrwt>
<pdfrwt beam="2">  1       21 0.13309472E-01 0.22269570E+03</pdfrwt>
<totfact> 0.52780573E+04</totfact>
</mgrwt>
</event>
<event>
12    1  0.1074575E-001  0.1995858E+03  0.7546771E-02  0.1150812E+00
         21   -1    0    0  503  502  0.00000000000E+00  0.00000000000E+00  0.10203855193E+03  0.10203855193E+03  0.00000000000E+00 0. -1.
         21   -1    0    0  501  503 -0.00000000000E+00 -0.00000000000E+00 -0.95700008553E+03  0.95700008553E+03  0.00000000000E+00 0. -1.
          6    2    1    2  501    0  0.57595847734E+02  0.72644924252E+02 -0.83875354333E+03  0.86217284614E+03  0.17674824889E+03 0.  0.
         24    2    3    3    0    0  0.60788749189E+02 -0.17034932700E+02 -0.56763387014E+03  0.57654960032E+03  0.78840155652E+02 0.  0.
         -6    2    1    2    0  502 -0.57595847734E+02 -0.72644924252E+02 -0.16207990273E+02  0.19686579132E+03  0.17291290914E+03 0.  0.
        -24    2    5    5    0    0 -0.34784116404E+02 -0.42076411573E-01  0.46715473319E+02  0.98007302197E+02  0.78823596163E+02 0.  0.
          5    1    3    3  501    0 -0.31929014555E+01  0.89679856952E+02 -0.27111967318E+03  0.28562324582E+03  0.47000000000E+01 0. -1.
        -11    1    4    4    0    0  0.36306770904E+02  0.18058451058E+02 -0.11580566518E+03  0.12269980178E+03  0.00000000000E+00 0.  1.
         12    1    4    4    0    0  0.24481978285E+02 -0.35093383758E+02 -0.45182820496E+03  0.45384979855E+03  0.00000000000E+00 0. -1.
         -5    1    5    5    0  502 -0.22811731330E+02 -0.72602847840E+02 -0.62923463593E+02  0.98858489121E+02  0.47000000000E+01 0.  1.
         11    1    6    6    0    0 -0.22273334357E+02  0.25694000113E+02 -0.91722852062E+01  0.35219509950E+02  0.00000000000E+00 0. -1.
        -12    1    6    6    0    0 -0.12510782046E+02 -0.25736076525E+02  0.55887758526E+02  0.62787792247E+02  0.00000000000E+00 0.  1.
<mgrwt>
<rscale>  2 0.19873330E+03</rscale>
<asrwt>0</asrwt>
<pdfrwt beam="1">  1       21 0.15698238E-01 0.19958585E+03</pdfrwt>
<pdfrwt beam="2">  1       21 0.14723079E+00 0.19958585E+03</pdfrwt>
<totfact> 0.11274575E+04</totfact>
</mgrwt>
</event>
<event>
12    1  0.1074575E-001  0.2143251E+03  0.7546771E-02  0.1138496E+00
         21   -1    0    0  503  502  0.00000000000E+00  0.00000000000E+00  0.85295588719E+02  0.85295588719E+02  0.00000000000E+00 0.  1.
         21   -1    0    0  501  503 -0.00000000000E+00 -0.00000000000E+00 -0.54539076653E+03  0.54539076653E+03  0.00000000000E+00 0. -1.
          6    2    1    2  501    0 -0.11234180230E+03 -0.56557450483E+02 -0.27370289970E+03  0.34664882354E+03  0.17155962173E+03 0.  0.
         24    2    3    3    0    0  0.60809412602E+01 -0.26784576419E+02 -0.70726617220E+02  0.10972725113E+03  0.79268050796E+02 0.  0.
         -6    2    1    2    0  502  0.11234180230E+03  0.56557450483E+02 -0.18639227811E+03  0.28403753171E+03  0.17353908013E+03 0.  0.
        -24    2    5    5    0    0  0.44885610980E+02  0.71270669164E+02 -0.18027191145E+03  0.21456548381E+03  0.80287971877E+02 0.  0.
          5    1    3    3  501    0 -0.11842274356E+03 -0.29772874064E+02 -0.20297628248E+03  0.23692157240E+03  0.47000000000E+01 0. -1.
        -13    1    4    4    0    0 -0.80320371939E+01 -0.51431420908E+02 -0.59834752875E+02  0.79308904480E+02  0.00000000000E+00 0.  1.
         14    1    4    4    0    0  0.14112978454E+02  0.24646844489E+02 -0.10891864344E+02  0.30418346652E+02  0.00000000000E+00 0. -1.
         -5    1    5    5    0  502  0.67456191320E+02 -0.14713218681E+02 -0.61203666595E+01  0.69472047900E+02  0.47000000000E+01 0.  1.
         13    1    6    6    0    0 -0.22590733128E+02  0.93216274403E+01 -0.31724765426E+02  0.40046157153E+02  0.00000000000E+00 0. -1.
        -14    1    6    6    0    0  0.67476344107E+02  0.61949041724E+02 -0.14854714603E+03  0.17451932666E+03  0.00000000000E+00 0.  1.
<mgrwt>
<rscale>  2 0.21392405E+03</rscale>
<asrwt>0</asrwt>
<pdfrwt beam="1">  1       21 0.13122398E-01 0.21432508E+03</pdfrwt>
<pdfrwt beam="2">  1       21 0.83906271E-01 0.21432508E+03</pdfrwt>
<totfact> 0.61062184E+04</totfact>
</mgrwt>
</event>
<event>
12    1  0.1074575E-001  0.2979301E+03  0.7546771E-02  0.1086751E+00
         21   -1    0    0  501  502  0.00000000000E+00  0.00000000000E+00  0.17989052555E+03  0.17989052555E+03  0.00000000000E+00 0.  1.
         21   -1    0    0  502  503 -0.00000000000E+00 -0.00000000000E+00 -0.58531479761E+03  0.58531479761E+03  0.00000000000E+00 0.  1.
         -6    2    1    2    0  503 -0.23314382457E+03  0.67837634771E+02 -0.36033592323E+03  0.46755138583E+03  0.17263931533E+03 0.  0.
        -24    2    3    3    0    0 -0.35666689790E+02  0.45728808972E+02 -0.11404314495E+03  0.15105771832E+03  0.80307898895E+02 0.  0.
          6    2    1    2  501    0  0.23314382457E+03 -0.67837634771E+02 -0.45088348829E+02  0.29765393732E+03  0.16615330143E+03 0.  0.
         24    2    5    5    0    0  0.25327069533E+03 -0.58525058469E+02 -0.47710370861E+02  0.27483333252E+03  0.75404599308E+02 0.  0.
          5    1    5    5  501    0 -0.20126870759E+02 -0.93125763019E+01  0.26220220318E+01  0.22820604800E+02  0.47000000000E+01 0. -1.
        -11    1    6    6    0    0  0.12483134893E+03 -0.49553429734E+02 -0.56661746778E+02  0.14577023572E+03  0.00000000000E+00 0.  1.
         12    1    6    6    0    0  0.12843934640E+03 -0.89716287355E+01  0.89513759168E+01  0.12906309680E+03  0.00000000000E+00 0. -1.
         -5    1    3    3    0  503 -0.19747713478E+03  0.22108825799E+02 -0.24629277829E+03  0.31649366751E+03  0.47000000000E+01 0.  1.
         11    1    4    4    0    0 -0.42840622807E+02  0.58327988814E+02 -0.56775570573E+02  0.91983360753E+02  0.00000000000E+00 0. -1.
        -12    1    4    4    0    0  0.71739330172E+01 -0.12599179841E+02 -0.57267574372E+02  0.59074357568E+02  0.00000000000E+00 0.  1.
<mgrwt>
<rscale>  2 0.29699797E+03</rscale>
<asrwt>0</asrwt>
<pdfrwt beam="1">  1       21 0.27675465E-01 0.29793006E+03</pdfrwt>
<pdfrwt beam="2">  1       21 0.90048431E-01 0.29793006E+03</pdfrwt>
<totfact> 0.12336056E+04</totfact>
</mgrwt>
</event>
<event>
12    1  0.1074575E-001  0.3020111E+03  0.7546771E-02  0.1084316E+00
         21   -1    0    0  501  502  0.00000000000E+00  0.00000000000E+00  0.58270888437E+03  0.58270888437E+03  0.00000000000E+00 0.  1.
         21   -1    0    0  502  503 -0.00000000000E+00 -0.00000000000E+00 -0.19412445400E+03  0.19412445400E+03  0.00000000000E+00 0. -1.
         -6    2    1    2    0  503 -0.23776927257E+03 -0.67114880486E+02  0.22792122999E+02  0.30286990994E+03  0.17370108610E+03 0.  0.
        -24    2    3    3    0    0 -0.19177727412E+03 -0.88346673200E+02  0.65077278883E+02  0.23671722782E+03  0.84949021097E+02 0.  0.
          6    2    1    2  501    0  0.23776927257E+03  0.67114880486E+02  0.36579230737E+03  0.47396342843E+03  0.17262295674E+03 0.  0.
         24    2    5    5    0    0  0.57328224031E+02  0.55833624329E+02  0.19298850419E+03  0.22382450077E+03  0.80305202301E+02 0.  0.
          5    1    5    5  501    0  0.18044104854E+03  0.11281256156E+02  0.17280380317E+03  0.25013892766E+03  0.47000000000E+01 0. -1.
        -11    1    6    6    0    0  0.29827837302E+02  0.14853401132E+02  0.16235205271E+03  0.16573627371E+03  0.00000000000E+00 0.  1.
         12    1    6    6    0    0  0.27500386728E+02  0.40980223197E+02  0.30636451485E+02  0.58088227061E+02  0.00000000000E+00 0. -1.
         -5    1    3    3    0  503 -0.45991998450E+02  0.21231792714E+02 -0.42285155884E+02  0.66152682118E+02  0.47000000000E+01 0.  1.
         11    1    4    4    0    0 -0.97458993765E+02 -0.90841107070E+02  0.39407393914E+02  0.13893633396E+03  0.00000000000E+00 0. -1.
        -12    1    4    4    0    0 -0.94318280357E+02  0.24944338695E+01  0.25669884969E+02  0.97780893860E+02  0.00000000000E+00 0.  1.
<mgrwt>
<rscale>  2 0.30185628E+03</rscale>
<asrwt>0</asrwt>
<pdfrwt beam="1">  1       21 0.89647520E-01 0.30201109E+03</pdfrwt>
<pdfrwt beam="2">  1       21 0.29865301E-01 0.30201109E+03</pdfrwt>
<totfact> 0.10717770E+04</totfact>
</mgrwt>
</event>
<event>
12    1  0.1074575E-001  0.2433609E+03  0.7546771E-02  0.1117629E+00
         21   -1    0    0  503  502  0.00000000000E+00  0.00000000000E+00  0.32832384660E+03  0.32832384660E+03  0.00000000000E+00 0. -1.
         21   -1    0    0  501  503 -0.00000000000E+00 -0.00000000000E+00 -0.55010595721E+03  0.55010595721E+03  0.00000000000E+00 0. -1.
          6    2    1    2  501    0 -0.45593399208E+02 -0.16511155819E+03 -0.47111184454E+03  0.53025549761E+03  0.17286971391E+03 0.  0.
         24    2    3    3    0    0  0.27326130566E+02 -0.89958116998E+02 -0.13963953816E+03  0.18260441183E+03  0.70753023816E+02 0.  0.
         -6    2    1    2    0  502  0.45593399208E+02  0.16511155819E+03  0.24932973393E+03  0.34817430620E+03  0.17239329040E+03 0.  0.
        -24    2    5    5    0    0  0.27988349461E+01  0.10837645830E+02  0.65172006972E+02  0.10410879621E+03  0.80411211358E+02 0.  0.
          5    1    3    3  501    0 -0.72919529774E+02 -0.75153441192E+02 -0.33147230638E+03  0.34765108578E+03  0.47000000000E+01 0. -1.
        -11    1    4    4    0    0  0.13326513281E+02 -0.25684358150E+02 -0.10366830691E+03  0.10763085091E+03  0.00000000000E+00 0.  1.
         12    1    4    4    0    0  0.13999617286E+02 -0.64273758848E+02 -0.35971231249E+02  0.74973560928E+02  0.00000000000E+00 0. -1.
         -5    1    5    5    0  502  0.42794564262E+02  0.15427391236E+03  0.18415772696E+03  0.24406550999E+03  0.47000000000E+01 0.  1.
         13    1    6    6    0    0  0.84753066862E+01  0.29287037038E+02 -0.53835772691E+01  0.30960366052E+02  0.00000000000E+00 0. -1.
        -14    1    6    6    0    0 -0.56764717401E+01 -0.18449391208E+02  0.70555584241E+02  0.73148430161E+02  0.00000000000E+00 0.  1.
<mgrwt>
<rscale>  2 0.24327630E+03</rscale>
<asrwt>0</asrwt>
<pdfrwt beam="1">  1       21 0.50511361E-01 0.24336089E+03</pdfrwt>
<pdfrwt beam="2">  1       21 0.84631686E-01 0.24336089E+03</pdfrwt>
<totfact> 0.43498721E+03</totfact>
</mgrwt>
</event>
<event>
12    1  0.1074575E-001  0.2062800E+03  0.7546771E-02  0.1144675E+00
         21   -1    0    0  503  502  0.00000000000E+00  0.00000000000E+00  0.64183637446E+03  0.64183637446E+03  0.00000000000E+00 0.  1.
         21   -1    0    0  501  503 -0.00000000000E+00 -0.00000000000E+00 -0.11985104142E+03  0.11985104142E+03  0.00000000000E+00 0.  1.
          6    2    1    2  501    0  0.11017245941E+03  0.19293985746E+02  0.61506726554E+01  0.20637169718E+03  0.17332402581E+03 0.  0.
         24    2    3    3    0    0  0.47866311710E+02  0.76409366230E+02  0.12550389902E+02  0.12147606060E+03  0.80432244581E+02 0.  0.
         -6    2    1    2    0  502 -0.11017245941E+03 -0.19293985746E+02  0.51583466039E+03  0.55531571870E+03  0.17256860051E+03 0.  0.
        -24    2    5    5    0    0 -0.13830716080E+03 -0.18306776524E+02  0.32895756669E+03  0.36627161234E+03  0.80484809275E+02 0.  0.
          5    1    3    3  501    0  0.62306147702E+02 -0.57115380484E+02 -0.63997172466E+01  0.84895636579E+02  0.47000000000E+01 0. -1.
        -11    1    4    4    0    0  0.56223711238E+02  0.27588661280E+02 -0.15549806199E+02  0.64529345336E+02  0.00000000000E+00 0.  1.
         12    1    4    4    0    0 -0.83573995283E+01  0.48820704950E+02  0.28100196101E+02  0.56946715266E+02  0.00000000000E+00 0. -1.
         -5    1    5    5    0  502  0.28134701388E+02 -0.98720922131E+00  0.18687709370E+03  0.18904410637E+03  0.47000000000E+01 0.  1.
         11    1    6    6    0    0 -0.44701274838E+02 -0.12493021651E+02  0.36210145890E+02  0.58868108747E+02  0.00000000000E+00 0. -1.
        -12    1    6    6    0    0 -0.93605885963E+02 -0.58137548735E+01  0.29274742080E+03  0.30740350359E+03  0.00000000000E+00 0.  1.
<mgrwt>
<rscale>  2 0.20612125E+03</rscale>
<asrwt>0</asrwt>
<pdfrwt beam="1">  1       21 0.98744056E-01 0.20628002E+03</pdfrwt>
<pdfrwt beam="2">  1       21 0.18438622E-01 0.20628002E+03</pdfrwt>
<totfact> 0.22527481E+04</totfact>
</mgrwt>
</event>
<event>
12    1  0.1074575E-001  0.3082034E+03  0.7546771E-02  0.1081245E+00
         21   -1    0    0  503  502  0.00000000000E+00  0.00000000000E+00  0.90946153126E+03  0.90946153126E+03  0.00000000000E+00 0.  1.
         21   -1    0    0  501  503 -0.00000000000E+00 -0.00000000000E+00 -0.11947987169E+03  0.11947987169E+03  0.00000000000E+00 0.  1.
          6    2    1    2  501    0  0.24033082378E+03 -0.84955739939E+02  0.21174060473E+03  0.37369180238E+03  0.17272839045E+03 0.  0.
         24    2    3    3    0    0  0.51321236735E+02 -0.59635551765E+02  0.46744092622E+02  0.12147825213E+03  0.79885462822E+02 0.  0.
         -6    2    1    2    0  502 -0.24033082378E+03  0.84955739939E+02  0.57824105484E+03  0.65524960056E+03  0.17324242821E+03 0.  0.
        -24    2    5    5    0    0 -0.47447533189E+02  0.39469033324E+02  0.13212856776E+03  0.16707806780E+03  0.81535570927E+02 0.  0.
          5    1    3    3  501    0  0.18900958705E+03 -0.25320188174E+02  0.16499651211E+03  0.25221355026E+03  0.47000000000E+01 0. -1.
        -13    1    4    4    0    0  0.63289078780E+02 -0.18654634694E+02  0.13449862602E+02  0.67337966203E+02  0.00000000000E+00 0.  1.
         14    1    4    4    0    0 -0.11967842045E+02 -0.40980917071E+02  0.33294230020E+02  0.54140285923E+02  0.00000000000E+00 0. -1.
         -5    1    5    5    0  502 -0.19288329059E+03  0.45486706614E+02  0.44611248708E+03  0.48817153276E+03  0.47000000000E+01 0.  1.
         13    1    6    6    0    0 -0.15562962751E+02  0.45861327811E+02  0.12462527746E+03  0.13370462588E+03  0.00000000000E+00 0. -1.
        -14    1    6    6    0    0 -0.31884570439E+02 -0.63922944870E+01  0.75032902945E+01  0.33373441928E+02  0.00000000000E+00 0.  1.
<mgrwt>
<rscale>  2 0.30813119E+03</rscale>
<asrwt>0</asrwt>
<pdfrwt beam="1">  1       21 0.13991715E+00 0.30820338E+03</pdfrwt>
<pdfrwt beam="2">  1       21 0.18381519E-01 0.30820338E+03</pdfrwt>
<totfact> 0.90233166E+03</totfact>
</mgrwt>
</event>
<event>
12    1  0.1074575E-001  0.2845219E+03  0.7546771E-02  0.1093267E+00
         21   -1    0    0  503  502  0.00000000000E+00  0.00000000000E+00  0.31069648287E+03  0.31069648287E+03  0.00000000000E+00 0.  1.
         21   -1    0    0  501  503 -0.00000000000E+00 -0.00000000000E+00 -0.30601277167E+03  0.30601277167E+03  0.00000000000E+00 0.  1.
          6    2    1    2  501    0 -0.11527654837E+03 -0.19411984422E+03 -0.11670414149E+03  0.30752657171E+03  0.17315178064E+03 0.  0.
         24    2    3    3    0    0  0.99171989496E+01 -0.43562451104E+02 -0.14939292167E+02  0.86802360194E+02  0.72906990773E+02 0.  0.
         -6    2    1    2    0  502  0.11527654837E+03  0.19411984422E+03  0.12138785268E+03  0.30918268283E+03  0.17288066421E+03 0.  0.
        -24    2    5    5    0    0  0.33747087274E+02  0.14382774563E+03  0.22013279727E+02  0.17107495691E+03  0.83407254391E+02 0.  0.
          5    1    3    3  501    0 -0.12519374732E+03 -0.15055739312E+03 -0.10176484932E+03  0.22072421151E+03  0.47000000000E+01 0. -1.
        -13    1    4    4    0    0 -0.84708498615E+01 -0.68168088999E+00 -0.34998891297E+02  0.36015862870E+02  0.00000000000E+00 0.  1.
         14    1    4    4    0    0  0.18388048811E+02 -0.42880770214E+02  0.20059599130E+02  0.50786497324E+02  0.00000000000E+00 0. -1.
         -5    1    5    5    0  502  0.81529461099E+02  0.50292098591E+02  0.99374572957E+02  0.13810772592E+03  0.47000000000E+01 0.  1.
         11    1    6    6    0    0 -0.14234351108E+02  0.64332548058E+01  0.20195962364E+02  0.25531948901E+02  0.00000000000E+00 0. -1.
        -12    1    6    6    0    0  0.47981438383E+02  0.13739449082E+03  0.18173173627E+01  0.14554300801E+03  0.00000000000E+00 0.  1.
<mgrwt>
<rscale>  2 0.28448071E+03</rscale>
<asrwt>0</asrwt>
<pdfrwt beam="1">  1       21 0.47799459E-01 0.28452194E+03</pdfrwt>
<pdfrwt beam="2">  1       21 0.47078888E-01 0.28452194E+03</pdfrwt>
<totfact> 0.17217524E+04</totfact>
</mgrwt>
</event>
<event>
12    1  0.1074575E-001  0.1869275E+03  0.7546771E-02  0.1162980E+00
         21   -1    0    0  503  502  0.00000000000E+00  0.00000000000E+00  0.19538008608E+04  0.19538008608E+04  0.00000000000E+00 0. -1.
         21   -1    0    0  501  503 -0.00000000000E+00 -0.00000000000E+00 -0.18533789809E+02  0.18533789809E+02  0.00000000000E+00 0. -1.
          6    2    1    2  501    0 -0.54647568164E+02 -0.40453421780E+02  0.72026347197E+03  0.74412456782E+03  0.17412371276E+03 0.  0.
         24    2    3    3    0    0  0.13943523156E+02 -0.67189511433E+02  0.31836253042E+03  0.33550981881E+03  0.80642950431E+02 0.  0.
         -6    2    1    2    0  502  0.54647568164E+02  0.40453421780E+02  0.12150035990E+04  0.12282100828E+04  0.16626312212E+03 0.  0.
        -24    2    5    5    0    0  0.84725543145E+02  0.46514764434E+02  0.11423578420E+04  0.11492105861E+04  0.79758956815E+02 0.  0.
          5    1    3    3  501    0 -0.68591091320E+02  0.26736089652E+02  0.40190094154E+03  0.40861474902E+03  0.47000000000E+01 0. -1.
        -11    1    4    4    0    0 -0.26639750090E+02 -0.58492745659E+02  0.18593336841E+03  0.19672898888E+03  0.00000000000E+00 0.  1.
         12    1    4    4    0    0  0.40583273247E+02 -0.86967657733E+01  0.13242916201E+03  0.13878082992E+03  0.00000000000E+00 0. -1.
         -5    1    5    5    0  502 -0.30077974981E+02 -0.60613426541E+01  0.72645757044E+02  0.78999496646E+02  0.47000000000E+01 0.  1.
         11    1    6    6    0    0  0.94959277617E+02  0.22871021202E+02  0.81293226985E+03  0.81877910536E+03  0.00000000000E+00 0. -1.
        -12    1    6    6    0    0 -0.10233734472E+02  0.23643743232E+02  0.32942557213E+03  0.33043148077E+03  0.00000000000E+00 0.  1.
<mgrwt>
<rscale>  2 0.18507533E+03</rscale>
<asrwt>0</asrwt>
<pdfrwt beam="1">  1       21 0.30058459E+00 0.18692754E+03</pdfrwt>
<pdfrwt beam="2">  1       21 0.28513538E-02 0.18692754E+03</pdfrwt>
<totfact> 0.23444368E+04</totfact>
</mgrwt>
</event>
<event>
12    1  0.1074575E-001  0.1823600E+03  0.7546771E-02  0.1165677E+00
         21   -1    0    0  503  502  0.00000000000E+00  0.00000000000E+00  0.91585799889E+02  0.91585799889E+02  0.00000000000E+00 0.  1.
         21   -1    0    0  501  503 -0.00000000000E+00 -0.00000000000E+00 -0.90675023707E+03  0.90675023707E+03  0.00000000000E+00 0.  1.
          6    2    1    2  501    0 -0.56321719338E+02  0.53679150874E+01 -0.79476252229E+03  0.81541562490E+03  0.17336154106E+03 0.  0.
         24    2    3    3    0    0 -0.42228252495E+02  0.68621465318E+02 -0.57506380187E+03  0.58631028848E+03  0.81050893543E+02 0.  0.
         -6    2    1    2    0  502  0.56321719338E+02 -0.53679150874E+01 -0.20401914889E+02  0.18292041205E+03  0.17275036449E+03 0.  0.
        -24    2    5    5    0    0  0.39534743592E+02 -0.69901077914E+02 -0.20149083384E+02  0.11607368002E+03  0.81350826600E+02 0.  0.
          5    1    3    3  501    0 -0.14093466843E+02 -0.63253550231E+02 -0.21969872042E+03  0.22910533643E+03  0.47000000000E+01 0. -1.
        -13    1    4    4    0    0  0.16446139725E+02 -0.47179864011E+01 -0.15121890301E+03  0.15218374268E+03  0.00000000000E+00 0.  1.
         14    1    4    4    0    0 -0.58674392219E+02  0.73339451719E+02 -0.42384489886E+03  0.43412654580E+03  0.00000000000E+00 0. -1.
         -5    1    5    5    0  502  0.16786975746E+02  0.64533162826E+02 -0.25283150429E+00  0.66846732028E+02  0.47000000000E+01 0.  1.
         11    1    6    6    0    0  0.15972366343E+02  0.58592450200E+00 -0.36614217255E+02  0.39950728395E+02  0.00000000000E+00 0. -1.
        -12    1    6    6    0    0  0.23562377249E+02 -0.70487002416E+02  0.16465133871E+02  0.76122951628E+02  0.00000000000E+00 0.  1.
<mgrwt>
<rscale>  2 0.18221461E+03</rscale>
<asrwt>0</asrwt>
<pdfrwt beam="1">  1       21 0.14090123E-01 0.18236001E+03</pdfrwt>
<pdfrwt beam="2">  1       21 0.13950004E+00 0.18236001E+03</pdfrwt>
<totfact> 0.15985591E+04</totfact>
</mgrwt>
</event>
<event>
12    1  0.1074575E-001  0.2128141E+03  0.7546771E-02  0.1139782E+00
         21   -1    0    0  503  502  0.00000000000E+00  0.00000000000E+00  0.11737839087E+04  0.11737839087E+04  0.00000000000E+00 0.  1.
         21   -1    0    0  501  503 -0.00000000000E+00 -0.00000000000E+00 -0.55852891458E+02  0.55852891458E+02  0.00000000000E+00 0. -1.
          6    2    1    2  501    0  0.12035353875E+03 -0.17642764581E+02  0.21127384722E+03  0.29833820490E+03  0.17196745201E+03 0.  0.
         24    2    3    3    0    0  0.13614102248E+03 -0.32989092545E+02  0.11216779419E+03  0.19670723436E+03  0.80557208039E+02 0.  0.
         -6    2    1    2    0  502 -0.12035353875E+03  0.17642764581E+02  0.90665716997E+03  0.93129859521E+03  0.17462419119E+03 0.  0.
        -24    2    5    5    0    0 -0.30982946704E+02  0.65713574430E+02  0.54252278491E+03  0.55325911862E+03  0.80538582877E+02 0.  0.
          5    1    3    3  501    0 -0.15787483735E+02  0.15346327965E+02  0.99106053029E+02  0.10163097053E+03  0.47000000000E+01 0. -1.
        -13    1    4    4    0    0  0.28550030051E+02 -0.17741267518E+02  0.74441467296E+02  0.81678570276E+02  0.00000000000E+00 0.  1.
         14    1    4    4    0    0  0.10759099243E+03 -0.15247825027E+02  0.37726326897E+02  0.11502866409E+03  0.00000000000E+00 0. -1.
         -5    1    5    5    0  502 -0.89370592044E+02 -0.48070809850E+02  0.36413438506E+03  0.37803947659E+03  0.47000000000E+01 0.  1.
         13    1    6    6    0    0  0.87580267012E+01 -0.59527199629E+01  0.22768849031E+03  0.22793461020E+03  0.00000000000E+00 0. -1.
        -14    1    6    6    0    0 -0.39740973406E+02  0.71666294393E+02  0.31483429460E+03  0.32532450842E+03  0.00000000000E+00 0.  1.
<mgrwt>
<rscale>  2 0.21226840E+03</rscale>
<asrwt>0</asrwt>
<pdfrwt beam="1">  1       21 0.18058212E+00 0.21281412E+03</pdfrwt>
<pdfrwt beam="2">  1       21 0.85927534E-02 0.21281412E+03</pdfrwt>
<totfact> 0.18827281E+04</totfact>
</mgrwt>
</event>
<event>
12    1  0.1074575E-001  0.1752918E+03  0.7546771E-02  0.1173379E+00
         21   -1    0    0  503  502  0.00000000000E+00  0.00000000000E+00  0.10781180664E+04  0.10781180664E+04  0.00000000000E+00 0.  1.
         21   -1    0    0  501  503 -0.00000000000E+00 -0.00000000000E+00 -0.67713177947E+02  0.67713177947E+02  0.00000000000E+00 0.  1.
          6    2    1    2  501    0 -0.26478548523E+02  0.14996665139E+02  0.63686050758E+02  0.18302088528E+03  0.16886301516E+03 0.  0.
         24    2    3    3    0    0 -0.81213197770E+02 -0.26753384133E+01  0.45733845335E+02  0.12258452853E+03  0.79577893269E+02 0.  0.
         -6    2    1    2    0  502  0.26478548523E+02 -0.14996665139E+02  0.94671883769E+03  0.96281035907E+03  0.17263028816E+03 0.  0.
        -24    2    5    5    0    0  0.42586015655E+02  0.52796253602E+00  0.25471766423E+03  0.27043172086E+03  0.80239514625E+02 0.  0.
          5    1    3    3  501    0  0.54734649247E+02  0.17672003552E+02  0.17952205424E+02  0.60436356751E+02  0.47000000000E+01 0. -1.
        -13    1    4    4    0    0  0.50614014490E+01 -0.70256048280E+01 -0.14768686571E+02  0.17119901018E+02  0.00000000000E+00 0.  1.
         14    1    4    4    0    0 -0.86274599219E+02  0.43502664147E+01  0.60502531906E+02  0.10546462751E+03  0.00000000000E+00 0. -1.
         -5    1    5    5    0  502 -0.16107467132E+02 -0.15524627675E+02  0.69200117347E+03  0.69237863821E+03  0.47000000000E+01 0.  1.
         13    1    6    6    0    0  0.66677480656E+02 -0.19107460682E+00  0.19141450049E+03  0.20269542159E+03  0.00000000000E+00 0. -1.
        -14    1    6    6    0    0 -0.24091465001E+02  0.71903714283E+00  0.63303163732E+02  0.67736299270E+02  0.00000000000E+00 0.  1.
<mgrwt>
<rscale>  2 0.17435719E+03</rscale>
<asrwt>0</asrwt>
<pdfrwt beam="1">  1       21 0.16586431E+00 0.17529184E+03</pdfrwt>
<pdfrwt beam="2">  1       21 0.10417413E-01 0.17529184E+03</pdfrwt>
<totfact> 0.17450428E+04</totfact>
</mgrwt>
</event>
<event>
12    1  0.1074575E-001  0.1833271E+03  0.7546771E-02  0.1166229E+00
         21   -1    0    0  503  502  0.00000000000E+00  0.00000000000E+00  0.63415204498E+02  0.63415204498E+02  0.00000000000E+00 0.  1.
         21   -1    0    0  501  503 -0.00000000000E+00 -0.00000000000E+00 -0.53119230528E+03  0.53119230528E+03  0.00000000000E+00 0. -1.
          6    2    1    2  501    0 -0.55076647972E+02  0.84336160025E+01 -0.17157551128E+03  0.24626254330E+03  0.16763806588E+03 0.  0.
         24    2    3    3    0    0  0.28229753882E+02  0.85530242354E+01 -0.50468174307E+02  0.99194368918E+02  0.80139958693E+02 0.  0.
         -6    2    1    2    0  502  0.55076647972E+02 -0.84336160025E+01 -0.29620158951E+03  0.34834496648E+03  0.17465471942E+03 0.  0.
        -24    2    5    5    0    0  0.62927927843E+02 -0.58821718905E+02 -0.13277100022E+03  0.17707835845E+03  0.79427248572E+02 0.  0.
          5    1    3    3  501    0 -0.83306401854E+02 -0.11940823286E+00 -0.12110733697E+03  0.14706817438E+03  0.47000000000E+01 0. -1.
        -13    1    4    4    0    0 -0.22457172374E+02  0.23536190709E+02 -0.18499212248E+02  0.37423224312E+02  0.00000000000E+00 0.  1.
         14    1    4    4    0    0  0.50686926256E+02 -0.14983166473E+02 -0.31968962059E+02  0.61771144606E+02  0.00000000000E+00 0. -1.
         -5    1    5    5    0  502 -0.78512798715E+01  0.50388102903E+02 -0.16343058929E+03  0.17126660803E+03  0.47000000000E+01 0.  1.
         11    1    6    6    0    0  0.56489916387E+01 -0.42611769157E+02 -0.10063241866E+03  0.10942832203E+03  0.00000000000E+00 0. -1.
        -12    1    6    6    0    0  0.57278936205E+02 -0.16209949748E+02 -0.32138581565E+02  0.67650036427E+02  0.00000000000E+00 0.  1.
<mgrwt>
<rscale>  2 0.18163590E+03</rscale>
<asrwt>0</asrwt>
<pdfrwt beam="1">  1       21 0.97561855E-02 0.18332712E+03</pdfrwt>
<pdfrwt beam="2">  1       21 0.81721892E-01 0.18332712E+03</pdfrwt>
<totfact> 0.11147870E+05</totfact>
</mgrwt>
</event>
<event>
12    1  0.1074575E-001  0.1932908E+03  0.7546771E-02  0.1156283E+00
         21   -1    0    0  503  502  0.00000000000E+00  0.00000000000E+00  0.21300538194E+03  0.21300538194E+03  0.00000000000E+00 0.  1.
         21   -1    0    0  501  503 -0.00000000000E+00 -0.00000000000E+00 -0.19959816364E+03  0.19959816364E+03  0.00000000000E+00 0.  1.
          6    2    1    2  501    0  0.67488226804E+02 -0.54101649493E+02 -0.69497344842E+02  0.20540495643E+03  0.17285735723E+03 0.  0.
         24    2    3    3    0    0 -0.23235188876E+02 -0.19793469072E+02 -0.11158327862E+01  0.86636650103E+02  0.81074093509E+02 0.  0.
         -6    2    1    2    0  502 -0.67488226804E+02  0.54101649493E+02  0.82904563141E+02  0.20719858915E+03  0.16904567289E+03 0.  0.
        -24    2    5    5    0    0 -0.67908705608E+02 -0.26954485469E+02  0.35888081606E+02  0.11337474701E+03  0.78916045738E+02 0.  0.
          5    1    3    3  501    0  0.90723415679E+02 -0.34308180421E+02 -0.68381512055E+02  0.11876830632E+03  0.47000000000E+01 0. -1.
        -13    1    4    4    0    0  0.11402892816E+02 -0.47527918877E+01 -0.34242779959E+02  0.36403062709E+02  0.00000000000E+00 0.  1.
         14    1    4    4    0    0 -0.34638081692E+02 -0.15040677185E+02  0.33126947173E+02  0.50233587394E+02  0.00000000000E+00 0. -1.
         -5    1    5    5    0  502  0.42047880453E+00  0.81056134962E+02  0.47016481534E+02  0.93823842136E+02  0.47000000000E+01 0.  1.
         13    1    6    6    0    0  0.11041346547E+02  0.12667359270E+02 -0.26281569015E+01  0.17008248974E+02  0.00000000000E+00 0. -1.
        -14    1    6    6    0    0 -0.78950052155E+02 -0.39621844739E+02  0.38516238508E+02  0.96366498041E+02  0.00000000000E+00 0.  1.
<mgrwt>
<rscale>  2 0.19243481E+03</rscale>
<asrwt>0</asrwt>
<pdfrwt beam="1">  1       21 0.32770059E-01 0.19329075E+03</pdfrwt>
<pdfrwt beam="2">  1       21 0.30707410E-01 0.19329075E+03</pdfrwt>
<totfact> 0.91249853E+04</totfact>
</mgrwt>
</event>
<event>
12    1  0.1074575E-001  0.1818242E+03  0.7546771E-02  0.1166627E+00
         21   -1    0    0  503  502  0.00000000000E+00  0.00000000000E+00  0.20365541402E+03  0.20365541402E+03  0.00000000000E+00 0. -1.
         21   -1    0    0  501  503 -0.00000000000E+00 -0.00000000000E+00 -0.16060573143E+03  0.16060573143E+03  0.00000000000E+00 0. -1.
          6    2    1    2  501    0  0.53545466237E+02  0.71853294379E+00  0.12166715076E+02  0.17983288909E+03  0.17124311898E+03 0.  0.
         24    2    3    3    0    0  0.89234176114E+02 -0.23500475676E+02  0.39472643540E+02  0.12856937262E+03  0.80355357284E+02 0.  0.
         -6    2    1    2    0  502 -0.53545466237E+02 -0.71853294379E+00  0.30882967514E+02  0.18442825636E+03  0.17375957762E+03 0.  0.
        -24    2    5    5    0    0 -0.10149527372E+03  0.31934583583E+01  0.40546880925E+01  0.12914413305E+03  0.79688630564E+02 0.  0.
          5    1    3    3  501    0 -0.35688709877E+02  0.24219008619E+02 -0.27305928464E+02  0.51263516466E+02  0.47000000000E+01 0. -1.
        -11    1    4    4    0    0  0.60253780278E+02  0.36055658768E+01  0.58944506061E+02  0.84368080089E+02  0.00000000000E+00 0.  1.
         12    1    4    4    0    0  0.28980395835E+02 -0.27106041552E+02 -0.19471862521E+02  0.44201292531E+02  0.00000000000E+00 0. -1.
         -5    1    5    5    0  502  0.47949807481E+02 -0.39119913021E+01  0.26828279421E+02  0.55284123310E+02  0.47000000000E+01 0.  1.
         13    1    6    6    0    0 -0.44775331725E+00  0.12463224968E+02 -0.21182417796E+02  0.24581035034E+02  0.00000000000E+00 0. -1.
        -14    1    6    6    0    0 -0.10104752040E+03 -0.92697666097E+01  0.25237105889E+02  0.10456309801E+03  0.00000000000E+00 0.  1.
<mgrwt>
<rscale>  2 0.18122033E+03</rscale>
<asrwt>0</asrwt>
<pdfrwt beam="1">  1       21 0.31331602E-01 0.18182416E+03</pdfrwt>
<pdfrwt beam="2">  1       21 0.24708574E-01 0.18182416E+03</pdfrwt>
<totfact> 0.15215320E+05</totfact>
</mgrwt>
</event>
<event>
12    1  0.1074575E-001  0.2867593E+03  0.7546771E-02  0.1092290E+00
         21   -1    0    0  501  502  0.00000000000E+00  0.00000000000E+00  0.10954614089E+04  0.10954614089E+04  0.00000000000E+00 0. -1.
         21   -1    0    0  502  503 -0.00000000000E+00 -0.00000000000E+00 -0.92539610929E+02  0.92539610929E+02  0.00000000000E+00 0.  1.
         -6    2    1    2    0  503  0.19987451124E+03  0.11020337535E+03  0.23865952604E+03  0.37171201942E+03  0.17063660752E+03 0.  0.
        -24    2    3    3    0    0  0.64447885591E+02  0.25940927419E+02  0.16371521263E+03  0.19541887951E+03  0.80990159576E+02 0.  0.
          6    2    1    2  501    0 -0.19987451124E+03 -0.11020337535E+03  0.76426227194E+03  0.81628900042E+03  0.17359812129E+03 0.  0.
         24    2    5    5    0    0 -0.17514503318E+03 -0.10719798974E+03  0.44738091228E+03  0.49839520443E+03  0.77980173619E+02 0.  0.
          5    1    5    5  501    0 -0.24729478061E+02 -0.30053856103E+01  0.31688135966E+03  0.31789379599E+03  0.47000000000E+01 0. -1.
        -13    1    6    6    0    0  0.64841009881E+01 -0.16149774166E+01  0.40739252363E+01  0.78261474885E+01  0.00000000000E+00 0.  1.
         14    1    6    6    0    0 -0.18162913417E+03 -0.10558301233E+03  0.44330698704E+03  0.49056905694E+03  0.00000000000E+00 0. -1.
         -5    1    3    3    0  503  0.13542662565E+03  0.84262447936E+02  0.74944313409E+02  0.17629313991E+03  0.47000000000E+01 0.  1.
         13    1    4    4    0    0 -0.85304632312E+01 -0.16525349594E+02  0.13089179729E+02  0.22741649195E+02  0.00000000000E+00 0. -1.
        -14    1    4    4    0    0  0.72978348822E+02  0.42466277013E+02  0.15062603291E+03  0.17267723031E+03  0.00000000000E+00 0.  1.
<mgrwt>
<rscale>  2 0.28631251E+03</rscale>
<asrwt>0</asrwt>
<pdfrwt beam="1">  1       21 0.16853252E+00 0.28675933E+03</pdfrwt>
<pdfrwt beam="2">  1       21 0.14236864E-01 0.28675933E+03</pdfrwt>
<totfact> 0.88511596E+03</totfact>
</mgrwt>
</event>
<event>
12    1  0.1074575E-001  0.1799496E+03  0.7546771E-02  0.1167880E+00
         21   -1    0    0  503  502  0.00000000000E+00  0.00000000000E+00  0.52127833653E+02  0.52127833653E+02  0.00000000000E+00 0. -1.
         21   -1    0    0  501  503 -0.00000000000E+00 -0.00000000000E+00 -0.13420700515E+04  0.13420700515E+04  0.00000000000E+00 0. -1.
          6    2    1    2  501    0  0.39395468506E+02  0.29199601199E+02 -0.11559165505E+04  0.11698215143E+04  0.17301642643E+03 0.  0.
         24    2    3    3    0    0  0.41003406244E+02  0.84243153616E+02 -0.77420880249E+03  0.78413346281E+03  0.81779150100E+02 0.  0.
         -6    2    1    2    0  502 -0.39395468506E+02 -0.29199601199E+02 -0.13402566731E+03  0.22437637087E+03  0.17313941394E+03 0.  0.
        -24    2    5    5    0    0 -0.46239583939E+01 -0.44170010022E+02 -0.15395761505E+03  0.18133518598E+03  0.84894827077E+02 0.  0.
          5    1    3    3  501    0 -0.16079377381E+01 -0.55043552417E+02 -0.38170774802E+03  0.38568805145E+03  0.47000000000E+01 0. -1.
        -11    1    4    4    0    0  0.34459942256E+02  0.74043189921E+02 -0.33692940789E+03  0.34668618014E+03  0.00000000000E+00 0.  1.
         12    1    4    4    0    0  0.65434639878E+01  0.10199963695E+02 -0.43727939459E+03  0.43744728267E+03  0.00000000000E+00 0. -1.
         -5    1    5    5    0  502 -0.34771510112E+02  0.14970408823E+02  0.19931947749E+02  0.43041184891E+02  0.47000000000E+01 0.  1.
         11    1    6    6    0    0  0.30396189429E+02 -0.63422485898E+01 -0.10765627853E+03  0.11204475336E+03  0.00000000000E+00 0. -1.
        -12    1    6    6    0    0 -0.35020147823E+02 -0.37827761433E+02 -0.46301336526E+02  0.69290432620E+02  0.00000000000E+00 0.  1.
<mgrwt>
<rscale>  2 0.17992006E+03</rscale>
<asrwt>0</asrwt>
<pdfrwt beam="1">  1       21 0.80196679E-02 0.17994965E+03</pdfrwt>
<pdfrwt beam="2">  1       21 0.20647229E+00 0.17994965E+03</pdfrwt>
<totfact> 0.14745755E+04</totfact>
</mgrwt>
</event>
<event>
12    1  0.1074575E-001  0.1986568E+03  0.7546771E-02  0.1151130E+00
         21   -1    0    0  501  502  0.00000000000E+00  0.00000000000E+00  0.88422697403E+03  0.88422697403E+03  0.00000000000E+00 0.  1.
         21   -1    0    0  502  503 -0.00000000000E+00 -0.00000000000E+00 -0.54326975750E+02  0.54326975750E+02  0.00000000000E+00 0. -1.
         -6    2    1    2    0  503  0.56062641191E+02  0.75148037989E+02  0.21299939188E+03  0.29045606008E+03  0.17379797049E+03 0.  0.
        -24    2    3    3    0    0 -0.34158584840E+02  0.68136837380E+02  0.12248351707E+03  0.16237702139E+03  0.74529508217E+02 0.  0.
          6    2    1    2  501    0 -0.56062641191E+02 -0.75148037989E+02  0.61690060640E+03  0.64809788969E+03  0.17514071228E+03 0.  0.
         24    2    5    5    0    0 -0.69097036772E+02  0.73620688638E+01  0.24772000105E+03  0.26955565616E+03  0.80414254333E+02 0.  0.
          5    1    5    5  501    0  0.13034395581E+02 -0.82510106853E+02  0.36918060535E+03  0.37854223354E+03  0.47000000000E+01 0. -1.
        -11    1    6    6    0    0 -0.19838143046E+02  0.41356813324E+02  0.93965682028E+02  0.10456331731E+03  0.00000000000E+00 0.  1.
         12    1    6    6    0    0 -0.49258893726E+02 -0.33994744460E+02  0.15375431902E+03  0.16499233885E+03  0.00000000000E+00 0. -1.
         -5    1    3    3    0  503  0.90221226030E+02  0.70112006085E+01  0.90515874811E+02  0.12807903870E+03  0.47000000000E+01 0.  1.
         13    1    4    4    0    0 -0.26769275481E+01  0.18733279094E+01 -0.10228620210E+02  0.10737782357E+02  0.00000000000E+00 0. -1.
        -14    1    4    4    0    0 -0.31481657291E+02  0.66263509471E+02  0.13271213728E+03  0.15163923903E+03  0.00000000000E+00 0.  1.
<mgrwt>
<rscale>  2 0.19836042E+03</rscale>
<asrwt>0</asrwt>
<pdfrwt beam="1">  1       21 0.13603491E+00 0.19865678E+03</pdfrwt>
<pdfrwt beam="2">  1       21 0.83579969E-02 0.19865678E+03</pdfrwt>
<totfact> 0.42690598E+04</totfact>
</mgrwt>
</event>
<event>
12    1  0.1074575E-001  0.2346096E+03  0.7546771E-02  0.1123694E+00
         21   -1    0    0  503  502  0.00000000000E+00  0.00000000000E+00  0.37183121792E+02  0.37183121792E+02  0.00000000000E+00 0. -1.
         21   -1    0    0  501  503 -0.00000000000E+00 -0.00000000000E+00 -0.16890211853E+04  0.16890211853E+04  0.00000000000E+00 0.  1.
          6    2    1    2  501    0  0.15138194956E+03 -0.40038180925E+02 -0.11338002790E+04  0.11575174037E+04  0.17269602362E+03 0.  0.
         24    2    3    3    0    0  0.37658739351E+02  0.13077139400E+01 -0.28784039288E+03  0.30293407217E+03  0.86585619738E+02 0.  0.
         -6    2    1    2    0  502 -0.15138194956E+03  0.40038180925E+02 -0.51803778456E+03  0.56868690346E+03  0.17470574506E+03 0.  0.
        -24    2    5    5    0    0 -0.12612966505E+03  0.34977030010E+02 -0.21115320601E+03  0.26068767023E+03  0.78995569285E+02 0.  0.
          5    1    3    3  501    0  0.11372321021E+03 -0.41345894865E+02 -0.84595988610E+03  0.85458333148E+03  0.47000000000E+01 0. -1.
        -13    1    4    4    0    0 -0.72719596475E+01  0.35411321580E+02 -0.84348596453E+02  0.91768888065E+02  0.00000000000E+00 0.  1.
         14    1    4    4    0    0  0.44930698998E+02 -0.34103607640E+02 -0.20349179642E+03  0.21116518410E+03  0.00000000000E+00 0. -1.
         -5    1    5    5    0  502 -0.25252284505E+02  0.50611509149E+01 -0.30688457855E+03  0.30799923323E+03  0.47000000000E+01 0.  1.
         13    1    6    6    0    0 -0.11906953581E+03  0.71677132871E+01 -0.19251097918E+03  0.22647164850E+03  0.00000000000E+00 0. -1.
        -14    1    6    6    0    0 -0.70601292428E+01  0.27809316723E+02 -0.18642226832E+02  0.34216021726E+02  0.00000000000E+00 0.  1.
<mgrwt>
<rscale>  2 0.23423549E+03</rscale>
<asrwt>0</asrwt>
<pdfrwt beam="1">  1       21 0.57204797E-02 0.23460956E+03</pdfrwt>
<pdfrwt beam="2">  1       21 0.25984944E+00 0.23460956E+03</pdfrwt>
<totfact> 0.12001102E+04</totfact>
</mgrwt>
</event>
<event>
12    1  0.1074575E-001  0.1786357E+03  0.7546771E-02  0.1169173E+00
         21   -1    0    0  503  502  0.00000000000E+00  0.00000000000E+00  0.36061470537E+02  0.36061470537E+02  0.00000000000E+00 0. -1.
         21   -1    0    0  501  503 -0.00000000000E+00 -0.00000000000E+00 -0.90596485219E+03  0.90596485219E+03  0.00000000000E+00 0. -1.
          6    2    1    2  501    0 -0.39526938788E+02  0.21086659140E+02 -0.50805186589E+03  0.53848296790E+03  0.17274311042E+03 0.  0.
         24    2    3    3    0    0 -0.22475675211E+02 -0.20942624527E+02 -0.11972820694E+03  0.14749120279E+03  0.80467769119E+02 0.  0.
         -6    2    1    2    0  502  0.39526938788E+02 -0.21086659140E+02 -0.36185151576E+03  0.40354335482E+03  0.17292684489E+03 0.  0.
        -24    2    5    5    0    0  0.10710846429E+02  0.84424140586E+01 -0.35171816066E+03  0.36079866827E+03  0.79271797648E+02 0.  0.
          5    1    3    3  501    0 -0.17051263577E+02  0.42029283668E+02 -0.38832365896E+03  0.39099176510E+03  0.47000000000E+01 0. -1.
        -11    1    4    4    0    0 -0.42376150197E+02 -0.40037963341E+02 -0.86432725163E+02  0.10425637915E+03  0.00000000000E+00 0.  1.
         12    1    4    4    0    0  0.19900474987E+02  0.19095338814E+02 -0.33295481774E+02  0.43234823646E+02  0.00000000000E+00 0. -1.
         -5    1    5    5    0  502  0.28816092359E+02 -0.29529073199E+02 -0.10133355094E+02  0.42744686550E+02  0.47000000000E+01 0.  1.
         13    1    6    6    0    0 -0.21836713269E+02 -0.24733483837E+02 -0.11924331506E+03  0.12372370611E+03  0.00000000000E+00 0. -1.
        -14    1    6    6    0    0  0.32547559698E+02  0.33175897895E+02 -0.23247484560E+03  0.23707496216E+03  0.00000000000E+00 0.  1.
<mgrwt>
<rscale>  2 0.17859124E+03</rscale>
<asrwt>0</asrwt>
<pdfrwt beam="1">  1       21 0.55479192E-02 0.17863572E+03</pdfrwt>
<pdfrwt beam="2">  1       21 0.13937919E+00 0.17863572E+03</pdfrwt>
<totfact> 0.82145340E+04</totfact>
</mgrwt>
</event>
<event>
12    1  0.1074575E-001  0.3161680E+03  0.7546771E-02  0.1077433E+00
         21   -1    0    0  503  502  0.00000000000E+00  0.00000000000E+00  0.17467851110E+04  0.17467851110E+04  0.00000000000E+00 0. -1.
         21   -1    0    0  501  503 -0.00000000000E+00 -0.00000000000E+00 -0.90863358367E+02  0.90863358367E+02  0.00000000000E+00 0. -1.
          6    2    1    2  501    0  0.11663008461E+03 -0.23752625432E+03  0.13871301660E+04  0.14227059730E+04  0.17303436094E+03 0.  0.
         24    2    3    3    0    0  0.51451045330E+02 -0.79565168922E+02  0.34919318269E+03  0.37078616476E+03  0.81047362488E+02 0.  0.
         -6    2    1    2    0  502 -0.11663008461E+03  0.23752625432E+03  0.26879158667E+03  0.41494249640E+03  0.17293657833E+03 0.  0.
        -24    2    5    5    0    0 -0.98635220648E+02  0.67442794808E+02  0.10511989347E+03  0.17816683995E+03  0.80098648755E+02 0.  0.
          5    1    3    3  501    0  0.65179039284E+02 -0.15796108540E+03  0.10379369833E+04  0.10519198082E+04  0.47000000000E+01 0. -1.
        -11    1    4    4    0    0 -0.73958379468E+01 -0.37201868799E+01 -0.36422404149E+00  0.82867887936E+01  0.00000000000E+00 0.  1.
         12    1    4    4    0    0  0.58846883276E+02 -0.75844982042E+02  0.34955740673E+03  0.36249937596E+03  0.00000000000E+00 0. -1.
         -5    1    5    5    0  502 -0.17994863965E+02  0.17008345951E+03  0.16367169320E+03  0.23677565644E+03  0.47000000000E+01 0.  1.
         13    1    6    6    0    0 -0.99879887759E+02  0.73368889960E+02  0.11334937193E+03  0.16794959396E+03  0.00000000000E+00 0. -1.
        -14    1    6    6    0    0  0.12446671108E+01 -0.59260951522E+01 -0.82294784639E+01  0.10217245997E+02  0.00000000000E+00 0.  1.
<mgrwt>
<rscale>  2 0.31615460E+03</rscale>
<asrwt>0</asrwt>
<pdfrwt beam="1">  1       21 0.26873614E+00 0.31616797E+03</pdfrwt>
<pdfrwt beam="2">  1       21 0.13978980E-01 0.31616797E+03</pdfrwt>
<totfact> 0.20584304E+03</totfact>
</mgrwt>
</event>
<event>
12    1  0.1074575E-001  0.1759324E+03  0.7546771E-02  0.1171940E+00
         21   -1    0    0  503  502  0.00000000000E+00  0.00000000000E+00  0.12755941466E+04  0.12755941466E+04  0.00000000000E+00 0. -1.
         21   -1    0    0  501  503 -0.00000000000E+00 -0.00000000000E+00 -0.33625865184E+02  0.33625865184E+02  0.00000000000E+00 0. -1.
          6    2    1    2  501    0  0.28513843449E+02  0.13164943500E+02  0.27487983593E+03  0.32636042245E+03  0.17310645895E+03 0.  0.
         24    2    3    3    0    0 -0.36984608365E+02 -0.24043553980E+02  0.19081513989E+03  0.21338483837E+03  0.84715511532E+02 0.  0.
         -6    2    1    2    0  502 -0.28513843449E+02 -0.13164943500E+02  0.96708844545E+03  0.98285958930E+03  0.17252986977E+03 0.  0.
        -24    2    5    5    0    0  0.80758657859E+01 -0.29043353872E+02  0.23872073752E+03  0.25338543713E+03  0.79421994532E+02 0.  0.
          5    1    3    3  501    0  0.65498451814E+02  0.37208497480E+02  0.84064696047E+02  0.11297558407E+03  0.47000000000E+01 0. -1.
        -13    1    4    4    0    0 -0.43109840331E+02  0.14360477818E+02  0.51203054265E+02  0.68457537369E+02  0.00000000000E+00 0.  1.
         14    1    4    4    0    0  0.61252319658E+01 -0.38404031799E+02  0.13961208562E+03  0.14492730101E+03  0.00000000000E+00 0. -1.
         -5    1    5    5    0  502 -0.36589709235E+02  0.15878410372E+02  0.72836770793E+03  0.72947415217E+03  0.47000000000E+01 0.  1.
         11    1    6    6    0    0 -0.49798253161E+00 -0.56198090356E+02  0.14857678192E+03  0.15885066406E+03  0.00000000000E+00 0. -1.
        -12    1    6    6    0    0  0.85738483175E+01  0.27154736484E+02  0.90143955597E+02  0.94534773069E+02  0.00000000000E+00 0.  1.
<mgrwt>
<rscale>  2 0.17579038E+03</rscale>
<asrwt>0</asrwt>
<pdfrwt beam="1">  1       21 0.19624522E+00 0.17593238E+03</pdfrwt>
<pdfrwt beam="2">  1       21 0.51732110E-02 0.17593238E+03</pdfrwt>
<totfact> 0.36466314E+04</totfact>
</mgrwt>
</event>
<event>
12    1  0.1074575E-001  0.1885441E+03  0.7546771E-02  0.1160016E+00
         21   -1    0    0  503  502  0.00000000000E+00  0.00000000000E+00  0.14268490643E+03  0.14268490643E+03  0.00000000000E+00 0. -1.
         21   -1    0    0  501  503 -0.00000000000E+00 -0.00000000000E+00 -0.35418282382E+03  0.35418282382E+03  0.00000000000E+00 0. -1.
          6    2    1    2  501    0  0.39987596336E+02  0.61164530114E+02 -0.24170940404E+03  0.30591853904E+03  0.17269223758E+03 0.  0.
         24    2    3    3    0    0 -0.30029377185E+02 -0.71355182845E+01 -0.12694261583E+03  0.15505178038E+03  0.83510165664E+02 0.  0.
         -6    2    1    2    0  502 -0.39987596336E+02 -0.61164530114E+02  0.30211486652E+02  0.19094919122E+03  0.17380665148E+03 0.  0.
        -24    2    5    5    0    0 -0.91438938741E+02 -0.62731690446E+02  0.27170198803E+02  0.13917046916E+03  0.79585521785E+02 0.  0.
          5    1    3    3  501    0  0.70016973521E+02  0.68300048399E+02 -0.11476678821E+03  0.15086675866E+03  0.47000000000E+01 0. -1.
        -11    1    4    4    0    0 -0.57062067712E+02 -0.14366710312E+02 -0.68840236120E+02  0.90561912776E+02  0.00000000000E+00 0.  1.
         12    1    4    4    0    0  0.27032690527E+02  0.72311920276E+01 -0.58102379708E+02  0.64489867599E+02  0.00000000000E+00 0. -1.
         -5    1    5    5    0  502  0.51451342405E+02  0.15671603324E+01  0.30412878494E+01  0.51778722064E+02  0.47000000000E+01 0.  1.
         13    1    6    6    0    0 -0.55909344557E+02 -0.64576141881E+02 -0.11999822714E+02  0.86255021037E+02  0.00000000000E+00 0. -1.
        -14    1    6    6    0    0 -0.35529594184E+02  0.18444514342E+01  0.39170021517E+02  0.52915448119E+02  0.00000000000E+00 0.  1.
<mgrwt>
<rscale>  2 0.18828682E+03</rscale>
<asrwt>0</asrwt>
<pdfrwt beam="1">  1       21 0.21951525E-01 0.18854405E+03</pdfrwt>
<pdfrwt beam="2">  1       21 0.54489664E-01 0.18854405E+03</pdfrwt>
<totfact> 0.61776923E+04</totfact>
</mgrwt>
</event>
<event>
12    1  0.1074575E-001  0.1978570E+03  0.7546771E-02  0.1151729E+00
         21   -1    0    0  503  502  0.00000000000E+00  0.00000000000E+00  0.75087541299E+03  0.75087541299E+03  0.00000000000E+00 0.  1.
         21   -1    0    0  501  503 -0.00000000000E+00 -0.00000000000E+00 -0.11756808054E+03  0.11756808054E+03  0.00000000000E+00 0.  1.
          6    2    1    2  501    0 -0.27304939159E+02  0.92279201912E+02 -0.75194484008E+01  0.19799987705E+03  0.17287683014E+03 0.  0.
         24    2    3    3    0    0 -0.53271116673E+01  0.76280028755E+02 -0.69502427468E+02  0.13015462565E+03  0.79136706080E+02 0.  0.
         -6    2    1    2    0  502  0.27304939159E+02 -0.92279201912E+02  0.64082678085E+03  0.67044361647E+03  0.17197287289E+03 0.  0.
        -24    2    5    5    0    0  0.52875919823E+02 -0.21423673770E+02  0.19830333286E+03  0.22152995781E+03  0.80600705251E+02 0.  0.
          5    1    3    3  501    0 -0.21977827492E+02  0.15999173157E+02  0.61982979067E+02  0.67845251396E+02  0.47000000000E+01 0. -1.
        -11    1    4    4    0    0  0.17454808559E+01 -0.94844988252E+01 -0.36885033272E+02  0.38124901323E+02  0.00000000000E+00 0.  1.
         12    1    4    4    0    0 -0.70725925232E+01  0.85764527580E+02 -0.32617394196E+02  0.92029724330E+02  0.00000000000E+00 0. -1.
         -5    1    5    5    0  502 -0.25570980663E+02 -0.70855528142E+02  0.44252344799E+03  0.44891365867E+03  0.47000000000E+01 0.  1.
         13    1    6    6    0    0 -0.87041310600E+01 -0.34480028479E+02  0.79104159717E+02  0.86730054456E+02  0.00000000000E+00 0. -1.
        -14    1    6    6    0    0  0.61580050883E+02  0.13056354709E+02  0.11919917315E+03  0.13479990335E+03  0.00000000000E+00 0.  1.
<mgrwt>
<rscale>  2 0.19765941E+03</rscale>
<asrwt>0</asrwt>
<pdfrwt beam="1">  1       21 0.11551929E+00 0.19785704E+03</pdfrwt>
<pdfrwt beam="2">  1       21 0.18087397E-01 0.19785704E+03</pdfrwt>
<totfact> 0.16079198E+04</totfact>
</mgrwt>
</event>
<event>
12    1  0.1074575E-001  0.2333138E+03  0.7546771E-02  0.1124683E+00
         21   -1    0    0  501  502  0.00000000000E+00  0.00000000000E+00  0.23855528942E+03  0.23855528942E+03  0.00000000000E+00 0. -1.
         21   -1    0    0  502  503 -0.00000000000E+00 -0.00000000000E+00 -0.35345510265E+03  0.35345510265E+03  0.00000000000E+00 0.  1.
         -6    2    1    2    0  503  0.76432883515E+02 -0.13711078924E+03 -0.23490152915E+03  0.32964477031E+03  0.16983990104E+03 0.  0.
        -24    2    3    3    0    0  0.11640084602E+03 -0.91557274390E+02 -0.14662449712E+03  0.22246508415E+03  0.77846509623E+02 0.  0.
          6    2    1    2  501    0 -0.76432883515E+02  0.13711078924E+03  0.12000171592E+03  0.26236562177E+03  0.17260925078E+03 0.  0.
         24    2    5    5    0    0 -0.47022548769E+02  0.47091521805E+00  0.64407739070E+02  0.11187242184E+03  0.78458524474E+02 0.  0.
          5    1    5    5  501    0 -0.29410334745E+02  0.13663987402E+03  0.55593976852E+02  0.15049319993E+03  0.47000000000E+01 0. -1.
        -11    1    6    6    0    0 -0.41906979240E+02  0.10420509429E+01 -0.50510711060E+01  0.42223146478E+02  0.00000000000E+00 0.  1.
         12    1    6    6    0    0 -0.51155695296E+01 -0.57113572482E+00  0.69458810176E+02  0.69649275363E+02  0.00000000000E+00 0. -1.
         -5    1    3    3    0  503 -0.39967962504E+02 -0.45553514846E+02 -0.88277032033E+02  0.10717968616E+03  0.47000000000E+01 0.  1.
         13    1    4    4    0    0 -0.72124754155E+01 -0.24609751994E+02 -0.32467122593E+02  0.41373587520E+02  0.00000000000E+00 0. -1.
        -14    1    4    4    0    0  0.12361332143E+03 -0.66947522396E+02 -0.11415737453E+03  0.18109149663E+03  0.00000000000E+00 0.  1.
<mgrwt>
<rscale>  2 0.23280174E+03</rscale>
<asrwt>0</asrwt>
<pdfrwt beam="1">  1       21 0.36700814E-01 0.23331375E+03</pdfrwt>
<pdfrwt beam="2">  1       21 0.54377708E-01 0.23331375E+03</pdfrwt>
<totfact> 0.22367928E+04</totfact>
</mgrwt>
</event>
<event>
12    1  0.1074575E-001  0.2001551E+03  0.7546771E-02  0.1151132E+00
         21   -1    0    0  503  502  0.00000000000E+00  0.00000000000E+00  0.28839826029E+03  0.28839826029E+03  0.00000000000E+00 0.  1.
         21   -1    0    0  501  503 -0.00000000000E+00 -0.00000000000E+00 -0.83454555714E+03  0.83454555714E+03  0.00000000000E+00 0. -1.
          6    2    1    2  501    0 -0.60033189581E+02  0.84537787666E+02 -0.78826344946E+03  0.81327813303E+03  0.17120582500E+03 0.  0.
         24    2    3    3    0    0 -0.87569468186E+02  0.67046119394E+02 -0.75212509686E+03  0.76436723826E+03  0.80009497677E+02 0.  0.
         -6    2    1    2    0  502  0.60033189581E+02 -0.84537787666E+02  0.24211615261E+03  0.30966568439E+03  0.16285571326E+03 0.  0.
        -24    2    5    5    0    0  0.67011912284E+02 -0.11663603098E+03  0.21645765953E+03  0.26771990914E+03  0.82008970671E+02 0.  0.
          5    1    3    3  501    0  0.27536278605E+02  0.17491668272E+02 -0.36138352602E+02  0.48910894770E+02  0.47000000000E+01 0. -1.
        -11    1    4    4    0    0 -0.42917522812E+02 -0.80265002545E+01 -0.35959353762E+03  0.36223452454E+03  0.00000000000E+00 0.  1.
         12    1    4    4    0    0 -0.44651945373E+02  0.75072619648E+02 -0.39253155924E+03  0.40213271372E+03  0.00000000000E+00 0. -1.
         -5    1    5    5    0  502 -0.69787227028E+01  0.32098243313E+02  0.25658493083E+02  0.41945775253E+02  0.47000000000E+01 0.  1.
         13    1    6    6    0    0 -0.50146356859E+01 -0.36868903286E+02  0.16485580752E+02  0.40696891445E+02  0.00000000000E+00 0. -1.
        -14    1    6    6    0    0  0.72026547970E+02 -0.79767127693E+02  0.19997207878E+03  0.22702301770E+03  0.00000000000E+00 0.  1.
<mgrwt>
<rscale>  2 0.19835752E+03</rscale>
<asrwt>0</asrwt>
<pdfrwt beam="1">  1       21 0.44368964E-01 0.20015508E+03</pdfrwt>
<pdfrwt beam="2">  1       21 0.12839162E+00 0.20015508E+03</pdfrwt>
<totfact> 0.21607411E+03</totfact>
</mgrwt>
</event>
<event>
12    1  0.1074575E-001  0.2329021E+03  0.7546771E-02  0.1124770E+00
         21   -1    0    0  503  502  0.00000000000E+00  0.00000000000E+00  0.30358430200E+03  0.30358430200E+03  0.00000000000E+00 0. -1.
         21   -1    0    0  501  503 -0.00000000000E+00 -0.00000000000E+00 -0.19789988262E+03  0.19789988262E+03  0.00000000000E+00 0. -1.
          6    2    1    2  501    0  0.14557667885E+03 -0.54051235813E+02  0.13247040237E+03  0.26793994112E+03  0.17357793357E+03 0.  0.
         24    2    3    3    0    0  0.11079126989E+03  0.13027880539E+02  0.13432352526E+03  0.19220912446E+03  0.80356125677E+02 0.  0.
         -6    2    1    2    0  502 -0.14557667885E+03  0.54051235813E+02 -0.26785982991E+02  0.23354424350E+03  0.17236971679E+03 0.  0.
        -24    2    5    5    0    0 -0.12251460836E+03  0.61590865532E+02 -0.78583347756E+02  0.17615293659E+03  0.77789784330E+02 0.  0.
          5    1    3    3  501    0  0.34785408960E+02 -0.67079116352E+02 -0.18531228837E+01  0.75730816657E+02  0.47000000000E+01 0. -1.
        -11    1    4    4    0    0  0.97634558679E+02  0.33232581027E+01  0.14339686514E+03  0.17351141757E+03  0.00000000000E+00 0.  1.
         12    1    4    4    0    0  0.13156711210E+02  0.97046224367E+01 -0.90733398853E+01  0.18697706896E+02  0.00000000000E+00 0. -1.
         -5    1    5    5    0  502 -0.23062070485E+02 -0.75396297189E+01  0.51797364765E+02  0.57391306902E+02  0.47000000000E+01 0.  1.
         11    1    6    6    0    0 -0.79673430398E+02  0.63153994110E+02 -0.85360948197E+02  0.13275079646E+03  0.00000000000E+00 0. -1.
        -12    1    6    6    0    0 -0.42841177967E+02 -0.15631285780E+01  0.67776004403E+01  0.43402140134E+02  0.00000000000E+00 0.  1.
<mgrwt>
<rscale>  2 0.23267704E+03</rscale>
<asrwt>0</asrwt>
<pdfrwt beam="1">  1       21 0.46705277E-01 0.23290214E+03</pdfrwt>
<pdfrwt beam="2">  1       21 0.30446136E-01 0.23290214E+03</pdfrwt>
<totfact> 0.44586261E+04</totfact>
</mgrwt>
</event>
<event>
11    1  0.1074575E-001  0.1740712E+03  0.7546771E-02  0.1179485E+00
         21   -1    0    0  501  502  0.00000000000E+00  0.00000000000E+00  0.49226651852E+02  0.49226651852E+02  0.00000000000E+00 0. -1.
         21   -1    0    0  502  503 -0.00000000000E+00 -0.00000000000E+00 -0.63001004695E+03  0.63001004695E+03  0.00000000000E+00 0. -1.
         -6    2    1    2    0  503 -0.11753959312E+02  0.16306754323E+02 -0.18009994392E+03  0.25047308647E+03  0.17290665531E+03 0.  0.
          6    2    1    2  501    0  0.11753959312E+02 -0.16306754323E+02 -0.40068345118E+03  0.42876361234E+03  0.15128430657E+03 0.  0.
         24    2    4    4    0    0  0.52999575910E+01  0.28962369406E+02 -0.35179569785E+03  0.36165884255E+03  0.78549328329E+02 0.  0.
          5    1    4    4  501    0  0.64540017207E+01 -0.45269123729E+02 -0.48887753336E+02  0.67104769783E+02  0.47000000000E+01 0. -1.
        -11    1    5    5    0    0  0.38931917809E+02  0.22446745751E+02 -0.25617332091E+03  0.26008521866E+03  0.00000000000E+00 0.  1.
         12    1    5    5    0    0 -0.33631960218E+02  0.65156236552E+01 -0.95622376934E+02  0.10157362389E+03  0.00000000000E+00 0. -1.
         -5    1    3    3    0  503  0.37551269825E+02  0.22113805115E+02  0.14691775436E+02  0.46228308509E+02  0.47000000000E+01 0.  1.
         11    1    3    3    0    0 -0.15398649614E+02  0.12399570060E+02 -0.10005016050E+03  0.10198481437E+03  0.00000000000E+00 0. -1.
        -12    1    3    3    0    0 -0.33906579522E+02 -0.18206620852E+02 -0.94741558857E+02  0.10225996358E+03  0.00000000000E+00 0.  1.
<mgrwt>
<rscale>  2 0.16843940E+03</rscale>
<asrwt>0</asrwt>
<pdfrwt beam="1">  1       21 0.75733316E-02 0.17407118E+03</pdfrwt>
<pdfrwt beam="2">  1       21 0.96924616E-01 0.17407118E+03</pdfrwt>
<totfact> 0.11750605E+05</totfact>
</mgrwt>
</event>
<event>
12    1  0.1074575E-001  0.1835718E+03  0.7546771E-02  0.1164806E+00
         21   -1    0    0  501  502  0.00000000000E+00  0.00000000000E+00  0.42324842534E+02  0.42324842534E+02  0.00000000000E+00 0. -1.
         21   -1    0    0  502  503 -0.00000000000E+00 -0.00000000000E+00 -0.12573830278E+04  0.12573830278E+04  0.00000000000E+00 0. -1.
         -6    2    1    2    0  503  0.40534814845E+02  0.35418699314E+02 -0.10024941644E+04  0.10188483700E+04  0.17366604676E+03 0.  0.
        -24    2    3    3    0    0  0.23640341972E+02 -0.45090639073E+02 -0.67590343806E+03  0.68202383207E+03  0.75624192078E+02 0.  0.
          6    2    1    2  501    0 -0.40534814845E+02 -0.35418699314E+02 -0.21256402084E+03  0.28085950037E+03  0.17550225217E+03 0.  0.
         24    2    5    5    0    0 -0.83388340464E+02 -0.51273536101E+02 -0.19320327572E+03  0.23101244470E+03  0.80353301288E+02 0.  0.
          5    1    5    5  501    0  0.42853525618E+02  0.15854836787E+02 -0.19360745127E+02  0.49847055674E+02  0.47000000000E+01 0. -1.
        -11    1    6    6    0    0 -0.58246972126E+02 -0.64089944862E+02 -0.93734540634E+02  0.12761816055E+03  0.00000000000E+00 0.  1.
         12    1    6    6    0    0 -0.25141368338E+02  0.12816408761E+02 -0.99468735082E+02  0.10339428415E+03  0.00000000000E+00 0. -1.
         -5    1    3    3    0  503  0.16894472873E+02  0.80509338387E+02 -0.32659072635E+03  0.33682453788E+03  0.47000000000E+01 0.  1.
         13    1    4    4    0    0  0.75862371518E+01 -0.54761374984E+01 -0.52761281679E+03  0.52769576795E+03  0.00000000000E+00 0. -1.
        -14    1    4    4    0    0  0.16054104820E+02 -0.39614501574E+02 -0.14829062128E+03  0.15432806412E+03  0.00000000000E+00 0.  1.
<mgrwt>
<rscale>  2 0.18313152E+03</rscale>
<asrwt>0</asrwt>
<pdfrwt beam="1">  1       21 0.65115140E-02 0.18357177E+03</pdfrwt>
<pdfrwt beam="2">  1       21 0.19344355E+00 0.18357177E+03</pdfrwt>
<totfact> 0.25538011E+04</totfact>
</mgrwt>
</event>
<event>
12    1  0.1074575E-001  0.2542796E+03  0.7546771E-02  0.1110684E+00
         21   -1    0    0  501  502  0.00000000000E+00  0.00000000000E+00  0.12608131293E+04  0.12608131293E+04  0.00000000000E+00 0.  1.
         21   -1    0    0  502  503 -0.00000000000E+00 -0.00000000000E+00 -0.66609433426E+02  0.66609433426E+02  0.00000000000E+00 0. -1.
         -6    2    1    2    0  503 -0.16890663767E+03  0.78094360313E+02  0.27831484357E+03  0.37698445804E+03  0.17329151188E+03 0.  0.
        -24    2    3    3    0    0 -0.68738319724E+02 -0.25707146487E+02  0.13345076500E+03  0.17249451697E+03  0.80990355781E+02 0.  0.
          6    2    1    2  501    0  0.16890663767E+03 -0.78094360313E+02  0.91588885227E+03  0.95043810466E+03  0.17277737034E+03 0.  0.
         24    2    5    5    0    0  0.13076821501E+03  0.71574950213E+00  0.43169028070E+03  0.45836502125E+03  0.81493287499E+02 0.  0.
          5    1    5    5  501    0  0.38138422665E+02 -0.78810109815E+02  0.48419857158E+03  0.49207308340E+03  0.47000000000E+01 0. -1.
        -11    1    6    6    0    0  0.23853184435E+02  0.11138897450E+02  0.21399839817E+03  0.21561160420E+03  0.00000000000E+00 0.  1.
         12    1    6    6    0    0  0.10691503057E+03 -0.10423147948E+02  0.21769188252E+03  0.24275341706E+03  0.00000000000E+00 0. -1.
         -5    1    3    3    0  503 -0.10016831795E+03  0.10380150680E+03  0.14486407858E+03  0.20448994106E+03  0.47000000000E+01 0.  1.
         13    1    4    4    0    0  0.31680249501E+00 -0.11200626183E+02 -0.84390779994E+01  0.14027559595E+02  0.00000000000E+00 0. -1.
        -14    1    4    4    0    0 -0.69055122219E+02 -0.14506520304E+02  0.14188984299E+03  0.15846695738E+03  0.00000000000E+00 0.  1.
<mgrwt>
<rscale>  2 0.25419206E+03</rscale>
<asrwt>0</asrwt>
<pdfrwt beam="1">  1       21 0.19397123E+00 0.25427963E+03</pdfrwt>
<pdfrwt beam="2">  1       21 0.10247606E-01 0.25427963E+03</pdfrwt>
<totfact> 0.10912621E+04</totfact>
</mgrwt>
</event>
<event>
12    1  0.1074575E-001  0.2252770E+03  0.7546771E-02  0.1130010E+00
         21   -1    0    0  501  502  0.00000000000E+00  0.00000000000E+00  0.49374345639E+02  0.49374345639E+02  0.00000000000E+00 0. -1.
         21   -1    0    0  502  503 -0.00000000000E+00 -0.00000000000E+00 -0.12014312238E+04  0.12014312238E+04  0.00000000000E+00 0. -1.
         -6    2    1    2    0  503  0.13928194232E+03 -0.41233653584E+02 -0.81375990643E+03  0.84436420427E+03  0.17218028485E+03 0.  0.
        -24    2    3    3    0    0  0.89214158009E+02 -0.84655257602E+02 -0.68639717660E+03  0.70071333002E+03  0.68792501045E+02 0.  0.
          6    2    1    2  501    0 -0.13928194232E+03  0.41233653584E+02 -0.33829697172E+03  0.40644136515E+03  0.17219195275E+03 0.  0.
         24    2    5    5    0    0 -0.15971135560E+03  0.11145649872E+02 -0.32069590679E+03  0.36576537248E+03  0.72845730490E+02 0.  0.
          5    1    5    5  501    0  0.20429413273E+02  0.30088003712E+02 -0.17601064923E+02  0.40675992679E+02  0.47000000000E+01 0. -1.
        -13    1    6    6    0    0 -0.52094536049E+02  0.64269488108E+01 -0.18615856104E+03  0.19341705252E+03  0.00000000000E+00 0.  1.
         14    1    6    6    0    0 -0.10761681955E+03  0.47187010617E+01 -0.13453734576E+03  0.17234831996E+03  0.00000000000E+00 0. -1.
         -5    1    3    3    0  503  0.50067784314E+02  0.43421604018E+02 -0.12736272983E+03  0.14365087425E+03  0.47000000000E+01 0.  1.
         11    1    4    4    0    0  0.69219613897E+02 -0.26339820110E+02 -0.27830349215E+03  0.28798953942E+03  0.00000000000E+00 0. -1.
        -12    1    4    4    0    0  0.19994544113E+02 -0.58315437492E+02 -0.40809368445E+03  0.41272379060E+03  0.00000000000E+00 0.  1.
<mgrwt>
<rscale>  2 0.22527480E+03</rscale>
<asrwt>0</asrwt>
<pdfrwt beam="1">  1       21 0.75960538E-02 0.22527703E+03</pdfrwt>
<pdfrwt beam="2">  1       21 0.18483556E+00 0.22527703E+03</pdfrwt>
<totfact> 0.21669696E+04</totfact>
</mgrwt>
</event>
<event>
12    1  0.1074575E-001  0.2481670E+03  0.7546771E-02  0.1114484E+00
         21   -1    0    0  501  502  0.00000000000E+00  0.00000000000E+00  0.69503458362E+02  0.69503458362E+02  0.00000000000E+00 0. -1.
         21   -1    0    0  502  503 -0.00000000000E+00 -0.00000000000E+00 -0.89512751483E+03  0.89512751483E+03  0.00000000000E+00 0.  1.
         -6    2    1    2    0  503 -0.15104679533E+03  0.94526012328E+02 -0.36339746244E+03  0.43999749724E+03  0.17259716246E+03 0.  0.
        -24    2    3    3    0    0 -0.59116330115E+01  0.32586620763E+02 -0.15736167744E+03  0.18043336593E+03  0.81833164153E+02 0.  0.
          6    2    1    2  501    0  0.15104679533E+03 -0.94526012328E+02 -0.46222659404E+03  0.52463347595E+03  0.17273262133E+03 0.  0.
         24    2    5    5    0    0  0.33158583927E+02 -0.86962031675E+02 -0.29750393367E+03  0.32187625900E+03  0.80211276726E+02 0.  0.
          5    1    5    5  501    0  0.11788821140E+03 -0.75639806538E+01 -0.16472266036E+03  0.20275721695E+03  0.47000000000E+01 0. -1.
        -11    1    6    6    0    0  0.49471273246E+02 -0.19294775460E+02 -0.12070620639E+03  0.13186994918E+03  0.00000000000E+00 0.  1.
         12    1    6    6    0    0 -0.16312689319E+02 -0.67667256215E+02 -0.17679772729E+03  0.19000630982E+03  0.00000000000E+00 0. -1.
         -5    1    3    3    0  503 -0.14513516231E+03  0.61939391566E+02 -0.20603578499E+03  0.25956413132E+03  0.47000000000E+01 0.  1.
         11    1    4    4    0    0 -0.22484794518E+02  0.10729202442E+02 -0.47325802880E+01  0.25359004037E+02  0.00000000000E+00 0. -1.
        -12    1    4    4    0    0  0.16573161506E+02  0.21857418321E+02 -0.15262909715E+03  0.15507436189E+03  0.00000000000E+00 0.  1.
<mgrwt>
<rscale>  2 0.24814343E+03</rscale>
<asrwt>0</asrwt>
<pdfrwt beam="1">  1       21 0.10692840E-01 0.24816700E+03</pdfrwt>
<pdfrwt beam="2">  1       21 0.13771192E+00 0.24816700E+03</pdfrwt>
<totfact> 0.26067659E+04</totfact>
</mgrwt>
</event>
<event>
12    1  0.1074575E-001  0.2151310E+03  0.7546771E-02  0.1140348E+00
         21   -1    0    0  503  502  0.00000000000E+00  0.00000000000E+00  0.18232098251E+03  0.18232098251E+03  0.00000000000E+00 0. -1.
         21   -1    0    0  501  503 -0.00000000000E+00 -0.00000000000E+00 -0.46926330142E+03  0.46926330142E+03  0.00000000000E+00 0. -1.
          6    2    1    2  501    0 -0.71155886176E+02  0.66275986037E+02 -0.36986855797E+03  0.42102390779E+03  0.17607587652E+03 0.  0.
         24    2    3    3    0    0 -0.50884419532E+02  0.77120060841E+02 -0.37660453328E+03  0.39661100788E+03  0.83262171194E+02 0.  0.
         -6    2    1    2    0  502  0.71155886176E+02 -0.66275986037E+02  0.82926239057E+02  0.23056037615E+03  0.19190012888E+03 0.  0.
        -24    2    5    5    0    0  0.19348817414E+02 -0.94917497145E+02  0.10827053568E+03  0.16599465844E+03  0.80299500206E+02 0.  0.
          5    1    3    3  501    0 -0.20271466644E+02 -0.10844074804E+02  0.67359753121E+01  0.24412899903E+02  0.47000000000E+01 0. -1.
        -13    1    4    4    0    0 -0.11602838716E+02 -0.16909656395E+02 -0.93548086782E+02  0.95769550935E+02  0.00000000000E+00 0.  1.
         14    1    4    4    0    0 -0.39281580816E+02  0.94029717236E+02 -0.28305644650E+03  0.30084145695E+03  0.00000000000E+00 0. -1.
         -5    1    5    5    0  502  0.51807068762E+02  0.28641511108E+02 -0.25344296627E+02  0.64565717713E+02  0.47000000000E+01 0.  1.
         13    1    6    6    0    0  0.45948724573E+02 -0.84413826551E+02  0.73614754345E+02  0.12106242795E+03  0.00000000000E+00 0. -1.
        -14    1    6    6    0    0 -0.26599907159E+02 -0.10503670594E+02  0.34655781340E+02  0.44932230494E+02  0.00000000000E+00 0.  1.
<mgrwt>
<rscale>  2 0.21154523E+03</rscale>
<asrwt>0</asrwt>
<pdfrwt beam="1">  1       21 0.28049382E-01 0.21513095E+03</pdfrwt>
<pdfrwt beam="2">  1       21 0.72194355E-01 0.21513095E+03</pdfrwt>
<totfact> 0.20737631E+04</totfact>
</mgrwt>
</event>
<event>
12    1  0.1074575E-001  0.1763701E+03  0.7546771E-02  0.1171378E+00
         21   -1    0    0  503  502  0.00000000000E+00  0.00000000000E+00  0.96274394531E+02  0.96274394531E+02  0.00000000000E+00 0.  1.
         21   -1    0    0  501  503 -0.00000000000E+00 -0.00000000000E+00 -0.32618279758E+03  0.32618279758E+03  0.00000000000E+00 0.  1.
          6    2    1    2  501    0 -0.35972322191E+02 -0.11005091600E+01 -0.94031450858E+02  0.19981635415E+03  0.17259618348E+03 0.  0.
         24    2    3    3    0    0 -0.10650065055E+02  0.49461802919E+02 -0.10714684694E+03  0.14157661065E+03  0.77482875783E+02 0.  0.
         -6    2    1    2    0  502  0.35972322191E+02  0.11005091600E+01 -0.13587695219E+03  0.22264083796E+03  0.17265913676E+03 0.  0.
        -24    2    5    5    0    0  0.42195123218E+02 -0.14750454406E+02 -0.69214777242E+01  0.92481010465E+02  0.80664900138E+02 0.  0.
          5    1    3    3  501    0 -0.25322257136E+02 -0.50562312079E+02  0.13115396080E+02  0.58239743505E+02  0.47000000000E+01 0. -1.
        -13    1    4    4    0    0  0.31229810069E+02  0.18478951256E+02 -0.24163119662E+02  0.43596204287E+02  0.00000000000E+00 0.  1.
         14    1    4    4    0    0 -0.41879875124E+02  0.30982851663E+02 -0.82983727277E+02  0.97980406359E+02  0.00000000000E+00 0. -1.
         -5    1    5    5    0  502 -0.62228010271E+01  0.15850963566E+02 -0.12895547447E+03  0.13015982750E+03  0.47000000000E+01 0.  1.
         13    1    6    6    0    0  0.67620122154E+01  0.25594081539E+02  0.19265353963E+02  0.32740428867E+02  0.00000000000E+00 0. -1.
        -14    1    6    6    0    0  0.35433111002E+02 -0.40344535945E+02 -0.26186831688E+02  0.59740581599E+02  0.00000000000E+00 0.  1.
<mgrwt>
<rscale>  2 0.17635465E+03</rscale>
<asrwt>0</asrwt>
<pdfrwt beam="1">  1       21 0.14811445E-01 0.17637006E+03</pdfrwt>
<pdfrwt beam="2">  1       21 0.50181968E-01 0.17637006E+03</pdfrwt>
<totfact> 0.15260995E+05</totfact>
</mgrwt>
</event>
<event>
12    1  0.1074575E-001  0.1813771E+03  0.7546771E-02  0.1166760E+00
         21   -1    0    0  503  502  0.00000000000E+00  0.00000000000E+00  0.11547965536E+04  0.11547965536E+04  0.00000000000E+00 0.  1.
         21   -1    0    0  501  503 -0.00000000000E+00 -0.00000000000E+00 -0.11118988947E+03  0.11118988947E+03  0.00000000000E+00 0. -1.
          6    2    1    2  501    0 -0.52460779927E+02  0.28357199705E+01 -0.25153248689E+02  0.18194520654E+03  0.17236936365E+03 0.  0.
         24    2    3    3    0    0 -0.72068094811E+02  0.35415892156E+02  0.26538405234E+02  0.11760212998E+03  0.81718286301E+02 0.  0.
         -6    2    1    2    0  502  0.52460779927E+02 -0.28357199705E+01  0.10687599128E+04  0.10840412365E+04  0.17360148765E+03 0.  0.
        -24    2    5    5    0    0 -0.53747193980E+01 -0.39082109144E+01  0.22662943743E+03  0.23991332987E+03  0.78443242030E+02 0.  0.
          5    1    3    3  501    0  0.19607314884E+02 -0.32580172186E+02 -0.51691653923E+02  0.64343076565E+02  0.47000000000E+01 0. -1.
        -13    1    4    4    0    0  0.11756241585E+02  0.19925815616E+02 -0.95566731604E+01  0.25031527042E+02  0.00000000000E+00 0.  1.
         14    1    4    4    0    0 -0.83824336396E+02  0.15490076540E+02  0.36095078394E+02  0.92570602935E+02  0.00000000000E+00 0. -1.
         -5    1    5    5    0  502  0.57835499325E+02  0.10724909439E+01  0.84213047539E+03  0.84412790666E+03  0.47000000000E+01 0.  1.
         13    1    6    6    0    0  0.19414138822E+01 -0.37268453567E+02  0.67202807608E+02  0.76869526274E+02  0.00000000000E+00 0. -1.
        -14    1    6    6    0    0 -0.73161332802E+01  0.33360242653E+02  0.15942662982E+03  0.16304380360E+03  0.00000000000E+00 0.  1.
<mgrwt>
<rscale>  2 0.18108164E+03</rscale>
<asrwt>0</asrwt>
<pdfrwt beam="1">  1       21 0.17766100E+00 0.18137710E+03</pdfrwt>
<pdfrwt beam="2">  1       21 0.17106138E-01 0.18137710E+03</pdfrwt>
<totfact> 0.58805073E+03</totfact>
</mgrwt>
</event>
<event>
12    1  0.1074575E-001  0.2546794E+03  0.7546771E-02  0.1110388E+00
         21   -1    0    0  501  502  0.00000000000E+00  0.00000000000E+00  0.21186962364E+03  0.21186962364E+03  0.00000000000E+00 0. -1.
         21   -1    0    0  502  503 -0.00000000000E+00 -0.00000000000E+00 -0.66027818340E+03  0.66027818340E+03  0.00000000000E+00 0. -1.
         -6    2    1    2    0  503 -0.13805539569E+03 -0.12689349613E+03 -0.54357794403E+03  0.60026765321E+03  0.17228761597E+03 0.  0.
        -24    2    3    3    0    0 -0.91306708888E+02 -0.51110749610E+02 -0.16735991891E+03  0.21362756629E+03  0.81720075924E+02 0.  0.
          6    2    1    2  501    0  0.13805539569E+03  0.12689349613E+03  0.95169384264E+02  0.27188015383E+03  0.17233790849E+03 0.  0.
         24    2    5    5    0    0  0.42426502357E+02  0.63907401833E+01  0.45126949836E+01  0.93256177994E+02  0.82677086643E+02 0.  0.
          5    1    5    5  501    0  0.95628893338E+02  0.12050275594E+03  0.90656689280E+02  0.17862397583E+03  0.47000000000E+01 0. -1.
        -11    1    6    6    0    0  0.16321243231E+01  0.18671103772E+02 -0.32041596109E+02  0.37120584951E+02  0.00000000000E+00 0.  1.
         12    1    6    6    0    0  0.40794378034E+02 -0.12280363589E+02  0.36554291092E+02  0.56135593043E+02  0.00000000000E+00 0. -1.
         -5    1    3    3    0  503 -0.46748686806E+02 -0.75782746517E+02 -0.37621802512E+03  0.38664008692E+03  0.47000000000E+01 0.  1.
         11    1    4    4    0    0 -0.10481556649E+03 -0.52669547227E+02 -0.15926438626E+03  0.19780174143E+03  0.00000000000E+00 0. -1.
        -12    1    4    4    0    0  0.13508857599E+02  0.15587976170E+01 -0.80955326504E+01  0.15825824861E+02  0.00000000000E+00 0.  1.
<mgrwt>
<rscale>  2 0.25467091E+03</rscale>
<asrwt>0</asrwt>
<pdfrwt beam="1">  1       21 0.32595327E-01 0.25467942E+03</pdfrwt>
<pdfrwt beam="2">  1       21 0.10158126E+00 0.25467942E+03</pdfrwt>
<totfact> 0.68708979E+03</totfact>
</mgrwt>
</event>
<event>
12    1  0.1074575E-001  0.3094238E+03  0.7546771E-02  0.1080794E+00
         21   -1    0    0  501  502  0.00000000000E+00  0.00000000000E+00  0.54485133127E+02  0.54485133127E+02  0.00000000000E+00 0.  1.
         21   -1    0    0  502  503 -0.00000000000E+00 -0.00000000000E+00 -0.21651471296E+04  0.21651471296E+04  0.00000000000E+00 0.  1.
         -6    2    1    2    0  503  0.17174981508E+03  0.18865591413E+03 -0.15437749653E+04  0.15744790406E+04  0.17508298891E+03 0.  0.
        -24    2    3    3    0    0  0.77350912616E+02  0.13447771096E+03 -0.61694495441E+03  0.64126824475E+03  0.80848416931E+02 0.  0.
          6    2    1    2  501    0 -0.17174981508E+03 -0.18865591413E+03 -0.56688703123E+03  0.64515322215E+03  0.17254773529E+03 0.  0.
         24    2    5    5    0    0 -0.69506468668E+02 -0.83393789873E+02 -0.14273077389E+03  0.19630532215E+03  0.79862583939E+02 0.  0.
          5    1    5    5  501    0 -0.10224334641E+03 -0.10526212426E+03 -0.42415625735E+03  0.44884790000E+03  0.47000000000E+01 0. -1.
        -11    1    6    6    0    0  0.49647194179E+01 -0.50562113295E+02 -0.74097498757E+02  0.89842167504E+02  0.00000000000E+00 0.  1.
         12    1    6    6    0    0 -0.74471188086E+02 -0.32831676577E+02 -0.68633275131E+02  0.10646315465E+03  0.00000000000E+00 0. -1.
         -5    1    3    3    0  503  0.94398902463E+02  0.54178203174E+02 -0.92683001085E+03  0.93321079585E+03  0.47000000000E+01 0.  1.
         11    1    4    4    0    0  0.72145881965E+02  0.46439149948E+02 -0.27095463228E+03  0.28421477035E+03  0.00000000000E+00 0. -1.
        -12    1    4    4    0    0  0.52050306507E+01  0.88038561007E+02 -0.34599032214E+03  0.35705347440E+03  0.00000000000E+00 0.  1.
<mgrwt>
<rscale>  2 0.30906635E+03</rscale>
<asrwt>0</asrwt>
<pdfrwt beam="1">  1       21 0.83823283E-02 0.30942383E+03</pdfrwt>
<pdfrwt beam="2">  1       21 0.33309955E+00 0.30942383E+03</pdfrwt>
<totfact> 0.21542181E+03</totfact>
</mgrwt>
</event>
<event>
12    1  0.1074575E-001  0.1855478E+03  0.7546771E-02  0.1163571E+00
         21   -1    0    0  501  502  0.00000000000E+00  0.00000000000E+00  0.17706826714E+04  0.17706826714E+04  0.00000000000E+00 0.  1.
         21   -1    0    0  502  503 -0.00000000000E+00 -0.00000000000E+00 -0.24327923507E+02  0.24327923507E+02  0.00000000000E+00 0.  1.
         -6    2    1    2    0  503 -0.17865575997E+02  0.63246018742E+02  0.44454467274E+03  0.48004388488E+03  0.16882810091E+03 0.  0.
        -24    2    3    3    0    0 -0.20259442507E+02  0.80385117714E+01  0.82667503567E+02  0.11394174751E+03  0.75324252379E+02 0.  0.
          6    2    1    2  501    0  0.17865575997E+02 -0.63246018742E+02  0.13018100752E+04  0.13149667100E+04  0.17351869931E+03 0.  0.
         24    2    5    5    0    0  0.39946098270E+02 -0.10466901687E+03  0.95339124263E+03  0.96336866240E+03  0.81074190156E+02 0.  0.
          5    1    5    5  501    0 -0.22080522272E+02  0.41422998128E+02  0.34841883254E+03  0.35159804764E+03  0.47000000000E+01 0. -1.
        -11    1    6    6    0    0  0.29246047644E+02 -0.46268452697E+02  0.73547264546E+03  0.73750668691E+03  0.00000000000E+00 0.  1.
         12    1    6    6    0    0  0.10700050626E+02 -0.58400564172E+02  0.21791859717E+03  0.22586197549E+03  0.00000000000E+00 0. -1.
         -5    1    3    3    0  503  0.23938665095E+01  0.55207506970E+02  0.36187716917E+03  0.36610213737E+03  0.47000000000E+01 0.  1.
         13    1    4    4    0    0 -0.50118502446E+01 -0.13810104983E+02  0.85860252801E+02  0.87108097520E+02  0.00000000000E+00 0. -1.
        -14    1    4    4    0    0 -0.15247592262E+02  0.21848616754E+02 -0.31927492342E+01  0.26833649985E+02  0.00000000000E+00 0.  1.
<mgrwt>
<rscale>  2 0.18444323E+03</rscale>
<asrwt>0</asrwt>
<pdfrwt beam="1">  1       21 0.27241262E+00 0.18554777E+03</pdfrwt>
<pdfrwt beam="2">  1       21 0.37427588E-02 0.18554777E+03</pdfrwt>
<totfact> 0.21702832E+04</totfact>
</mgrwt>
</event>
<event>
12    1  0.1074575E-001  0.1943635E+03  0.7546771E-02  0.1154858E+00
         21   -1    0    0  503  502  0.00000000000E+00  0.00000000000E+00  0.32309845279E+03  0.32309845279E+03  0.00000000000E+00 0. -1.
         21   -1    0    0  501  503 -0.00000000000E+00 -0.00000000000E+00 -0.12722175106E+03  0.12722175106E+03  0.00000000000E+00 0.  1.
          6    2    1    2  501    0 -0.87141871524E+02 -0.81112584943E+01  0.16458650859E+03  0.25468782094E+03  0.17354442957E+03 0.  0.
         24    2    3    3    0    0 -0.23535813916E+02 -0.14436161871E+02  0.17505492256E+03  0.18974621133E+03  0.67801633435E+02 0.  0.
         -6    2    1    2    0  502  0.87141871524E+02  0.81112584943E+01  0.31290193139E+02  0.19563238292E+03  0.17214370384E+03 0.  0.
        -24    2    5    5    0    0  0.13526645349E+01 -0.40722181749E+02  0.36424079099E+02  0.96673099840E+02  0.79742390902E+02 0.  0.
          5    1    3    3  501    0 -0.63606057608E+02  0.63249033767E+01 -0.10468413967E+02  0.64941609606E+02  0.47000000000E+01 0. -1.
        -11    1    4    4    0    0  0.91402830340E+01  0.12705641011E+02  0.84010417302E+01  0.17763884418E+02  0.00000000000E+00 0.  1.
         12    1    4    4    0    0 -0.32676096950E+02 -0.27141802882E+02  0.16665388083E+03  0.17198232691E+03  0.00000000000E+00 0. -1.
         -5    1    5    5    0  502  0.85789206989E+02  0.48833440243E+02 -0.51338859601E+01  0.98959283076E+02  0.47000000000E+01 0.  1.
         13    1    6    6    0    0  0.33037407047E+02  0.54343517409E+01  0.11636543485E+02  0.35445896624E+02  0.00000000000E+00 0. -1.
        -14    1    6    6    0    0 -0.31684742512E+02 -0.46156533490E+02  0.24787535614E+02  0.61227203216E+02  0.00000000000E+00 0.  1.
<mgrwt>
<rscale>  2 0.19405032E+03</rscale>
<asrwt>0</asrwt>
<pdfrwt beam="1">  1       21 0.49707454E-01 0.19436349E+03</pdfrwt>
<pdfrwt beam="2">  1       21 0.19572577E-01 0.19436349E+03</pdfrwt>
<totfact> 0.92640992E+04</totfact>
</mgrwt>
</event>
<event>
12    1  0.1074575E-001  0.1941499E+03  0.7546771E-02  0.1154789E+00
         21   -1    0    0  503  502  0.00000000000E+00  0.00000000000E+00  0.49094978058E+03  0.49094978058E+03  0.00000000000E+00 0.  1.
         21   -1    0    0  501  503 -0.00000000000E+00 -0.00000000000E+00 -0.95988661173E+02  0.95988661173E+02  0.00000000000E+00 0.  1.
          6    2    1    2  501    0 -0.83003884765E+02  0.32597877749E+02  0.66113369531E+02  0.20509795807E+03  0.17245848270E+03 0.  0.
         24    2    3    3    0    0 -0.26736074250E+02 -0.89315977455E+00  0.10022565886E+03  0.13111516022E+03  0.80189694755E+02 0.  0.
         -6    2    1    2    0  502  0.83003884765E+02 -0.32597877749E+02  0.32884774988E+03  0.38184048368E+03  0.17236312210E+03 0.  0.
        -24    2    5    5    0    0  0.18975749193E+02  0.43794211722E+02  0.16608396515E+03  0.19092298030E+03  0.81176898745E+02 0.  0.
          5    1    3    3  501    0 -0.56267810515E+02  0.33491037524E+02 -0.34112289328E+02  0.73982797851E+02  0.47000000000E+01 0. -1.
        -13    1    4    4    0    0  0.20053892861E+02  0.16815987965E+01  0.75490582532E+02  0.78126912420E+02  0.00000000000E+00 0.  1.
         14    1    4    4    0    0 -0.46789967111E+02 -0.25747585710E+01  0.24735076328E+02  0.52988247799E+02  0.00000000000E+00 0. -1.
         -5    1    5    5    0  502  0.64028135573E+02 -0.76392089471E+02  0.16276378473E+03  0.19091750338E+03  0.47000000000E+01 0.  1.
         13    1    6    6    0    0  0.21786698403E+02  0.45879693887E+02  0.17453554543E+03  0.18177530953E+03  0.00000000000E+00 0. -1.
        -14    1    6    6    0    0 -0.28109492104E+01 -0.20854821655E+01 -0.84515802769E+01  0.91476707692E+01  0.00000000000E+00 0.  1.
<mgrwt>
<rscale>  2 0.19412875E+03</rscale>
<asrwt>0</asrwt>
<pdfrwt beam="1">  1       21 0.75530734E-01 0.19414993E+03</pdfrwt>
<pdfrwt beam="2">  1       21 0.14767487E-01 0.19414993E+03</pdfrwt>
<totfact> 0.63124667E+04</totfact>
</mgrwt>
</event>
<event>
12    1  0.1074575E-001  0.1930881E+03  0.7546771E-02  0.1155884E+00
         21   -1    0    0  501  502  0.00000000000E+00  0.00000000000E+00  0.26785453021E+03  0.26785453021E+03  0.00000000000E+00 0.  1.
         21   -1    0    0  502  503 -0.00000000000E+00 -0.00000000000E+00 -0.20619246733E+03  0.20619246733E+03  0.00000000000E+00 0. -1.
         -6    2    1    2    0  503  0.45282232270E+02  0.69268948228E+02 -0.10482410725E+03  0.21970689807E+03  0.17445446355E+03 0.  0.
        -24    2    3    3    0    0  0.59255256709E+02  0.20119523379E+02 -0.12737930509E+03  0.16365568645E+03  0.81496721850E+02 0.  0.
          6    2    1    2  501    0 -0.45282232270E+02 -0.69268948228E+02  0.16648617014E+03  0.25434009946E+03  0.17355855957E+03 0.  0.
         24    2    5    5    0    0 -0.33484015067E+02 -0.11080606764E+03  0.15256950007E+03  0.20872986022E+03  0.83015289587E+02 0.  0.
          5    1    5    5  501    0 -0.11798217203E+02  0.41537119412E+02  0.13916670072E+02  0.45610239247E+02  0.47000000000E+01 0. -1.
        -13    1    6    6    0    0 -0.21924314780E+02 -0.28860109000E+02  0.10969186107E+03  0.11552439507E+03  0.00000000000E+00 0.  1.
         14    1    6    6    0    0 -0.11559700287E+02 -0.81945958640E+02  0.42877638993E+02  0.93205465150E+02  0.00000000000E+00 0. -1.
         -5    1    3    3    0  503 -0.13973024439E+02  0.49149424849E+02  0.22555197840E+02  0.56051211624E+02  0.47000000000E+01 0.  1.
         11    1    4    4    0    0  0.34460503787E+02  0.35760329925E+02 -0.22075789950E+02  0.54347658823E+02  0.00000000000E+00 0. -1.
        -12    1    4    4    0    0  0.24794752922E+02 -0.15640806546E+02 -0.10530351514E+03  0.10930802763E+03  0.00000000000E+00 0.  1.
<mgrwt>
<rscale>  2 0.19288555E+03</rscale>
<asrwt>0</asrwt>
<pdfrwt beam="1">  1       21 0.41208390E-01 0.19308813E+03</pdfrwt>
<pdfrwt beam="2">  1       21 0.31721918E-01 0.19308813E+03</pdfrwt>
<totfact> 0.54179537E+04</totfact>
</mgrwt>
</event>
<event>
12    1  0.1074575E-001  0.2168802E+03  0.7546771E-02  0.1136369E+00
         21   -1    0    0  501  502  0.00000000000E+00  0.00000000000E+00  0.37880629597E+03  0.37880629597E+03  0.00000000000E+00 0. -1.
         21   -1    0    0  502  503 -0.00000000000E+00 -0.00000000000E+00 -0.18004309221E+03  0.18004309221E+03  0.00000000000E+00 0. -1.
         -6    2    1    2    0  503  0.48282956477E+02 -0.12085796883E+03 -0.56741913614E+02  0.22418000201E+03  0.17349102577E+03 0.  0.
        -24    2    3    3    0    0  0.85905849477E+02 -0.12803484699E+03 -0.26706778744E+02  0.17528021689E+03  0.78975726552E+02 0.  0.
          6    2    1    2  501    0 -0.48282956477E+02  0.12085796883E+03  0.25550511737E+03  0.33466938617E+03  0.17257705676E+03 0.  0.
         24    2    5    5    0    0 -0.10627583321E+01  0.24470375603E+02  0.19254328477E+03  0.21014389638E+03  0.80545713363E+02 0.  0.
          5    1    5    5  501    0 -0.47220198145E+02  0.96387593231E+02  0.62961832603E+02  0.12452548979E+03  0.47000000000E+01 0. -1.
        -11    1    6    6    0    0 -0.18942469663E+02 -0.80378780766E+01  0.82767665700E+01  0.22179483893E+02  0.00000000000E+00 0.  1.
         12    1    6    6    0    0  0.17879711331E+02  0.32508253679E+02  0.18426651820E+03  0.18796441249E+03  0.00000000000E+00 0. -1.
         -5    1    3    3    0  503 -0.37622893000E+02  0.71768781543E+01 -0.30035134869E+02  0.48899785116E+02  0.47000000000E+01 0.  1.
         13    1    4    4    0    0  0.26839194423E+02 -0.85841494494E+02 -0.44786613866E+02  0.10047360507E+03  0.00000000000E+00 0. -1.
        -14    1    4    4    0    0  0.59066655054E+02 -0.42193352495E+02  0.18079835122E+02  0.74806611820E+02  0.00000000000E+00 0.  1.
<mgrwt>
<rscale>  2 0.21669738E+03</rscale>
<asrwt>0</asrwt>
<pdfrwt beam="1">  1       21 0.58277892E-01 0.21688022E+03</pdfrwt>
<pdfrwt beam="2">  1       21 0.27698937E-01 0.21688022E+03</pdfrwt>
<totfact> 0.33877945E+04</totfact>
</mgrwt>
</event>
<event>
12    1  0.1074575E-001  0.1796994E+03  0.7546771E-02  0.1168257E+00
         21   -1    0    0  503  502  0.00000000000E+00  0.00000000000E+00  0.38961346607E+02  0.38961346607E+02  0.00000000000E+00 0.  1.
         21   -1    0    0  501  503 -0.00000000000E+00 -0.00000000000E+00 -0.10294631751E+04  0.10294631751E+04  0.00000000000E+00 0.  1.
          6    2    1    2  501    0  0.32416987072E+02 -0.38349772760E+02 -0.25685331676E+03  0.31308883771E+03  0.17184128679E+03 0.  0.
         24    2    3    3    0    0  0.27185995354E+02  0.36750420517E+02 -0.92982848801E+02  0.13269199025E+03  0.82895611181E+02 0.  0.
         -6    2    1    2    0  502 -0.32416987072E+02  0.38349772760E+02 -0.73364851177E+03  0.75533568403E+03  0.17254069269E+03 0.  0.
        -24    2    5    5    0    0  0.14428805875E+01  0.14789834271E+02 -0.15791348330E+03  0.17810568279E+03  0.81019410819E+02 0.  0.
          5    1    3    3  501    0  0.52309917177E+01 -0.75100193277E+02 -0.16387046796E+03  0.18039684746E+03  0.47000000000E+01 0. -1.
        -11    1    4    4    0    0  0.47763699282E+02  0.41436046189E+02 -0.91909636761E+02  0.11156028963E+03  0.00000000000E+00 0.  1.
         12    1    4    4    0    0 -0.20577703928E+02 -0.46856256725E+01 -0.10732120402E+01  0.21131700617E+02  0.00000000000E+00 0. -1.
         -5    1    5    5    0  502 -0.33859867659E+02  0.23559938489E+02 -0.57573502846E+03  0.57723000125E+03  0.47000000000E+01 0.  1.
         11    1    6    6    0    0  0.24476666827E+02  0.40773915599E+02 -0.87114366383E+02  0.99249847569E+02  0.00000000000E+00 0. -1.
        -12    1    6    6    0    0 -0.23033786240E+02 -0.25984081328E+02 -0.70799116921E+02  0.78855835217E+02  0.00000000000E+00 0.  1.
<mgrwt>
<rscale>  2 0.17953126E+03</rscale>
<asrwt>0</asrwt>
<pdfrwt beam="1">  1       21 0.59940529E-02 0.17969935E+03</pdfrwt>
<pdfrwt beam="2">  1       21 0.15837896E+00 0.17969935E+03</pdfrwt>
<totfact> 0.51475976E+04</totfact>
</mgrwt>
</event>
<event>
12    1  0.1074575E-001  0.1965611E+03  0.7546771E-02  0.1153121E+00
         21   -1    0    0  501  502  0.00000000000E+00  0.00000000000E+00  0.17098842654E+03  0.17098842654E+03  0.00000000000E+00 0. -1.
         21   -1    0    0  502  503 -0.00000000000E+00 -0.00000000000E+00 -0.23389549613E+03  0.23389549613E+03  0.00000000000E+00 0. -1.
         -6    2    1    2    0  503 -0.74088057686E+02  0.51994969379E+02 -0.73784297903E+02  0.20802206465E+03  0.17215266374E+03 0.  0.
        -24    2    3    3    0    0 -0.84576957741E+02  0.47156341425E+00 -0.95794856521E+02  0.15082737017E+03  0.80117144875E+02 0.  0.
          6    2    1    2  501    0  0.74088057686E+02 -0.51994969379E+02  0.10877228315E+02  0.19686185801E+03  0.17448140277E+03 0.  0.
         24    2    5    5    0    0  0.68781839546E+02  0.79303711685E+01  0.57694081543E+02  0.12048705761E+03  0.79966816669E+02 0.  0.
          5    1    5    5  501    0  0.53062181408E+01 -0.59925340547E+02 -0.46816853228E+02  0.76374800405E+02  0.47000000000E+01 0. -1.
        -13    1    6    6    0    0  0.16695748827E+02  0.40190850161E+02  0.32149305335E+02  0.54107580791E+02  0.00000000000E+00 0.  1.
         14    1    6    6    0    0  0.52086090719E+02 -0.32260478992E+02  0.25544776209E+02  0.66379476819E+02  0.00000000000E+00 0. -1.
         -5    1    3    3    0  503  0.10488900055E+02  0.51523405965E+02  0.22010558618E+02  0.57194694485E+02  0.47000000000E+01 0.  1.
         11    1    4    4    0    0 -0.35642395490E+02 -0.13421214944E+01 -0.95408628895E+02  0.10185768559E+03  0.00000000000E+00 0. -1.
        -12    1    4    4    0    0 -0.48934562251E+02  0.18136849086E+01 -0.38622762545E+00  0.48969684576E+02  0.00000000000E+00 0.  1.
<mgrwt>
<rscale>  2 0.19604303E+03</rscale>
<asrwt>0</asrwt>
<pdfrwt beam="1">  1       21 0.26305912E-01 0.19656113E+03</pdfrwt>
<pdfrwt beam="2">  1       21 0.35983923E-01 0.19656113E+03</pdfrwt>
<totfact> 0.10217056E+05</totfact>
</mgrwt>
</event>
<event>
12    1  0.1074575E-001  0.1938499E+03  0.7546771E-02  0.1155470E+00
         21   -1    0    0  503  502  0.00000000000E+00  0.00000000000E+00  0.11351563866E+04  0.11351563866E+04  0.00000000000E+00 0. -1.
         21   -1    0    0  501  503 -0.00000000000E+00 -0.00000000000E+00 -0.38359885051E+02  0.38359885051E+02  0.00000000000E+00 0.  1.
          6    2    1    2  501    0  0.75943148087E+02 -0.41757470778E+02  0.32196619275E+03  0.37480494272E+03  0.17118839828E+03 0.  0.
         24    2    3    3    0    0  0.69812276181E+01  0.30600903722E+02  0.11354822862E+03  0.14360888175E+03  0.82128909934E+02 0.  0.
         -6    2    1    2    0  502 -0.75943148087E+02  0.41757470778E+02  0.77483030883E+03  0.79871132897E+03  0.17339761079E+03 0.  0.
        -24    2    5    5    0    0 -0.10518089616E+02  0.56085600222E+01  0.63526126570E+03  0.64031691674E+03  0.79415313425E+02 0.  0.
          5    1    3    3  501    0  0.68961920469E+02 -0.72358374500E+02  0.20841796413E+03  0.23119606097E+03  0.47000000000E+01 0. -1.
        -13    1    4    4    0    0  0.18751310892E+02 -0.18692450203E+02  0.99602044392E+01  0.28288248925E+02  0.00000000000E+00 0.  1.
         14    1    4    4    0    0 -0.11770083274E+02  0.49293353925E+02  0.10358802418E+03  0.11532063283E+03  0.00000000000E+00 0. -1.
         -5    1    5    5    0  502 -0.65425058472E+02  0.36148910756E+02  0.13956904313E+03  0.15839441223E+03  0.47000000000E+01 0.  1.
         11    1    6    6    0    0 -0.37885434657E+02 -0.14363420059E+02  0.22183264467E+03  0.22550240850E+03  0.00000000000E+00 0. -1.
        -12    1    6    6    0    0  0.27367345041E+02  0.19971980081E+02  0.41342862103E+03  0.41481450824E+03  0.00000000000E+00 0.  1.
<mgrwt>
<rscale>  2 0.19335460E+03</rscale>
<asrwt>0</asrwt>
<pdfrwt beam="1">  1       21 0.17463942E+00 0.19384989E+03</pdfrwt>
<pdfrwt beam="2">  1       21 0.59015217E-02 0.19384989E+03</pdfrwt>
<totfact> 0.40145588E+04</totfact>
</mgrwt>
</event>
<event>
12    1  0.1074575E-001  0.3272573E+03  0.7546771E-02  0.1072460E+00
         21   -1    0    0  503  502  0.00000000000E+00  0.00000000000E+00  0.13413010210E+03  0.13413010210E+03  0.00000000000E+00 0. -1.
         21   -1    0    0  501  503 -0.00000000000E+00 -0.00000000000E+00 -0.79747627541E+03  0.79747627541E+03  0.00000000000E+00 0.  1.
          6    2    1    2  501    0  0.27745723163E+03 -0.85567302273E+01 -0.31362943537E+03  0.45327782932E+03  0.17332522843E+03 0.  0.
         24    2    3    3    0    0  0.72290432762E+02 -0.61007818093E+01 -0.49089087407E+02  0.11845977016E+03  0.79748682977E+02 0.  0.
         -6    2    1    2    0  502 -0.27745723163E+03  0.85567302273E+01 -0.34971673793E+03  0.47832854819E+03  0.17158283774E+03 0.  0.
        -24    2    5    5    0    0 -0.26360683084E+03 -0.29332705818E+02 -0.26067365232E+03  0.38046024862E+03  0.80313628162E+02 0.  0.
          5    1    3    3  501    0  0.20516679887E+03 -0.24559484180E+01 -0.26454034797E+03  0.33481805916E+03  0.47000000000E+01 0. -1.
        -11    1    4    4    0    0  0.77015717345E+02  0.29546535749E+01 -0.64140100959E+02  0.10027015133E+03  0.00000000000E+00 0.  1.
         12    1    4    4    0    0 -0.47252845835E+01 -0.90554353842E+01  0.15051013552E+02  0.18189618834E+02  0.00000000000E+00 0. -1.
         -5    1    5    5    0  502 -0.13850400791E+02  0.37889436046E+02 -0.89043085614E+02  0.97868299574E+02  0.47000000000E+01 0.  1.
         13    1    6    6    0    0 -0.14591220860E+03  0.84939623675E+01 -0.97296332765E+02  0.17558216420E+03  0.00000000000E+00 0. -1.
        -14    1    6    6    0    0 -0.11769462224E+03 -0.37826668186E+02 -0.16337731955E+03  0.20487808442E+03  0.00000000000E+00 0.  1.
<mgrwt>
<rscale>  2 0.32702723E+03</rscale>
<asrwt>0</asrwt>
<pdfrwt beam="1">  1       21 0.20635401E-01 0.32725734E+03</pdfrwt>
<pdfrwt beam="2">  1       21 0.12268866E+00 0.32725734E+03</pdfrwt>
<totfact> 0.10088527E+04</totfact>
</mgrwt>
</event>
<event>
12    1  0.1074575E-001  0.1857362E+03  0.7546771E-02  0.1162405E+00
         21   -1    0    0  503  502  0.00000000000E+00  0.00000000000E+00  0.80263900207E+03  0.80263900207E+03  0.00000000000E+00 0. -1.
         21   -1    0    0  501  503 -0.00000000000E+00 -0.00000000000E+00 -0.82470183095E+02  0.82470183095E+02  0.00000000000E+00 0. -1.
          6    2    1    2  501    0 -0.77371853281E+01  0.67117416479E+02  0.66639093644E+03  0.69174427514E+03  0.17282549112E+03 0.  0.
         24    2    3    3    0    0 -0.60942718882E+02  0.32432319162E+02  0.53983161576E+03  0.55006422563E+03  0.79916260128E+02 0.  0.
         -6    2    1    2    0  502  0.77371853281E+01 -0.67117416479E+02  0.53777882528E+02  0.19336491002E+03  0.17301247396E+03 0.  0.
        -24    2    5    5    0    0 -0.20902903612E+02  0.14507161201E+02  0.65266398376E+02  0.10597553783E+03  0.79521838232E+02 0.  0.
          5    1    3    3  501    0  0.53205533554E+02  0.34685097317E+02  0.12655932068E+03  0.14168004951E+03  0.47000000000E+01 0. -1.
        -13    1    4    4    0    0 -0.30989888225E+02  0.21714217510E+02  0.73685021117E+02  0.82833343234E+02  0.00000000000E+00 0.  1.
         14    1    4    4    0    0 -0.29952830657E+02  0.10718101652E+02  0.46614659464E+03  0.46723088240E+03  0.00000000000E+00 0. -1.
         -5    1    5    5    0  502  0.28640088941E+02 -0.81624577680E+02 -0.11488515848E+02  0.87389372193E+02  0.47000000000E+01 0.  1.
         11    1    6    6    0    0 -0.30117089458E+02  0.22462364303E+02 -0.19923870439E+01  0.37624014853E+02  0.00000000000E+00 0. -1.
        -12    1    6    6    0    0  0.92141858456E+01 -0.79552031018E+01  0.67258785420E+02  0.68351522977E+02  0.00000000000E+00 0.  1.
<mgrwt>
<rscale>  2 0.18569262E+03</rscale>
<asrwt>0</asrwt>
<pdfrwt beam="1">  1       21 0.12348292E+00 0.18573618E+03</pdfrwt>
<pdfrwt beam="2">  1       21 0.12687721E-01 0.18573618E+03</pdfrwt>
<totfact> 0.26225316E+04</totfact>
</mgrwt>
</event>
<event>
12    1  0.1074575E-001  0.2651950E+03  0.7546771E-02  0.1104279E+00
         21   -1    0    0  501  502  0.00000000000E+00  0.00000000000E+00  0.18544484460E+03  0.18544484460E+03  0.00000000000E+00 0. -1.
         21   -1    0    0  502  503 -0.00000000000E+00 -0.00000000000E+00 -0.46533415389E+03  0.46533415389E+03  0.00000000000E+00 0.  1.
         -6    2    1    2    0  503  0.17281452100E+03  0.98994594508E+02 -0.28193400358E+03  0.38705962085E+03  0.17511019189E+03 0.  0.
        -24    2    3    3    0    0  0.43445559710E+02  0.76290281329E+02 -0.19837853915E+03  0.23131810545E+03  0.80288837519E+02 0.  0.
          6    2    1    2  501    0 -0.17281452100E+03 -0.98994594508E+02  0.20446942850E+01  0.26371937765E+03  0.17285526015E+03 0.  0.
         24    2    5    5    0    0 -0.41013053162E+02 -0.69482073225E+01  0.40919053885E+02  0.98257991963E+02  0.79056409601E+02 0.  0.
          5    1    5    5  501    0 -0.13180146784E+03 -0.92046387185E+02 -0.38874359600E+02  0.16546138568E+03  0.47000000000E+01 0. -1.
        -13    1    6    6    0    0  0.17768997156E+02 -0.19339548435E+02  0.12989222096E+01  0.26295296015E+02  0.00000000000E+00 0.  1.
         14    1    6    6    0    0 -0.58782050318E+02  0.12391341113E+02  0.39620131675E+02  0.71962695948E+02  0.00000000000E+00 0. -1.
         -5    1    3    3    0  503  0.12936896129E+03  0.22704313179E+02 -0.83555464433E+02  0.15574151540E+03  0.47000000000E+01 0.  1.
         13    1    4    4    0    0 -0.16015191146E+02  0.12659727691E+02 -0.89991108313E+02  0.92277595482E+02  0.00000000000E+00 0. -1.
        -14    1    4    4    0    0  0.59460750856E+02  0.63630553638E+02 -0.10838743084E+03  0.13904050997E+03  0.00000000000E+00 0.  1.
<mgrwt>
<rscale>  2 0.26482330E+03</rscale>
<asrwt>0</asrwt>
<pdfrwt beam="1">  1       21 0.28529976E-01 0.26519496E+03</pdfrwt>
<pdfrwt beam="2">  1       21 0.71589869E-01 0.26519496E+03</pdfrwt>
<totfact> 0.19931455E+04</totfact>
</mgrwt>
</event>
<event>
12    1  0.1074575E-001  0.1911851E+03  0.7546771E-02  0.1158117E+00
         21   -1    0    0  503  502  0.00000000000E+00  0.00000000000E+00  0.10445779471E+03  0.10445779471E+03  0.00000000000E+00 0. -1.
         21   -1    0    0  501  503 -0.00000000000E+00 -0.00000000000E+00 -0.35493446679E+03  0.35493446679E+03  0.00000000000E+00 0. -1.
          6    2    1    2  501    0  0.61693032726E+02 -0.47968096657E+02 -0.16433803890E+03  0.24969813756E+03  0.17098304093E+03 0.  0.
         24    2    3    3    0    0 -0.87218483468E+01  0.27552149946E+02 -0.88819015389E+02  0.12168729413E+03  0.77998643913E+02 0.  0.
         -6    2    1    2    0  502 -0.61693032726E+02  0.47968096657E+02 -0.86138633182E+02  0.20969412394E+03  0.17448436293E+03 0.  0.
        -24    2    5    5    0    0  0.26403864020E+02  0.44343890540E+02 -0.17807518107E+02  0.98045436653E+02  0.81438659640E+02 0.  0.
          5    1    3    3  501    0  0.70414881073E+02 -0.75520246603E+02 -0.75519023514E+02  0.12801084343E+03  0.47000000000E+01 0. -1.
        -13    1    4    4    0    0 -0.28435394449E+02 -0.11912928693E+02 -0.11961656848E+02  0.33069181454E+02  0.00000000000E+00 0.  1.
         14    1    4    4    0    0  0.19713546102E+02  0.39465078638E+02 -0.76857358541E+02  0.88618112673E+02  0.00000000000E+00 0. -1.
         -5    1    5    5    0  502 -0.88096896746E+02  0.36242061172E+01 -0.68331115076E+02  0.11164868729E+03  0.47000000000E+01 0.  1.
         11    1    6    6    0    0 -0.14440379692E+02  0.45941301058E+02 -0.28283645910E+02  0.55848834675E+02  0.00000000000E+00 0. -1.
        -12    1    6    6    0    0  0.40844243712E+02 -0.15974105179E+01  0.10476127803E+02  0.42196601978E+02  0.00000000000E+00 0.  1.
<mgrwt>
<rscale>  2 0.19038261E+03</rscale>
<asrwt>0</asrwt>
<pdfrwt beam="1">  1       21 0.16070430E-01 0.19118515E+03</pdfrwt>
<pdfrwt beam="2">  1       21 0.54605304E-01 0.19118515E+03</pdfrwt>
<totfact> 0.10960814E+05</totfact>
</mgrwt>
</event>
<event>
12    1  0.1074575E-001  0.1829574E+03  0.7546771E-02  0.1165280E+00
         21   -1    0    0  501  502  0.00000000000E+00  0.00000000000E+00  0.15371865642E+03  0.15371865642E+03  0.00000000000E+00 0.  1.
         21   -1    0    0  502  503 -0.00000000000E+00 -0.00000000000E+00 -0.42446064034E+03  0.42446064034E+03  0.00000000000E+00 0.  1.
         -6    2    1    2    0  503 -0.32617173352E+02 -0.34503615260E+02 -0.33761478364E+03  0.38338353869E+03  0.17534199767E+03 0.  0.
        -24    2    3    3    0    0 -0.39282464168E+02 -0.44383698906E+02 -0.85192268147E+02  0.13063611837E+03  0.79341339476E+02 0.  0.
          6    2    1    2  501    0  0.32617173352E+02  0.34503615260E+02  0.66872799717E+02  0.19479575806E+03  0.17668909574E+03 0.  0.
         24    2    5    5    0    0  0.58708775358E+02  0.16171979560E+01  0.99992460109E+02  0.14111810868E+03  0.80414506688E+02 0.  0.
          5    1    5    5  501    0 -0.26091602007E+02  0.32886417304E+02 -0.33119660392E+02  0.53677649379E+02  0.47000000000E+01 0. -1.
        -11    1    6    6    0    0  0.31117485041E+02 -0.38797900521E+02  0.59900385666E+02  0.77856477977E+02  0.00000000000E+00 0.  1.
         12    1    6    6    0    0  0.27591290318E+02  0.40415098477E+02  0.40092074443E+02  0.63261630705E+02  0.00000000000E+00 0. -1.
         -5    1    3    3    0  503  0.66652908164E+01  0.98800836458E+01 -0.25242251549E+03  0.25274742033E+03  0.47000000000E+01 0.  1.
         13    1    4    4    0    0 -0.24499008143E+02  0.70258075493E+01  0.48105676476E+01  0.25936555916E+02  0.00000000000E+00 0. -1.
        -14    1    4    4    0    0 -0.14783456026E+02 -0.51409506455E+02 -0.90002835795E+02  0.10469956245E+03  0.00000000000E+00 0.  1.
<mgrwt>
<rscale>  2 0.18263139E+03</rscale>
<asrwt>0</asrwt>
<pdfrwt beam="1">  1       21 0.23649024E-01 0.18295742E+03</pdfrwt>
<pdfrwt beam="2">  1       21 0.65301637E-01 0.18295742E+03</pdfrwt>
<totfact> 0.36508956E+04</totfact>
</mgrwt>
</event>
<event>
12    1  0.1074575E-001  0.2045803E+03  0.7546771E-02  0.1146520E+00
         21   -1    0    0  503  502  0.00000000000E+00  0.00000000000E+00  0.17943946562E+03  0.17943946562E+03  0.00000000000E+00 0.  1.
         21   -1    0    0  501  503 -0.00000000000E+00 -0.00000000000E+00 -0.28696427584E+03  0.28696427584E+03  0.00000000000E+00 0. -1.
          6    2    1    2  501    0  0.82077679094E+02  0.71511666947E+02 -0.15735584522E+03  0.25584208260E+03  0.16983416997E+03 0.  0.
         24    2    3    3    0    0  0.53141431745E+02  0.22229233003E+02 -0.11689372269E+02  0.99295360987E+02  0.80029848942E+02 0.  0.
         -6    2    1    2    0  502 -0.82077679094E+02 -0.71511666947E+02  0.49831035002E+02  0.21056165886E+03  0.17321205563E+03 0.  0.
        -24    2    5    5    0    0 -0.32582080567E+02 -0.61252805047E+02 -0.34362307029E+02  0.11224753289E+03  0.81272642362E+02 0.  0.
          5    1    3    3  501    0  0.28936247350E+02  0.49282433945E+02 -0.14566647296E+03  0.15654672162E+03  0.47000000000E+01 0. -1.
        -13    1    4    4    0    0 -0.16383464905E+01  0.19437132767E+01  0.28357416145E+02  0.28471130131E+02  0.00000000000E+00 0.  1.
         14    1    4    4    0    0  0.54779778235E+02  0.20285519726E+02 -0.40046788414E+02  0.70824230856E+02  0.00000000000E+00 0. -1.
         -5    1    5    5    0  502 -0.49495598528E+02 -0.10258861900E+02  0.84193342030E+02  0.98314125961E+02  0.47000000000E+01 0.  1.
         13    1    6    6    0    0 -0.57779531125E+02 -0.48738384335E+02 -0.36676959746E+02  0.84018472379E+02  0.00000000000E+00 0. -1.
        -14    1    6    6    0    0  0.25197450559E+02 -0.12514420712E+02  0.23146527174E+01  0.28229060516E+02  0.00000000000E+00 0.  1.
<mgrwt>
<rscale>  2 0.20386351E+03</rscale>
<asrwt>0</asrwt>
<pdfrwt beam="1">  1       21 0.27606071E-01 0.20458025E+03</pdfrwt>
<pdfrwt beam="2">  1       21 0.44148351E-01 0.20458025E+03</pdfrwt>
<totfact> 0.61367994E+04</totfact>
</mgrwt>
</event>
<event>
12    1  0.1074575E-001  0.2380618E+03  0.7546771E-02  0.1121178E+00
         21   -1    0    0  501  502  0.00000000000E+00  0.00000000000E+00  0.54886883279E+02  0.54886883279E+02  0.00000000000E+00 0. -1.
         21   -1    0    0  502  503 -0.00000000000E+00 -0.00000000000E+00 -0.11354073960E+04  0.11354073960E+04  0.00000000000E+00 0.  1.
         -6    2    1    2    0  503  0.16584473825E+02 -0.16268064959E+03 -0.35971874572E+03  0.43135950170E+03  0.17301273121E+03 0.  0.
        -24    2    3    3    0    0  0.44707364978E+02 -0.24541847155E+02 -0.11541072706E+03  0.14925717323E+03  0.79730904267E+02 0.  0.
          6    2    1    2  501    0 -0.16584473825E+02  0.16268064959E+03 -0.72080176701E+03  0.75893477759E+03  0.17229849327E+03 0.  0.
         24    2    5    5    0    0  0.44394151961E+01  0.86426578555E+02 -0.62009480685E+03  0.63079161903E+03  0.76754382767E+02 0.  0.
          5    1    5    5  501    0 -0.21023889021E+02  0.76254071039E+02 -0.10070696016E+03  0.12814315856E+03  0.47000000000E+01 0. -1.
        -11    1    6    6    0    0 -0.70977618885E+01  0.92950592867E+02 -0.41828294480E+03  0.42854499513E+03  0.00000000000E+00 0.  1.
         12    1    6    6    0    0  0.11537177085E+02 -0.65240143118E+01 -0.20181186205E+03  0.20224662390E+03  0.00000000000E+00 0. -1.
         -5    1    3    3    0  503 -0.28122891153E+02 -0.13813880244E+03 -0.24430801866E+03  0.28210232847E+03  0.47000000000E+01 0.  1.
         13    1    4    4    0    0  0.21385945209E+02 -0.35584641096E+02 -0.12789997886E+02  0.43442023208E+02  0.00000000000E+00 0. -1.
        -14    1    4    4    0    0  0.23321419769E+02  0.11042793941E+02 -0.10262072918E+03  0.10581515002E+03  0.00000000000E+00 0.  1.
<mgrwt>
<rscale>  2 0.23793210E+03</rscale>
<asrwt>0</asrwt>
<pdfrwt beam="1">  1       21 0.84441354E-02 0.23806185E+03</pdfrwt>
<pdfrwt beam="2">  1       21 0.17467807E+00 0.23806185E+03</pdfrwt>
<totfact> 0.20980572E+04</totfact>
</mgrwt>
</event>
<event>
12    1  0.1074575E-001  0.2280164E+03  0.7546771E-02  0.1128289E+00
         21   -1    0    0  501  502  0.00000000000E+00  0.00000000000E+00  0.20785223843E+03  0.20785223843E+03  0.00000000000E+00 0.  1.
         21   -1    0    0  502  503 -0.00000000000E+00 -0.00000000000E+00 -0.26805715072E+03  0.26805715072E+03  0.00000000000E+00 0.  1.
         -6    2    1    2    0  503  0.10438422785E+03  0.10600527564E+03 -0.94247658839E+02  0.24672674224E+03  0.17279548216E+03 0.  0.
        -24    2    3    3    0    0  0.74861576520E+02  0.14342714597E+03 -0.71565640859E+02  0.19373101355E+03  0.78958614583E+02 0.  0.
          6    2    1    2  501    0 -0.10438422785E+03 -0.10600527564E+03  0.34042746548E+02  0.22918264691E+03  0.17097541217E+03 0.  0.
         24    2    5    5    0    0 -0.11773907961E+03 -0.44805243658E+02 -0.13560778882E+02  0.15036652158E+03  0.80970336300E+02 0.  0.
          5    1    5    5  501    0  0.13354851758E+02 -0.61200031982E+02  0.47603525430E+02  0.78816125339E+02  0.47000000000E+01 0. -1.
        -11    1    6    6    0    0 -0.75175263072E+02 -0.29645671617E+02  0.31333866430E+02  0.86671778619E+02  0.00000000000E+00 0.  1.
         12    1    6    6    0    0 -0.42563816537E+02 -0.15159572041E+02 -0.44894645312E+02  0.63694742956E+02  0.00000000000E+00 0. -1.
         -5    1    3    3    0  503  0.29522651330E+02 -0.37421870333E+02 -0.22682017979E+02  0.52995728700E+02  0.47000000000E+01 0.  1.
         13    1    4    4    0    0 -0.15631043298E+02  0.37824614510E+02 -0.14806735763E+02  0.43523216809E+02  0.00000000000E+00 0. -1.
        -14    1    4    4    0    0  0.90492619818E+02  0.10560253146E+03 -0.56758905096E+02  0.15020779674E+03  0.00000000000E+00 0.  1.
<mgrwt>
<rscale>  2 0.22767154E+03</rscale>
<asrwt>0</asrwt>
<pdfrwt beam="1">  1       21 0.31977267E-01 0.22801637E+03</pdfrwt>
<pdfrwt beam="2">  1       21 0.41239562E-01 0.22801637E+03</pdfrwt>
<totfact> 0.52399606E+04</totfact>
</mgrwt>
</event>
<event>
12    1  0.1074575E-001  0.3084026E+03  0.7546771E-02  0.1081180E+00
         21   -1    0    0  501  502  0.00000000000E+00  0.00000000000E+00  0.37820827694E+03  0.37820827694E+03  0.00000000000E+00 0. -1.
         21   -1    0    0  502  503 -0.00000000000E+00 -0.00000000000E+00 -0.25307765275E+03  0.25307765275E+03  0.00000000000E+00 0.  1.
         -6    2    1    2    0  503 -0.16615465857E+03 -0.19345252083E+03  0.34160713413E+02  0.30974637471E+03  0.17246626894E+03 0.  0.
        -24    2    3    3    0    0 -0.10637439776E+03 -0.69253716309E+02 -0.36819290609E+02  0.15463585412E+03  0.80280741747E+02 0.  0.
          6    2    1    2  501    0  0.16615465857E+03  0.19345252083E+03  0.90969910772E+02  0.32153955498E+03  0.17343849738E+03 0.  0.
         24    2    5    5    0    0  0.61276842247E+02  0.14352371206E+03  0.25203422011E+01  0.17546540093E+03  0.80173857824E+02 0.  0.
          5    1    5    5  501    0  0.10487781632E+03  0.49928808764E+02  0.88449568571E+02  0.14607415405E+03  0.47000000000E+01 0. -1.
        -11    1    6    6    0    0  0.27304036017E+02  0.11741194662E+03  0.30433336518E+02  0.12432724385E+03  0.00000000000E+00 0.  1.
         12    1    6    6    0    0  0.33972806230E+02  0.26111765444E+02 -0.27912994317E+02  0.51138157080E+02  0.00000000000E+00 0. -1.
         -5    1    3    3    0  503 -0.59780260807E+02 -0.12419880452E+03  0.70980004023E+02  0.15511052059E+03  0.47000000000E+01 0.  1.
         13    1    4    4    0    0 -0.81431144549E+01  0.16390632319E+02  0.25882906558E+01  0.18484111809E+02  0.00000000000E+00 0. -1.
        -14    1    4    4    0    0 -0.98231283309E+02 -0.85644348628E+02 -0.39407581265E+02  0.13615174231E+03  0.00000000000E+00 0.  1.
<mgrwt>
<rscale>  2 0.30826608E+03</rscale>
<asrwt>0</asrwt>
<pdfrwt beam="1">  1       21 0.58185888E-01 0.30840260E+03</pdfrwt>
<pdfrwt beam="2">  1       21 0.38935024E-01 0.30840260E+03</pdfrwt>
<totfact> 0.16604339E+04</totfact>
</mgrwt>
</event>
<event>
12    1  0.1074575E-001  0.1924886E+03  0.7546771E-02  0.1156541E+00
         21   -1    0    0  501  502  0.00000000000E+00  0.00000000000E+00  0.45057516920E+02  0.45057516920E+02  0.00000000000E+00 0. -1.
         21   -1    0    0  502  503 -0.00000000000E+00 -0.00000000000E+00 -0.11819397082E+04  0.11819397082E+04  0.00000000000E+00 0.  1.
         -6    2    1    2    0  503  0.81202136482E+02 -0.47879944018E+01 -0.90817954150E+03  0.92807122745E+03  0.17294337733E+03 0.  0.
        -24    2    3    3    0    0  0.38235444220E+02  0.64010357837E+02 -0.49601284572E+03  0.50797263780E+03  0.80300576155E+02 0.  0.
          6    2    1    2  501    0 -0.81202136482E+02  0.47879944018E+01 -0.22870264976E+03  0.29892599765E+03  0.17445669435E+03 0.  0.
         24    2    5    5    0    0 -0.63451519168E+02  0.55530374764E+02 -0.81678936199E+02  0.14231202660E+03  0.80445922762E+02 0.  0.
          5    1    5    5  501    0 -0.17750617314E+02 -0.50742380362E+02 -0.14702371356E+03  0.15661397105E+03  0.47000000000E+01 0. -1.
        -13    1    6    6    0    0 -0.42184349073E+02  0.48414054235E+02 -0.96150734509E+02  0.11562181326E+03  0.00000000000E+00 0.  1.
         14    1    6    6    0    0 -0.21267170095E+02  0.71163205294E+01  0.14471798311E+02  0.26690213339E+02  0.00000000000E+00 0. -1.
         -5    1    3    3    0  503  0.42966692262E+02 -0.68798352239E+02 -0.41216669578E+03  0.42009858965E+03  0.47000000000E+01 0.  1.
         11    1    4    4    0    0  0.62067522202E+02  0.55527895601E+02 -0.34898003432E+03  0.35877958255E+03  0.00000000000E+00 0. -1.
        -12    1    4    4    0    0 -0.23832077982E+02  0.84824622361E+01 -0.14703281140E+03  0.14919305525E+03  0.00000000000E+00 0.  1.
<mgrwt>
<rscale>  2 0.19214503E+03</rscale>
<asrwt>0</asrwt>
<pdfrwt beam="1">  1       21 0.69319258E-02 0.19248857E+03</pdfrwt>
<pdfrwt beam="2">  1       21 0.18183687E+00 0.19248857E+03</pdfrwt>
<totfact> 0.27204925E+04</totfact>
</mgrwt>
</event>
<event>
12    1  0.1074575E-001  0.1772683E+03  0.7546771E-02  0.1170515E+00
         21   -1    0    0  503  502  0.00000000000E+00  0.00000000000E+00  0.26827079155E+03  0.26827079155E+03  0.00000000000E+00 0.  1.
         21   -1    0    0  501  503 -0.00000000000E+00 -0.00000000000E+00 -0.11711282830E+03  0.11711282830E+03  0.00000000000E+00 0.  1.
          6    2    1    2  501    0 -0.26814451115E+02  0.26508676668E+02  0.70274929968E+02  0.19068988847E+03  0.17321184444E+03 0.  0.
         24    2    3    3    0    0  0.12589510503E+02  0.74971831810E+02  0.61900687521E+02  0.12749520883E+03  0.81511114703E+02 0.  0.
         -6    2    1    2    0  502  0.26814451115E+02 -0.26508676668E+02  0.80883033288E+02  0.19469373138E+03  0.17303716144E+03 0.  0.
        -24    2    5    5    0    0 -0.73979544628E+01 -0.68731216252E+02  0.67673422123E+01  0.10266951061E+03  0.75607682620E+02 0.  0.
          5    1    3    3  501    0 -0.39403961618E+02 -0.48463155143E+02  0.83742424470E+01  0.63194679635E+02  0.47000000000E+01 0. -1.
        -13    1    4    4    0    0 -0.80295938726E+01  0.10443597307E+02 -0.18277711381E+02  0.22530375847E+02  0.00000000000E+00 0.  1.
         14    1    4    4    0    0  0.20619104376E+02  0.64528234503E+02  0.80178398902E+02  0.10496483299E+03  0.00000000000E+00 0. -1.
         -5    1    5    5    0  502  0.34212405578E+02  0.42222539585E+02  0.74115691076E+02  0.92024220768E+02  0.47000000000E+01 0.  1.
         11    1    6    6    0    0 -0.22678864424E+02 -0.49955872590E+02 -0.26979744694E+02  0.61137768372E+02  0.00000000000E+00 0. -1.
        -12    1    6    6    0    0  0.15280909961E+02 -0.18775343663E+02  0.33747086907E+02  0.41531742241E+02  0.00000000000E+00 0.  1.
<mgrwt>
<rscale>  2 0.17722566E+03</rscale>
<asrwt>0</asrwt>
<pdfrwt beam="1">  1       21 0.41272429E-01 0.17726835E+03</pdfrwt>
<pdfrwt beam="2">  1       21 0.18017358E-01 0.17726835E+03</pdfrwt>
<totfact> 0.15921362E+05</totfact>
</mgrwt>
</event>
<event>
12    1  0.1074575E-001  0.2204788E+03  0.7546771E-02  0.1133554E+00
         21   -1    0    0  501  502  0.00000000000E+00  0.00000000000E+00  0.12990990685E+04  0.12990990685E+04  0.00000000000E+00 0. -1.
         21   -1    0    0  502  503 -0.00000000000E+00 -0.00000000000E+00 -0.95162524402E+02  0.95162524402E+02  0.00000000000E+00 0.  1.
         -6    2    1    2    0  503 -0.10894823226E+03 -0.82281215473E+02  0.58727183989E+02  0.22802173861E+03  0.17293095561E+03 0.  0.
        -24    2    3    3    0    0 -0.98044378387E+01 -0.26097352394E+01 -0.18099829459E+02  0.79355949910E+02  0.76595203768E+02 0.  0.
          6    2    1    2  501    0  0.10894823226E+03  0.82281215473E+02  0.11452093601E+04  0.11662398543E+04  0.17312135490E+03 0.  0.
         24    2    5    5    0    0  0.13745864645E+03  0.72243438288E+02  0.76127937063E+03  0.78109322311E+03  0.80289159813E+02 0.  0.
          5    1    5    5  501    0 -0.28510414186E+02  0.10037777185E+02  0.38392998949E+03  0.38514663120E+03  0.47000000000E+01 0. -1.
        -13    1    6    6    0    0  0.60942039108E+02  0.66803905482E+01  0.44359839853E+03  0.44781480428E+03  0.00000000000E+00 0.  1.
         14    1    6    6    0    0  0.76516607338E+02  0.65563047740E+02  0.31768097209E+03  0.33327841883E+03  0.00000000000E+00 0. -1.
         -5    1    3    3    0  503 -0.99143794422E+02 -0.79671480233E+02  0.76827013448E+02  0.14866578870E+03  0.47000000000E+01 0.  1.
         11    1    4    4    0    0 -0.12281881891E+02 -0.20426203325E+02 -0.42687654501E+02  0.48890799256E+02  0.00000000000E+00 0. -1.
        -12    1    4    4    0    0  0.24774440526E+01  0.17816468086E+02  0.24587825042E+02  0.30465150654E+02  0.00000000000E+00 0.  1.
<mgrwt>
<rscale>  2 0.22044146E+03</rscale>
<asrwt>0</asrwt>
<pdfrwt beam="1">  1       21 0.19986138E+00 0.22047884E+03</pdfrwt>
<pdfrwt beam="2">  1       21 0.14640389E-01 0.22047884E+03</pdfrwt>
<totfact> 0.53830368E+03</totfact>
</mgrwt>
</event>
<event>
12    1  0.1074575E-001  0.1872938E+03  0.7546771E-02  0.1161159E+00
         21   -1    0    0  501  502  0.00000000000E+00  0.00000000000E+00  0.10244364697E+03  0.10244364697E+03  0.00000000000E+00 0.  1.
         21   -1    0    0  502  503 -0.00000000000E+00 -0.00000000000E+00 -0.14007868302E+04  0.14007868302E+04  0.00000000000E+00 0.  1.
         -6    2    1    2    0  503  0.35643535503E+02  0.61957344964E+02 -0.13026357920E+04  0.13158874757E+04  0.17201938200E+03 0.  0.
        -24    2    3    3    0    0  0.24431817625E+02  0.10138028234E+03 -0.11426665111E+04  0.11506841723E+04  0.86674295140E+02 0.  0.
          6    2    1    2  501    0 -0.35643535503E+02 -0.61957344964E+02  0.42926088021E+01  0.18734300147E+03  0.17311787745E+03 0.  0.
         24    2    5    5    0    0 -0.42696217117E+02 -0.35642221399E+02  0.67776649375E+02  0.11810038848E+03  0.79124538902E+02 0.  0.
          5    1    5    5  501    0  0.70526816144E+01 -0.26315123564E+02 -0.63484040573E+02  0.69242612989E+02  0.47000000000E+01 0. -1.
        -13    1    6    6    0    0 -0.32603756658E+02  0.19151186913E+02  0.42600245003E+02  0.56960984741E+02  0.00000000000E+00 0.  1.
         14    1    6    6    0    0 -0.10092460459E+02 -0.54793408312E+02  0.25176404372E+02  0.61139403740E+02  0.00000000000E+00 0. -1.
         -5    1    3    3    0  503  0.11211717878E+02 -0.39422937372E+02 -0.15996928088E+03  0.16520330334E+03  0.47000000000E+01 0.  1.
         11    1    4    4    0    0 -0.18855220310E+02  0.25795690998E+02 -0.11571390638E+03  0.12004434654E+03  0.00000000000E+00 0. -1.
        -12    1    4    4    0    0  0.43287037934E+02  0.75584591338E+02 -0.10269526048E+04  0.10306398258E+04  0.00000000000E+00 0.  1.
<mgrwt>
<rscale>  2 0.18703958E+03</rscale>
<asrwt>0</asrwt>
<pdfrwt beam="1">  1       21 0.15760562E-01 0.18729382E+03</pdfrwt>
<pdfrwt beam="2">  1       21 0.21550566E+00 0.18729382E+03</pdfrwt>
<totfact> 0.38640367E+03</totfact>
</mgrwt>
</event>
<event>
12    1  0.1074575E-001  0.1771951E+03  0.7546771E-02  0.1170697E+00
         21   -1    0    0  503  502  0.00000000000E+00  0.00000000000E+00  0.94505568352E+03  0.94505568352E+03  0.00000000000E+00 0. -1.
         21   -1    0    0  501  503 -0.00000000000E+00 -0.00000000000E+00 -0.40180950546E+02  0.40180950546E+02  0.00000000000E+00 0. -1.
          6    2    1    2  501    0 -0.17770247258E+02  0.30426635890E+02  0.24641171427E+03  0.30350755628E+03  0.17365639041E+03 0.  0.
         24    2    3    3    0    0 -0.13345575497E+01 -0.44638465296E+02  0.17646197222E+03  0.19948853049E+03  0.81623970324E+02 0.  0.
         -6    2    1    2    0  502  0.17770247258E+02 -0.30426635890E+02  0.65846301871E+03  0.68172907779E+03  0.17303013217E+03 0.  0.
        -24    2    5    5    0    0  0.48564719769E+01  0.29343832401E+02  0.55353998170E+03  0.56019633255E+03  0.80800828185E+02 0.  0.
          5    1    3    3  501    0 -0.16435689708E+02  0.75065101187E+02  0.69949742051E+02  0.10401902579E+03  0.47000000000E+01 0. -1.
        -13    1    4    4    0    0 -0.32417222528E+02 -0.10688496754E+02  0.12872805750E+03  0.13317669867E+03  0.00000000000E+00 0.  1.
         14    1    4    4    0    0  0.31082664979E+02 -0.33949968542E+02  0.47733914717E+02  0.66311831828E+02  0.00000000000E+00 0. -1.
         -5    1    5    5    0  502  0.12913775281E+02 -0.59770468292E+02  0.10492303700E+03  0.12153274524E+03  0.47000000000E+01 0.  1.
         13    1    6    6    0    0  0.18650713192E+02  0.47193088220E+02  0.21506917117E+03  0.22097462539E+03  0.00000000000E+00 0. -1.
        -14    1    6    6    0    0 -0.13794241215E+02 -0.17849255818E+02  0.33847081054E+03  0.33922170716E+03  0.00000000000E+00 0.  1.
<mgrwt>
<rscale>  2 0.17704147E+03</rscale>
<asrwt>0</asrwt>
<pdfrwt beam="1">  1       21 0.14539316E+00 0.17719510E+03</pdfrwt>
<pdfrwt beam="2">  1       21 0.61816854E-02 0.17719510E+03</pdfrwt>
<totfact> 0.61273950E+04</totfact>
</mgrwt>
</event>
<event>
12    1  0.1074575E-001  0.1782256E+03  0.7546771E-02  0.1170258E+00
         21   -1    0    0  503  502  0.00000000000E+00  0.00000000000E+00  0.19926344153E+03  0.19926344153E+03  0.00000000000E+00 0.  1.
         21   -1    0    0  501  503 -0.00000000000E+00 -0.00000000000E+00 -0.18792051551E+03  0.18792051551E+03  0.00000000000E+00 0.  1.
          6    2    1    2  501    0 -0.24176722105E+02  0.38148483778E+02 -0.73156572597E+02  0.18994162797E+03  0.16936976477E+03 0.  0.
         24    2    3    3    0    0  0.21732618662E+01  0.79926608325E+01 -0.10886149887E+03  0.13608415799E+03  0.81237100055E+02 0.  0.
         -6    2    1    2    0  502  0.24176722105E+02 -0.38148483778E+02  0.84499498615E+02  0.19724232906E+03  0.17240809262E+03 0.  0.
        -24    2    5    5    0    0 -0.24931406873E-01  0.44261970431E+01  0.11388261884E+03  0.13993804271E+03  0.81202297279E+02 0.  0.
          5    1    3    3  501    0 -0.26349983971E+02  0.30155822946E+02  0.35704926274E+02  0.53857469983E+02  0.47000000000E+01 0. -1.
        -11    1    4    4    0    0  0.33638433899E+02 -0.20345927402E+02 -0.52437401130E+02  0.65537638303E+02  0.00000000000E+00 0.  1.
         12    1    4    4    0    0 -0.31465172033E+02  0.28338588234E+02 -0.56424097741E+02  0.70546519688E+02  0.00000000000E+00 0. -1.
         -5    1    5    5    0  502  0.24201653512E+02 -0.42574680821E+02 -0.29383120221E+02  0.57304286346E+02  0.47000000000E+01 0.  1.
         11    1    6    6    0    0  0.49771385007E+01 -0.55129298378E+01 -0.11702766509E+02  0.13860701534E+02  0.00000000000E+00 0. -1.
        -12    1    6    6    0    0 -0.50020699076E+01  0.99391268810E+01  0.12558538534E+03  0.12607734118E+03  0.00000000000E+00 0.  1.
<mgrwt>
<rscale>  2 0.17748667E+03</rscale>
<asrwt>0</asrwt>
<pdfrwt beam="1">  1       21 0.30655914E-01 0.17822562E+03</pdfrwt>
<pdfrwt beam="2">  1       21 0.28910848E-01 0.17822562E+03</pdfrwt>
<totfact> 0.11757952E+05</totfact>
</mgrwt>
</event>
<event>
12    1  0.1074575E-001  0.1725800E+03  0.7546771E-02  0.1176278E+00
         21   -1    0    0  501  502  0.00000000000E+00  0.00000000000E+00  0.11895780109E+03  0.11895780109E+03  0.00000000000E+00 0.  1.
         21   -1    0    0  502  503 -0.00000000000E+00 -0.00000000000E+00 -0.10335939662E+04  0.10335939662E+04  0.00000000000E+00 0.  1.
         -6    2    1    2    0  503 -0.33460269516E+01 -0.11588589512E+02 -0.95956275247E+03  0.97421987281E+03  0.16792317691E+03 0.  0.
        -24    2    3    3    0    0  0.34653261770E+02  0.24410497786E+02 -0.32744920445E+03  0.33992537668E+03  0.80805688302E+02 0.  0.
          6    2    1    2  501    0  0.33460269516E+01  0.11588589512E+02  0.44926587377E+02  0.17833189447E+03  0.17215799438E+03 0.  0.
         24    2    5    5    0    0 -0.42118341543E+02  0.24116937009E+02 -0.22211002900E+02  0.96152126142E+02  0.79977005237E+02 0.  0.
          5    1    5    5  501    0  0.45464368495E+02 -0.12528347498E+02  0.67137590277E+02  0.82179768324E+02  0.47000000000E+01 0. -1.
        -11    1    6    6    0    0 -0.33937073447E+02 -0.21432818016E+02  0.79426034875E+01  0.40916690878E+02  0.00000000000E+00 0.  1.
         12    1    6    6    0    0 -0.81812680960E+01  0.45549755026E+02 -0.30153606388E+02  0.55235435264E+02  0.00000000000E+00 0. -1.
         -5    1    3    3    0  503 -0.37999288722E+02 -0.35999087298E+02 -0.63211354802E+03  0.63429449613E+03  0.47000000000E+01 0.  1.
         13    1    4    4    0    0  0.50820703322E+02 -0.10171107208E+02 -0.16021672351E+03  0.16839119277E+03  0.00000000000E+00 0. -1.
        -14    1    4    4    0    0 -0.16167441552E+02  0.34581604994E+02 -0.16723248094E+03  0.17153418392E+03  0.00000000000E+00 0.  1.
<mgrwt>
<rscale>  2 0.17151414E+03</rscale>
<asrwt>0</asrwt>
<pdfrwt beam="1">  1       21 0.18301200E-01 0.17258003E+03</pdfrwt>
<pdfrwt beam="2">  1       21 0.15901446E+00 0.17258003E+03</pdfrwt>
<totfact> 0.70866314E+03</totfact>
</mgrwt>
</event>
<event>
11    1  0.1074575E-001  0.2122992E+03  0.7546771E-02  0.1142707E+00
         21   -1    0    0  501  502  0.00000000000E+00  0.00000000000E+00  0.22008136485E+02  0.22008136485E+02  0.00000000000E+00 0.  1.
         21   -1    0    0  502  503 -0.00000000000E+00 -0.00000000000E+00 -0.19104786134E+04  0.19104786134E+04  0.00000000000E+00 0. -1.
         -6    2    1    2    0  503  0.85077867353E+02 -0.45097875955E+02 -0.99246520284E+03  0.10149177886E+04  0.18920591130E+03 0.  0.
          6    2    1    2  501    0 -0.85077867353E+02  0.45097875955E+02 -0.89600527404E+03  0.91756896123E+03  0.17272893673E+03 0.  0.
         24    2    4    4    0    0 -0.95847224202E+02  0.54348515101E+01 -0.38576645917E+03  0.40565600695E+03  0.80776277229E+02 0.  0.
          5    1    4    4  501    0  0.10769356849E+02  0.39663024445E+02 -0.51023881487E+03  0.51191295428E+03  0.47000000000E+01 0. -1.
        -11    1    5    5    0    0  0.31201619826E+00 -0.23865455849E+02 -0.96981599294E+02  0.99875362020E+02  0.00000000000E+00 0.  1.
         12    1    5    5    0    0 -0.96159240400E+02  0.29300307359E+02 -0.28878485987E+03  0.30578064494E+03  0.00000000000E+00 0. -1.
         -5    1    3    3    0  503  0.24523176890E+02  0.56171767991E+02 -0.58073868385E+03  0.58398301572E+03  0.47000000000E+01 0.  1.
         13    1    3    3    0    0  0.51488942652E+02 -0.97403667740E+02 -0.40294023461E+03  0.41773127531E+03  0.00000000000E+00 0. -1.
        -14    1    3    3    0    0  0.90657478115E+01 -0.38659762065E+01 -0.87862843824E+01  0.13203497592E+02  0.00000000000E+00 0.  1.
<mgrwt>
<rscale>  2 0.20856600E+03</rscale>
<asrwt>0</asrwt>
<pdfrwt beam="1">  1       21 0.33858666E-02 0.21229917E+03</pdfrwt>
<pdfrwt beam="2">  1       21 0.29391983E+00 0.21229917E+03</pdfrwt>
<totfact> 0.18796482E+04</totfact>
</mgrwt>
</event>
<event>
12    1  0.1074575E-001  0.1745978E+03  0.7546771E-02  0.1173383E+00
         21   -1    0    0  501  502  0.00000000000E+00  0.00000000000E+00  0.24339523417E+03  0.24339523417E+03  0.00000000000E+00 0.  1.
         21   -1    0    0  502  503 -0.00000000000E+00 -0.00000000000E+00 -0.40051120246E+03  0.40051120246E+03  0.00000000000E+00 0.  1.
         -6    2    1    2    0  503  0.23025510884E+02 -0.73586835609E+00 -0.34573537815E+03  0.38688174956E+03  0.17208666650E+03 0.  0.
        -24    2    3    3    0    0 -0.51327488672E+02  0.14155114338E+02 -0.19226387198E+03  0.21563425874E+03  0.81840446710E+02 0.  0.
          6    2    1    2  501    0 -0.23025510884E+02  0.73586835609E+00  0.18861940986E+03  0.25702468707E+03  0.17307135041E+03 0.  0.
         24    2    5    5    0    0 -0.97515151850E+01 -0.51736489619E+02  0.17558151996E+03  0.20115319267E+03  0.82837071191E+02 0.  0.
          5    1    5    5  501    0 -0.13273995699E+02  0.52472357975E+02  0.13037889903E+02  0.55871494399E+02  0.47000000000E+01 0. -1.
        -11    1    6    6    0    0 -0.99182657930E+00 -0.24872104429E+02  0.16555529409E+01  0.24946866622E+02  0.00000000000E+00 0.  1.
         12    1    6    6    0    0 -0.87596886057E+01 -0.26864385190E+02  0.17392596702E+03  0.17620632605E+03  0.00000000000E+00 0. -1.
         -5    1    3    3    0  503  0.74352999555E+02 -0.14890982694E+02 -0.15347150616E+03  0.17124749082E+03  0.47000000000E+01 0.  1.
         11    1    4    4    0    0 -0.35192013023E+02 -0.26875885420E+02 -0.50459521884E+02  0.67133853952E+02  0.00000000000E+00 0. -1.
        -12    1    4    4    0    0 -0.16135475649E+02  0.41030999757E+02 -0.14180435010E+03  0.14850040479E+03  0.00000000000E+00 0.  1.
<mgrwt>
<rscale>  2 0.17435333E+03</rscale>
<asrwt>0</asrwt>
<pdfrwt beam="1">  1       21 0.37445421E-01 0.17459785E+03</pdfrwt>
<pdfrwt beam="2">  1       21 0.61617108E-01 0.17459785E+03</pdfrwt>
<totfact> 0.17023432E+04</totfact>
</mgrwt>
</event>
<event>
12    1  0.1074575E-001  0.1999414E+03  0.7546771E-02  0.1149897E+00
         21   -1    0    0  503  502  0.00000000000E+00  0.00000000000E+00  0.31166382377E+03  0.31166382377E+03  0.00000000000E+00 0. -1.
         21   -1    0    0  501  503 -0.00000000000E+00 -0.00000000000E+00 -0.21229094278E+03  0.21229094278E+03  0.00000000000E+00 0. -1.
          6    2    1    2  501    0 -0.62477019938E+02 -0.76840778429E+02  0.21486113680E+03  0.29349938159E+03  0.17369138043E+03 0.  0.
         24    2    3    3    0    0  0.11078352359E+02 -0.85319532105E+02  0.15856002848E+03  0.20036406683E+03  0.87191308026E+02 0.  0.
         -6    2    1    2    0  502  0.62477019938E+02  0.76840778429E+02 -0.11548825581E+03  0.23045538496E+03  0.17310188900E+03 0.  0.
        -24    2    5    5    0    0 -0.15614094401E+02 -0.47832642604E+01 -0.72624464243E+02  0.10954177484E+03  0.80364221320E+02 0.  0.
          5    1    3    3  501    0 -0.73555372296E+02  0.84787536757E+01  0.56301108326E+02  0.93135314764E+02  0.47000000000E+01 0. -1.
        -11    1    4    4    0    0  0.12873337477E+02 -0.74052599518E+02  0.16896125786E+03  0.18492543625E+03  0.00000000000E+00 0.  1.
         12    1    4    4    0    0 -0.17949851181E+01 -0.11266932587E+02 -0.10401229384E+02  0.15438630580E+02  0.00000000000E+00 0. -1.
         -5    1    5    5    0  502  0.78091114338E+02  0.81624042689E+02 -0.42863791562E+02  0.12091361011E+03  0.47000000000E+01 0.  1.
         13    1    6    6    0    0  0.22949626009E+02 -0.27090566708E+02 -0.44205765177E+02  0.56698622676E+02  0.00000000000E+00 0. -1.
        -14    1    6    6    0    0 -0.38563720410E+02  0.22307302448E+02 -0.28418699067E+02  0.52843152167E+02  0.00000000000E+00 0.  1.
<mgrwt>
<rscale>  2 0.19981334E+03</rscale>
<asrwt>0</asrwt>
<pdfrwt beam="1">  1       21 0.47948281E-01 0.19994144E+03</pdfrwt>
<pdfrwt beam="2">  1       21 0.32660145E-01 0.19994144E+03</pdfrwt>
<totfact> 0.37365933E+04</totfact>
</mgrwt>
</event>
<event>
12    1  0.1074575E-001  0.2037001E+03  0.7546771E-02  0.1146779E+00
         21   -1    0    0  501  502  0.00000000000E+00  0.00000000000E+00  0.21339699679E+03  0.21339699679E+03  0.00000000000E+00 0. -1.
         21   -1    0    0  502  503 -0.00000000000E+00 -0.00000000000E+00 -0.34411430682E+03  0.34411430682E+03  0.00000000000E+00 0. -1.
         -6    2    1    2    0  503 -0.75412650568E+02  0.76340345680E+02 -0.24960772063E+03  0.32217655766E+03  0.17314388198E+03 0.  0.
        -24    2    3    3    0    0 -0.33735095390E+02  0.11532830723E+03 -0.15557534410E+03  0.21207997467E+03  0.79596186176E+02 0.  0.
          6    2    1    2  501    0  0.75412650568E+02 -0.76340345680E+02  0.11889041060E+03  0.23533474595E+03  0.17243142600E+03 0.  0.
         24    2    5    5    0    0  0.26224058559E+02 -0.96626264277E+02  0.12772777890E+03  0.18119395582E+03  0.80576224327E+02 0.  0.
          5    1    5    5  501    0  0.49188592009E+02  0.20285918598E+02 -0.88373683000E+01  0.54140790128E+02  0.47000000000E+01 0. -1.
        -13    1    6    6    0    0  0.21107833146E+02 -0.11020914902E+03  0.10194289909E+03  0.15160459037E+03  0.00000000000E+00 0.  1.
         14    1    6    6    0    0  0.51162254133E+01  0.13582884744E+02  0.25784879811E+02  0.29589365443E+02  0.00000000000E+00 0. -1.
         -5    1    3    3    0  503 -0.41677555179E+02 -0.38987961551E+02 -0.94032376527E+02  0.11009658299E+03  0.47000000000E+01 0.  1.
         11    1    4    4    0    0  0.25395424376E+02  0.22544078631E+02 -0.40888783525E+02  0.53151252842E+02  0.00000000000E+00 0. -1.
        -12    1    4    4    0    0 -0.59130519766E+02  0.92784228600E+02 -0.11468656058E+03  0.15892872183E+03  0.00000000000E+00 0.  1.
<mgrwt>
<rscale>  2 0.20354860E+03</rscale>
<asrwt>0</asrwt>
<pdfrwt beam="1">  1       21 0.32830307E-01 0.20370007E+03</pdfrwt>
<pdfrwt beam="2">  1       21 0.52940662E-01 0.20370007E+03</pdfrwt>
<totfact> 0.30008751E+04</totfact>
</mgrwt>
</event>
<event>
12    1  0.1074575E-001  0.2496736E+03  0.7546771E-02  0.1113530E+00
         21   -1    0    0  501  502  0.00000000000E+00  0.00000000000E+00  0.14344276246E+04  0.14344276246E+04  0.00000000000E+00 0. -1.
         21   -1    0    0  502  503 -0.00000000000E+00 -0.00000000000E+00 -0.11168758025E+03  0.11168758025E+03  0.00000000000E+00 0. -1.
         -6    2    1    2    0  503 -0.33230207567E+02 -0.17683912179E+03  0.57116960977E+02  0.25612352911E+03  0.17309128585E+03 0.  0.
        -24    2    3    3    0    0 -0.11141969019E+02 -0.11631542636E+03 -0.28699564058E+02  0.14871042953E+03  0.87393964273E+02 0.  0.
          6    2    1    2  501    0  0.33230207567E+02  0.17683912179E+03  0.12656230834E+04  0.12899916757E+04  0.17291735786E+03 0.  0.
         24    2    5    5    0    0 -0.33617307788E+02  0.68618886556E+02  0.40561789710E+03  0.42061763655E+03  0.80960748220E+02 0.  0.
          5    1    5    5  501    0  0.66847515355E+02  0.10822023524E+03  0.86000518626E+03  0.86937403919E+03  0.47000000000E+01 0. -1.
        -13    1    6    6    0    0 -0.50610858354E+02  0.36126039423E+02  0.33823946505E+03  0.34390766991E+03  0.00000000000E+00 0.  1.
         14    1    6    6    0    0  0.16993550566E+02  0.32492847133E+02  0.67378432051E+02  0.76709966636E+02  0.00000000000E+00 0. -1.
         -5    1    3    3    0  503 -0.22088238549E+02 -0.60523695435E+02  0.85816525035E+02  0.10741309958E+03  0.47000000000E+01 0.  1.
         13    1    4    4    0    0  0.52593692232E+01 -0.55790173780E+02  0.29349923012E+02  0.63258378385E+02  0.00000000000E+00 0. -1.
        -14    1    4    4    0    0 -0.16401338242E+02 -0.60525252580E+02 -0.58049487070E+02  0.85452051146E+02  0.00000000000E+00 0.  1.
<mgrwt>
<rscale>  2 0.24964347E+03</rscale>
<asrwt>0</asrwt>
<pdfrwt beam="1">  1       21 0.22068116E+00 0.24967362E+03</pdfrwt>
<pdfrwt beam="2">  1       21 0.17182706E-01 0.24967362E+03</pdfrwt>
<totfact> 0.28914836E+03</totfact>
</mgrwt>
</event>
<event>
12    1  0.1074575E-001  0.2177362E+03  0.7546771E-02  0.1135729E+00
         21   -1    0    0  503  502  0.00000000000E+00  0.00000000000E+00  0.73892801538E+03  0.73892801538E+03  0.00000000000E+00 0.  1.
         21   -1    0    0  501  503 -0.00000000000E+00 -0.00000000000E+00 -0.13509909965E+03  0.13509909965E+03  0.00000000000E+00 0. -1.
          6    2    1    2  501    0  0.62688187437E+02  0.11793107884E+03 -0.15015364137E+02  0.21825335745E+03  0.17196371326E+03 0.  0.
         24    2    3    3    0    0  0.18489732150E+02  0.75570951334E+01 -0.47872385381E+02  0.94812709473E+02  0.79364379376E+02 0.  0.
         -6    2    1    2    0  502 -0.62688187437E+02 -0.11793107884E+03  0.61884427987E+03  0.65577375758E+03  0.17097786465E+03 0.  0.
        -24    2    5    5    0    0 -0.55967469223E+02 -0.32648421544E+02  0.16980350656E+03  0.19863263518E+03  0.80146215627E+02 0.  0.
          5    1    3    3  501    0  0.44198455287E+02  0.11037398370E+03  0.32857021244E+02  0.12344064798E+03  0.47000000000E+01 0. -1.
        -13    1    4    4    0    0  0.37020978118E+02 -0.21371036960E+02 -0.10436158534E+02  0.44002130023E+02  0.00000000000E+00 0.  1.
         14    1    4    4    0    0 -0.18531245969E+02  0.28928132093E+02 -0.37436226847E+02  0.50810579450E+02  0.00000000000E+00 0. -1.
         -5    1    5    5    0  502 -0.67207182139E+01 -0.85282657293E+02  0.44904077332E+03  0.45714112240E+03  0.47000000000E+01 0.  1.
         11    1    6    6    0    0 -0.70704633417E+01  0.25107444131E+02  0.58365691246E+02  0.63929094451E+02  0.00000000000E+00 0. -1.
        -12    1    6    6    0    0 -0.48897005881E+02 -0.57755865675E+02  0.11143781531E+03  0.13470354073E+03  0.00000000000E+00 0.  1.
<mgrwt>
<rscale>  2 0.21754153E+03</rscale>
<asrwt>0</asrwt>
<pdfrwt beam="1">  1       21 0.11368123E+00 0.21773623E+03</pdfrwt>
<pdfrwt beam="2">  1       21 0.20784477E-01 0.21773623E+03</pdfrwt>
<totfact> 0.12736274E+04</totfact>
</mgrwt>
</event>
<event>
12    1  0.1074575E-001  0.2123304E+03  0.7546771E-02  0.1139768E+00
         21   -1    0    0  503  502  0.00000000000E+00  0.00000000000E+00  0.52300108424E+02  0.52300108424E+02  0.00000000000E+00 0.  1.
         21   -1    0    0  501  503 -0.00000000000E+00 -0.00000000000E+00 -0.14755032941E+04  0.14755032941E+04  0.00000000000E+00 0.  1.
          6    2    1    2  501    0  0.10762671675E+03  0.62268955047E+02 -0.12046315484E+04  0.12232012788E+04  0.17211411364E+03 0.  0.
         24    2    3    3    0    0  0.66076559184E+02  0.11470901080E+02 -0.10421668548E+04  0.10479194356E+04  0.86750775505E+02 0.  0.
         -6    2    1    2    0  502 -0.10762671675E+03 -0.62268955047E+02 -0.21857163723E+03  0.30460212368E+03  0.17189520131E+03 0.  0.
        -24    2    5    5    0    0 -0.23552494941E+02 -0.45482864522E+02 -0.19284787546E+03  0.21496926405E+03  0.79987939299E+02 0.  0.
          5    1    3    3  501    0  0.41550157561E+02  0.50798053967E+02 -0.16246469359E+03  0.17528184317E+03  0.47000000000E+01 0. -1.
        -13    1    4    4    0    0 -0.20679598400E+02 -0.16879838843E+01 -0.14601088487E+03  0.14747770536E+03  0.00000000000E+00 0.  1.
         14    1    4    4    0    0  0.86756157584E+02  0.13158884964E+02 -0.89615596994E+03  0.90044173026E+03  0.00000000000E+00 0. -1.
         -5    1    5    5    0  502 -0.84074221805E+02 -0.16786090525E+02 -0.25723761771E+02  0.89632859638E+02  0.47000000000E+01 0.  1.
         11    1    6    6    0    0 -0.28372636247E+02  0.75726955862E+01 -0.12658383485E+03  0.12994544798E+03  0.00000000000E+00 0. -1.
        -12    1    6    6    0    0  0.48201413061E+01 -0.53055560109E+02 -0.66264040612E+02  0.85023816068E+02  0.00000000000E+00 0.  1.
<mgrwt>
<rscale>  2 0.21228604E+03</rscale>
<asrwt>0</asrwt>
<pdfrwt beam="1">  1       21 0.80461724E-02 0.21233041E+03</pdfrwt>
<pdfrwt beam="2">  1       21 0.22700045E+00 0.21233041E+03</pdfrwt>
<totfact> 0.10649690E+04</totfact>
</mgrwt>
</event>
<event>
12    1  0.1074575E-001  0.2305942E+03  0.7546771E-02  0.1126496E+00
         21   -1    0    0  503  502  0.00000000000E+00  0.00000000000E+00  0.78864880695E+02  0.78864880695E+02  0.00000000000E+00 0. -1.
         21   -1    0    0  501  503 -0.00000000000E+00 -0.00000000000E+00 -0.96463856412E+03  0.96463856412E+03  0.00000000000E+00 0.  1.
          6    2    1    2  501    0 -0.15115804838E+02  0.15232485737E+03 -0.73034748231E+03  0.76541894450E+03  0.17037419390E+03 0.  0.
         24    2    3    3    0    0  0.39089291894E+02  0.85583500086E+02 -0.56716631489E+03  0.58091207556E+03  0.83238828429E+02 0.  0.
         -6    2    1    2    0  502  0.15115804838E+02 -0.15232485737E+03 -0.15542620111E+03  0.27808450031E+03  0.17245966368E+03 0.  0.
        -24    2    5    5    0    0 -0.20024792621E+02 -0.15997275358E+03 -0.86195996468E+02  0.19992912212E+03  0.80929783506E+02 0.  0.
          5    1    3    3  501    0 -0.54205096731E+02  0.66741357279E+02 -0.16318116742E+03  0.18450686894E+03  0.47000000000E+01 0. -1.
        -13    1    4    4    0    0 -0.12974109244E+02  0.58639678787E+02 -0.38186462365E+03  0.38655857284E+03  0.00000000000E+00 0.  1.
         14    1    4    4    0    0  0.52063401138E+02  0.26943821299E+02 -0.18530169124E+03  0.19435350272E+03  0.00000000000E+00 0. -1.
         -5    1    5    5    0  502  0.35140597459E+02  0.76478962103E+01 -0.69230204640E+02  0.78155378195E+02  0.47000000000E+01 0.  1.
         13    1    6    6    0    0  0.29119894667E+02 -0.86313016708E+02 -0.34587573506E+02  0.97438213036E+02  0.00000000000E+00 0. -1.
        -14    1    6    6    0    0 -0.49144687289E+02 -0.73659736868E+02 -0.51608422963E+02  0.10249090908E+03  0.00000000000E+00 0.  1.
<mgrwt>
<rscale>  2 0.23020433E+03</rscale>
<asrwt>0</asrwt>
<pdfrwt beam="1">  1       21 0.12133058E-01 0.23059420E+03</pdfrwt>
<pdfrwt beam="2">  1       21 0.14840594E+00 0.23059420E+03</pdfrwt>
<totfact> 0.17253944E+04</totfact>
</mgrwt>
</event>
<event>
12    1  0.1074575E-001  0.1951522E+03  0.7546771E-02  0.1154281E+00
         21   -1    0    0  501  502  0.00000000000E+00  0.00000000000E+00  0.10363593767E+03  0.10363593767E+03  0.00000000000E+00 0.  1.
         21   -1    0    0  502  503 -0.00000000000E+00 -0.00000000000E+00 -0.40524779531E+03  0.40524779531E+03  0.00000000000E+00 0.  1.
         -6    2    1    2    0  503 -0.90195820913E+02  0.11007455280E+01 -0.70411241979E+02  0.20746591860E+03  0.17305451925E+03 0.  0.
        -24    2    3    3    0    0 -0.91817901853E+01  0.54451464927E+02 -0.41498443250E+02  0.10613669100E+03  0.80582932941E+02 0.  0.
          6    2    1    2  501    0  0.90195820913E+02 -0.11007455280E+01 -0.23120061566E+03  0.30141781438E+03  0.17106278494E+03 0.  0.
         24    2    5    5    0    0  0.95531549202E+02  0.17554782853E+02 -0.82593222397E+02  0.15147533852E+03  0.81784414768E+02 0.  0.
          5    1    5    5  501    0 -0.53357282883E+01 -0.18655528381E+02 -0.14860739326E+03  0.14994247586E+03  0.47000000000E+01 0. -1.
        -13    1    6    6    0    0  0.69454910799E+02 -0.16790900215E+02 -0.81430041160E+02  0.10833637694E+03  0.00000000000E+00 0.  1.
         14    1    6    6    0    0  0.26076638403E+02  0.34345683067E+02 -0.11631812367E+01  0.43138961582E+02  0.00000000000E+00 0. -1.
         -5    1    3    3    0  503 -0.81014030728E+02 -0.53350719399E+02 -0.28912798730E+02  0.10132922760E+03  0.47000000000E+01 0.  1.
         11    1    4    4    0    0 -0.38662732542E+02  0.42688106926E+02 -0.50657357306E+01  0.57816459932E+02  0.00000000000E+00 0. -1.
        -12    1    4    4    0    0  0.29480942357E+02  0.11763358001E+02 -0.36432707519E+02  0.48320231072E+02  0.00000000000E+00 0.  1.
<mgrwt>
<rscale>  2 0.19470965E+03</rscale>
<asrwt>0</asrwt>
<pdfrwt beam="1">  1       21 0.15943990E-01 0.19515216E+03</pdfrwt>
<pdfrwt beam="2">  1       21 0.62345816E-01 0.19515216E+03</pdfrwt>
<totfact> 0.83635390E+04</totfact>
</mgrwt>
</event>
<event>
12    1  0.1074575E-001  0.2032275E+03  0.7546771E-02  0.1147140E+00
         21   -1    0    0  503  502  0.00000000000E+00  0.00000000000E+00  0.48984226192E+03  0.48984226192E+03  0.00000000000E+00 0. -1.
         21   -1    0    0  501  503 -0.00000000000E+00 -0.00000000000E+00 -0.10491217782E+03  0.10491217782E+03  0.00000000000E+00 0.  1.
          6    2    1    2  501    0  0.10076866275E+03 -0.79568853375E+01  0.32466628760E+03  0.38278000826E+03  0.17576888520E+03 0.  0.
         24    2    3    3    0    0  0.60832238975E+02  0.35460425507E+02  0.10393097779E+03  0.15424959930E+03  0.89628609623E+02 0.  0.
         -6    2    1    2    0  502 -0.10076866275E+03  0.79568853375E+01  0.60263796505E+02  0.21197443148E+03  0.17630598122E+03 0.  0.
        -24    2    5    5    0    0 -0.77724973765E+02 -0.21101635947E+02  0.10426378148E+03  0.15423797905E+03  0.80199547807E+02 0.  0.
          5    1    3    3  501    0  0.39936423779E+02 -0.43417310844E+02  0.22073530981E+03  0.22853040896E+03  0.47000000000E+01 0. -1.
        -11    1    4    4    0    0  0.41724163056E+02 -0.21852782391E+02  0.20810656141E+02  0.51493041180E+02  0.00000000000E+00 0.  1.
         12    1    4    4    0    0  0.19108075919E+02  0.57313207898E+02  0.83120321650E+02  0.10275655812E+03  0.00000000000E+00 0. -1.
         -5    1    5    5    0  502 -0.23043688990E+02  0.29058521284E+02 -0.43999984971E+02  0.57736452428E+02  0.47000000000E+01 0.  1.
         11    1    6    6    0    0  0.27795804143E+01  0.10468571657E+02  0.52176237360E+02  0.53288617967E+02  0.00000000000E+00 0. -1.
        -12    1    6    6    0    0 -0.80504554179E+02 -0.31570207604E+02  0.52087544117E+02  0.10094936109E+03  0.00000000000E+00 0.  1.
<mgrwt>
<rscale>  2 0.20311100E+03</rscale>
<asrwt>0</asrwt>
<pdfrwt beam="1">  1       21 0.75360347E-01 0.20322754E+03</pdfrwt>
<pdfrwt beam="2">  1       21 0.16140335E-01 0.20322754E+03</pdfrwt>
<totfact> 0.53698849E+04</totfact>
</mgrwt>
</event>
<event>
12    1  0.1074575E-001  0.1777941E+03  0.7546771E-02  0.1170473E+00
         21   -1    0    0  503  502  0.00000000000E+00  0.00000000000E+00  0.10273961471E+03  0.10273961471E+03  0.00000000000E+00 0. -1.
         21   -1    0    0  501  503 -0.00000000000E+00 -0.00000000000E+00 -0.53271104325E+03  0.53271104325E+03  0.00000000000E+00 0. -1.
          6    2    1    2  501    0 -0.38190215636E+02 -0.13999461712E+02 -0.42241077799E+03  0.45749592048E+03  0.17093032028E+03 0.  0.
         24    2    3    3    0    0  0.32610781240E+02  0.13069550266E+02 -0.13979261925E+03  0.16485172317E+03  0.79998987728E+02 0.  0.
         -6    2    1    2    0  502  0.38190215636E+02  0.13999461712E+02 -0.75606505482E+01  0.17795473748E+03  0.17307873253E+03 0.  0.
        -24    2    5    5    0    0  0.98730269387E+01 -0.56808353386E+02 -0.14684793627E+02  0.10121847962E+03  0.81883281433E+02 0.  0.
          5    1    3    3  501    0 -0.70800996876E+02 -0.27069011978E+02 -0.28261815874E+03  0.29264419731E+03  0.47000000000E+01 0. -1.
        -13    1    4    4    0    0  0.16516044487E+02  0.46092767850E+02 -0.63587875066E+02  0.80254226237E+02  0.00000000000E+00 0.  1.
         14    1    4    4    0    0  0.16094736754E+02 -0.33023217584E+02 -0.76204744186E+02  0.84597496932E+02  0.00000000000E+00 0. -1.
         -5    1    5    5    0  502  0.28317188697E+02  0.70807815098E+02  0.71241430783E+01  0.76736257853E+02  0.47000000000E+01 0.  1.
         11    1    6    6    0    0  0.32166354757E+02 -0.35951464686E+02  0.22397050148E+02  0.53186558892E+02  0.00000000000E+00 0. -1.
        -12    1    6    6    0    0 -0.22293327819E+02 -0.20856888699E+02 -0.37081843775E+02  0.48031920732E+02  0.00000000000E+00 0.  1.
<mgrwt>
<rscale>  2 0.17726905E+03</rscale>
<asrwt>0</asrwt>
<pdfrwt beam="1">  1       21 0.15806095E-01 0.17779405E+03</pdfrwt>
<pdfrwt beam="2">  1       21 0.81955544E-01 0.17779405E+03</pdfrwt>
<totfact> 0.46770583E+04</totfact>
</mgrwt>
</event>
<event>
12    1  0.1074575E-001  0.1907185E+03  0.7546771E-02  0.1157886E+00
         21   -1    0    0  503  502  0.00000000000E+00  0.00000000000E+00  0.34015160654E+02  0.34015160654E+02  0.00000000000E+00 0.  1.
         21   -1    0    0  501  503 -0.00000000000E+00 -0.00000000000E+00 -0.14119622247E+04  0.14119622247E+04  0.00000000000E+00 0.  1.
          6    2    1    2  501    0  0.23072110210E+02 -0.75212557491E+02 -0.10456087410E+04  0.10628033760E+04  0.17339009715E+03 0.  0.
         24    2    3    3    0    0 -0.19668718440E+02 -0.66497921468E+02 -0.96858369780E+03  0.97415987320E+03  0.77616022009E+02 0.  0.
         -6    2    1    2    0  502 -0.23072110210E+02  0.75212557491E+02 -0.33233832305E+03  0.38317400932E+03  0.17373632141E+03 0.  0.
        -24    2    5    5    0    0  0.45534610322E+02  0.61587029530E+02 -0.14216505773E+03  0.18049076395E+03  0.80620402416E+02 0.  0.
          5    1    3    3  501    0  0.42740828650E+02 -0.87146360229E+01 -0.77025043196E+02  0.88643502831E+02  0.47000000000E+01 0. -1.
        -13    1    4    4    0    0 -0.12482320970E+02 -0.58598054382E+02 -0.32431126525E+03  0.32979893433E+03  0.00000000000E+00 0.  1.
         14    1    4    4    0    0 -0.71863974702E+01 -0.78998670853E+01 -0.64427243255E+03  0.64436093887E+03  0.00000000000E+00 0. -1.
         -5    1    5    5    0  502 -0.68606720532E+02  0.13625527961E+02 -0.19017326531E+03  0.20268324537E+03  0.47000000000E+01 0.  1.
         11    1    6    6    0    0  0.34689602623E+02  0.16698640329E+02 -0.12569956729E+03  0.13146328132E+03  0.00000000000E+00 0. -1.
        -12    1    6    6    0    0  0.10845007699E+02  0.44888389201E+02 -0.16465490446E+02  0.49027482626E+02  0.00000000000E+00 0.  1.
<mgrwt>
<rscale>  2 0.19063965E+03</rscale>
<asrwt>0</asrwt>
<pdfrwt beam="1">  1       21 0.52331017E-02 0.19071854E+03</pdfrwt>
<pdfrwt beam="2">  1       21 0.21722496E+00 0.19071854E+03</pdfrwt>
<totfact> 0.26089136E+04</totfact>
</mgrwt>
</event>
<event>
12    1  0.1074575E-001  0.3008822E+03  0.7546771E-02  0.1085120E+00
         21   -1    0    0  503  502  0.00000000000E+00  0.00000000000E+00  0.27680507539E+03  0.27680507539E+03  0.00000000000E+00 0. -1.
         21   -1    0    0  501  503 -0.00000000000E+00 -0.00000000000E+00 -0.35200609474E+03  0.35200609474E+03  0.00000000000E+00 0.  1.
          6    2    1    2  501    0  0.36343798553E+02 -0.24284416732E+03 -0.12597697671E+03  0.32619057366E+03  0.17388481932E+03 0.  0.
         24    2    3    3    0    0  0.29933189605E+02 -0.39643563776E+02 -0.62372103054E+02  0.11311957343E+03  0.80238087366E+02 0.  0.
         -6    2    1    2    0  502 -0.36343798553E+02  0.24284416732E+03  0.50775957365E+02  0.30262059647E+03  0.16943100741E+03 0.  0.
        -24    2    5    5    0    0  0.37113656753E+01  0.20525002055E+03 -0.10092077235E+02  0.22049420797E+03  0.79840469407E+02 0.  0.
          5    1    3    3  501    0  0.64106089474E+01 -0.20320060354E+03 -0.63604873656E+02  0.21307100023E+03  0.47000000000E+01 0. -1.
        -11    1    4    4    0    0  0.27761259187E+02 -0.60647271945E+02 -0.27067492719E+02  0.71982138535E+02  0.00000000000E+00 0.  1.
         12    1    4    4    0    0  0.21719304187E+01  0.21003708169E+02 -0.35304610335E+02  0.41137434892E+02  0.00000000000E+00 0. -1.
         -5    1    5    5    0  502 -0.40055164228E+02  0.37594146765E+02  0.60868034600E+02  0.82126388502E+02  0.47000000000E+01 0.  1.
         11    1    6    6    0    0  0.29657837352E+01  0.27586049959E+02  0.27313774063E+02  0.38933639428E+02  0.00000000000E+00 0. -1.
        -12    1    6    6    0    0  0.74558194006E+00  0.17766397059E+03 -0.37405851298E+02  0.18156056854E+03  0.00000000000E+00 0.  1.
<mgrwt>
<rscale>  2 0.30024220E+03</rscale>
<asrwt>0</asrwt>
<pdfrwt beam="1">  1       21 0.42585396E-01 0.30088219E+03</pdfrwt>
<pdfrwt beam="2">  1       21 0.54154784E-01 0.30088219E+03</pdfrwt>
<totfact> 0.16173136E+04</totfact>
</mgrwt>
</event>
<event>
12    1  0.1074575E-001  0.2404700E+03  0.7546771E-02  0.1119649E+00
         21   -1    0    0  503  502  0.00000000000E+00  0.00000000000E+00  0.88928923576E+03  0.88928923576E+03  0.00000000000E+00 0.  1.
         21   -1    0    0  501  503 -0.00000000000E+00 -0.00000000000E+00 -0.68966722936E+02  0.68966722936E+02  0.00000000000E+00 0. -1.
          6    2    1    2  501    0  0.44899115408E+02 -0.15942037951E+03  0.29251218034E+03  0.37866763519E+03  0.17434165974E+03 0.  0.
         24    2    3    3    0    0 -0.27079850446E+01 -0.54305081355E+02  0.22831962943E+03  0.24653726202E+03  0.75461204187E+02 0.  0.
         -6    2    1    2    0  502 -0.44899115408E+02  0.15942037951E+03  0.52781033249E+03  0.57958832351E+03  0.17293955506E+03 0.  0.
        -24    2    5    5    0    0 -0.76994942873E+02  0.33306561096E+02  0.21678876126E+03  0.24240685145E+03  0.68747119065E+02 0.  0.
          5    1    3    3  501    0  0.47607100453E+02 -0.10511529816E+03  0.64192550907E+02  0.13213037316E+03  0.47000000000E+01 0. -1.
        -13    1    4    4    0    0  0.32345058184E+02 -0.46993832875E+02  0.13331301225E+03  0.14500683553E+03  0.00000000000E+00 0.  1.
         14    1    4    4    0    0 -0.35053043228E+02 -0.73112484803E+01  0.95006617187E+02  0.10153042649E+03  0.00000000000E+00 0. -1.
         -5    1    5    5    0  502  0.32095827465E+02  0.12611381842E+03  0.31102157123E+03  0.33718147206E+03  0.47000000000E+01 0.  1.
         13    1    6    6    0    0  0.11790054941E+01  0.19058895664E+02  0.11535918503E+02  0.22309392049E+02  0.00000000000E+00 0. -1.
        -14    1    6    6    0    0 -0.78173948367E+02  0.14247665431E+02  0.20525284276E+03  0.22009745940E+03  0.00000000000E+00 0.  1.
<mgrwt>
<rscale>  2 0.24021591E+03</rscale>
<asrwt>0</asrwt>
<pdfrwt beam="1">  1       21 0.13681372E+00 0.24046996E+03</pdfrwt>
<pdfrwt beam="2">  1       21 0.10610266E-01 0.24046996E+03</pdfrwt>
<totfact> 0.26988556E+04</totfact>
</mgrwt>
</event>
<event>
12    1  0.1074575E-001  0.2740988E+03  0.7546771E-02  0.1099004E+00
         21   -1    0    0  503  502  0.00000000000E+00  0.00000000000E+00  0.12030003164E+03  0.12030003164E+03  0.00000000000E+00 0. -1.
         21   -1    0    0  501  503 -0.00000000000E+00 -0.00000000000E+00 -0.15931034733E+04  0.15931034733E+04  0.00000000000E+00 0. -1.
          6    2    1    2  501    0  0.95465350838E+02 -0.18918807488E+03 -0.14044870662E+04  0.14309193668E+04  0.17332211118E+03 0.  0.
         24    2    3    3    0    0 -0.18637617549E+02 -0.68211773466E+02 -0.53995046220E+03  0.55052151209E+03  0.80791254555E+02 0.  0.
         -6    2    1    2    0  502 -0.95465350838E+02  0.18918807488E+03 -0.68316375515E+02  0.28248413822E+03  0.17385166175E+03 0.  0.
        -24    2    5    5    0    0 -0.30717242670E+02  0.79703707490E+02  0.30985355034E+02  0.12104663358E+03  0.79974779081E+02 0.  0.
          5    1    3    3  501    0  0.11410296839E+03 -0.12097630141E+03 -0.86453660397E+03  0.88039785467E+03  0.47000000000E+01 0. -1.
        -13    1    4    4    0    0 -0.22834838617E+02  0.72230275086E+01 -0.24040830660E+03  0.24159833580E+03  0.00000000000E+00 0.  1.
         14    1    4    4    0    0  0.41972210685E+01 -0.75434800975E+02 -0.29954215560E+03  0.30892317629E+03  0.00000000000E+00 0. -1.
         -5    1    5    5    0  502 -0.64748108169E+02  0.10948436739E+03 -0.99301730549E+02  0.16143750464E+03  0.47000000000E+01 0.  1.
         11    1    6    6    0    0 -0.39476292277E+02  0.83046204349E+02  0.46407430971E+02  0.10299854056E+03  0.00000000000E+00 0. -1.
        -12    1    6    6    0    0  0.87590496073E+01 -0.33424968593E+01 -0.15422075937E+02  0.18048093015E+02  0.00000000000E+00 0.  1.
<mgrwt>
<rscale>  2 0.27401489E+03</rscale>
<asrwt>0</asrwt>
<pdfrwt beam="1">  1       21 0.18507698E-01 0.27409882E+03</pdfrwt>
<pdfrwt beam="2">  1       21 0.24509283E+00 0.27409882E+03</pdfrwt>
<totfact> 0.17512917E+03</totfact>
</mgrwt>
</event>
<event>
11    1  0.1074575E-001  0.1952465E+03  0.7546771E-02  0.1153856E+00
         21   -1    0    0  503  502  0.00000000000E+00  0.00000000000E+00  0.11719328428E+03  0.11719328428E+03  0.00000000000E+00 0.  1.
         21   -1    0    0  501  503 -0.00000000000E+00 -0.00000000000E+00 -0.33929454919E+03  0.33929454919E+03  0.00000000000E+00 0. -1.
          6    2    1    2  501    0 -0.19610276614E+02  0.88375363928E+02 -0.15792440148E+03  0.25096439938E+03  0.17276644720E+03 0.  0.
         -6    2    1    2    0  502  0.19610276614E+02 -0.88375363928E+02 -0.64176863427E+02  0.20552343408E+03  0.17299261331E+03 0.  0.
        -24    2    4    4    0    0 -0.39650008752E+02 -0.44340431932E+02 -0.28832133833E+02  0.12353443136E+03  0.10436123174E+03 0.  0.
          5    1    3    3  501    0 -0.25712126131E+02  0.65825172727E+02 -0.46423566002E+02  0.84683553746E+02  0.47000000000E+01 0. -1.
        -13    1    3    3    0    0  0.10986030969E+02  0.29955787716E+02  0.17894228551E+02  0.36582038073E+02  0.00000000000E+00 0.  1.
         14    1    3    3    0    0 -0.48841814519E+01 -0.74055965148E+01 -0.12939506403E+03  0.12969880756E+03  0.00000000000E+00 0. -1.
         -5    1    4    4    0  502  0.59260285366E+02 -0.44034931997E+02 -0.35344729594E+02  0.81989002724E+02  0.47000000000E+01 0.  1.
         11    1    5    5    0    0 -0.62220033852E+02 -0.31180295221E+02 -0.53360882215E+02  0.87697931409E+02  0.00000000000E+00 0. -1.
        -12    1    5    5    0    0  0.22570025100E+02 -0.13160136711E+02  0.24528748382E+02  0.35836499947E+02  0.00000000000E+00 0.  1.
<mgrwt>
<rscale>  2 0.19519643E+03</rscale>
<asrwt>0</asrwt>
<pdfrwt beam="1">  1       21 0.18029736E-01 0.19524654E+03</pdfrwt>
<pdfrwt beam="2">  1       21 0.52199161E-01 0.19524654E+03</pdfrwt>
<totfact> 0.97371769E+04</totfact>
</mgrwt>
</event>
<event>
12    1  0.1074575E-001  0.2157800E+03  0.7546771E-02  0.1137957E+00
         21   -1    0    0  503  502  0.00000000000E+00  0.00000000000E+00  0.34047366791E+02  0.34047366791E+02  0.00000000000E+00 0.  1.
         21   -1    0    0  501  503 -0.00000000000E+00 -0.00000000000E+00 -0.13615138682E+04  0.13615138682E+04  0.00000000000E+00 0. -1.
          6    2    1    2  501    0  0.72662445586E+02  0.88409183795E+02 -0.74728298758E+03  0.77655080278E+03  0.17749160824E+03 0.  0.
         24    2    3    3    0    0 -0.24150528495E+02  0.27637621664E+02 -0.21996632760E+03  0.23696681061E+03  0.80131129375E+02 0.  0.
         -6    2    1    2    0  502 -0.72662445586E+02 -0.88409183795E+02 -0.58018351386E+03  0.61901043224E+03  0.18293438903E+03 0.  0.
        -24    2    5    5    0    0 -0.31764834993E+02  0.20515341829E+02 -0.35720294093E+03  0.36745607880E+03  0.77460601861E+02 0.  0.
          5    1    3    3  501    0  0.96812974080E+02  0.60771562131E+02 -0.52731665998E+03  0.53958399218E+03  0.47000000000E+01 0. -1.
        -13    1    4    4    0    0 -0.52863176958E+02  0.15387448869E+02 -0.16243228215E+03  0.17150957800E+03  0.00000000000E+00 0.  1.
         14    1    4    4    0    0  0.28712648463E+02  0.12250172795E+02 -0.57534045447E+02  0.65457232609E+02  0.00000000000E+00 0. -1.
         -5    1    5    5    0  502 -0.40897610593E+02 -0.10892452562E+03 -0.22298057293E+03  0.25155435345E+03  0.47000000000E+01 0.  1.
         11    1    6    6    0    0  0.25972919912E+02  0.69406616205E+01 -0.11233286341E+03  0.11550514081E+03  0.00000000000E+00 0. -1.
        -12    1    6    6    0    0 -0.57737754905E+02  0.13574680209E+02 -0.24487007753E+03  0.25195093799E+03  0.00000000000E+00 0.  1.
<mgrwt>
<rscale>  2 0.21462207E+03</rscale>
<asrwt>0</asrwt>
<pdfrwt beam="1">  1       21 0.52380565E-02 0.21577999E+03</pdfrwt>
<pdfrwt beam="2">  1       21 0.20946367E+00 0.21577999E+03</pdfrwt>
<totfact> 0.28589298E+04</totfact>
</mgrwt>
</event>
<event>
12    1  0.1074575E-001  0.1966914E+03  0.7546771E-02  0.1152799E+00
         21   -1    0    0  501  502  0.00000000000E+00  0.00000000000E+00  0.15303656849E+03  0.15303656849E+03  0.00000000000E+00 0.  1.
         21   -1    0    0  502  503 -0.00000000000E+00 -0.00000000000E+00 -0.25278662376E+03  0.25278662376E+03  0.00000000000E+00 0.  1.
         -6    2    1    2    0  503  0.90898930105E+02  0.40672848467E+01 -0.34923686916E+02  0.19976775232E+03  0.17437985164E+03 0.  0.
        -24    2    3    3    0    0  0.11732251455E+03  0.34947913416E+02 -0.84964883269E+01  0.15106142972E+03  0.88099013409E+02 0.  0.
          6    2    1    2  501    0 -0.90898930105E+02 -0.40672848467E+01 -0.64826368354E+02  0.20605543993E+03  0.17313933115E+03 0.  0.
         24    2    5    5    0    0 -0.12854261942E+03 -0.10423102521E+02 -0.32503254064E+02  0.15581285361E+03  0.81174735913E+02 0.  0.
          5    1    5    5  501    0  0.37643689315E+02  0.63558176744E+01 -0.32323114290E+02  0.50242586328E+02  0.47000000000E+01 0. -1.
        -13    1    6    6    0    0 -0.86824815601E+02 -0.21989879057E+01  0.19120253309E+02  0.88932380147E+02  0.00000000000E+00 0.  1.
         14    1    6    6    0    0 -0.41717803820E+02 -0.82241146153E+01 -0.51623507373E+02  0.66880473460E+02  0.00000000000E+00 0. -1.
         -5    1    3    3    0  503 -0.26423584441E+02 -0.30880628569E+02 -0.26427198589E+02  0.48706322595E+02  0.47000000000E+01 0.  1.
         11    1    4    4    0    0  0.62298201600E+02  0.31136866543E+02  0.37628180212E+02  0.79160914136E+02  0.00000000000E+00 0. -1.
        -12    1    4    4    0    0  0.55024312946E+02  0.38110468725E+01 -0.46124668539E+02  0.71900515584E+02  0.00000000000E+00 0.  1.
<mgrwt>
<rscale>  2 0.19641604E+03</rscale>
<asrwt>0</asrwt>
<pdfrwt beam="1">  1       21 0.23544088E-01 0.19669136E+03</pdfrwt>
<pdfrwt beam="2">  1       21 0.38890250E-01 0.19669136E+03</pdfrwt>
<totfact> 0.10807459E+05</totfact>
</mgrwt>
</event>
<event>
12    1  0.1074575E-001  0.2583272E+03  0.7546771E-02  0.1108233E+00
         21   -1    0    0  503  502  0.00000000000E+00  0.00000000000E+00  0.86835712737E+03  0.86835712737E+03  0.00000000000E+00 0.  1.
         21   -1    0    0  501  503 -0.00000000000E+00 -0.00000000000E+00 -0.14070496468E+03  0.14070496468E+03  0.00000000000E+00 0. -1.
          6    2    1    2  501    0 -0.15534537102E+03 -0.11227531338E+03  0.23724248748E+02  0.25941428806E+03  0.17319065384E+03 0.  0.
         24    2    3    3    0    0 -0.52613642693E+02 -0.14738961176E+02 -0.38505269874E+02  0.10461845157E+03  0.80479390074E+02 0.  0.
         -6    2    1    2    0  502  0.15534537102E+03  0.11227531338E+03  0.70392791395E+03  0.74964780399E+03  0.17239313125E+03 0.  0.
        -24    2    5    5    0    0  0.43126670858E+02  0.47237732409E+02  0.16055397386E+03  0.19098846918E+03  0.81287783429E+02 0.  0.
          5    1    3    3  501    0 -0.10273172832E+03 -0.97536352206E+02  0.62229518622E+02  0.15479583649E+03  0.47000000000E+01 0. -1.
        -11    1    4    4    0    0  0.67026673167E+01 -0.26624254406E+02 -0.34359451724E+02  0.43981230026E+02  0.00000000000E+00 0.  1.
         12    1    4    4    0    0 -0.59316310010E+02  0.11885293230E+02 -0.41458181496E+01  0.60637221543E+02  0.00000000000E+00 0. -1.
         -5    1    5    5    0  502  0.11221870016E+03  0.65037580973E+02  0.54337394009E+03  0.55865933482E+03  0.47000000000E+01 0.  1.
         13    1    6    6    0    0  0.53525800990E+01 -0.16513020923E+02  0.78629397238E+02  0.80522742649E+02  0.00000000000E+00 0. -1.
        -14    1    6    6    0    0  0.37774090759E+02  0.63750753332E+02  0.81924576618E+02  0.11046572653E+03  0.00000000000E+00 0.  1.
<mgrwt>
<rscale>  2 0.25819358E+03</rscale>
<asrwt>0</asrwt>
<pdfrwt beam="1">  1       21 0.13359340E+00 0.25832718E+03</pdfrwt>
<pdfrwt beam="2">  1       21 0.21646918E-01 0.25832718E+03</pdfrwt>
<totfact> 0.76774607E+03</totfact>
</mgrwt>
</event>
<event>
12    1  0.1074575E-001  0.2099644E+03  0.7546771E-02  0.1141689E+00
         21   -1    0    0  501  502  0.00000000000E+00  0.00000000000E+00  0.30546575857E+02  0.30546575857E+02  0.00000000000E+00 0.  1.
         21   -1    0    0  502  503 -0.00000000000E+00 -0.00000000000E+00 -0.21147472503E+04  0.21147472503E+04  0.00000000000E+00 0.  1.
         -6    2    1    2    0  503 -0.59397984154E+02  0.10229490087E+03 -0.16472229088E+04  0.16604901581E+04  0.17289270260E+03 0.  0.
        -24    2    3    3    0    0 -0.40512317848E+02  0.13578944434E+03 -0.11348310531E+04  0.11466360381E+04  0.82780817484E+02 0.  0.
          6    2    1    2  501    0  0.59397984154E+02 -0.10229490087E+03 -0.43697776565E+03  0.48480366806E+03  0.17347236561E+03 0.  0.
         24    2    5    5    0    0  0.77035170981E+02 -0.13331920462E+03 -0.35746438720E+03  0.39752225460E+03  0.80837657675E+02 0.  0.
          5    1    5    5  501    0 -0.17637186827E+02  0.31024303758E+02 -0.79513378446E+02  0.87281413455E+02  0.47000000000E+01 0. -1.
        -13    1    6    6    0    0  0.44189668658E+01 -0.74467703899E+02 -0.10922625546E+03  0.13226995529E+03  0.00000000000E+00 0.  1.
         14    1    6    6    0    0  0.72616204115E+02 -0.58851500725E+02 -0.24823813174E+03  0.26525229931E+03  0.00000000000E+00 0. -1.
         -5    1    3    3    0  503 -0.18885666306E+02 -0.33494543473E+02 -0.51239185576E+03  0.51385412004E+03  0.47000000000E+01 0.  1.
         11    1    4    4    0    0 -0.22211292847E+02  0.95380844694E+01 -0.67298021395E+02  0.71507623852E+02  0.00000000000E+00 0. -1.
        -12    1    4    4    0    0 -0.18301025002E+02  0.12625135987E+03 -0.10675330317E+04  0.10751284142E+04  0.00000000000E+00 0.  1.
<mgrwt>
<rscale>  2 0.20984458E+03</rscale>
<asrwt>0</asrwt>
<pdfrwt beam="1">  1       21 0.46994706E-02 0.20996435E+03</pdfrwt>
<pdfrwt beam="2">  1       21 0.32534591E+00 0.20996435E+03</pdfrwt>
<totfact> 0.71395507E+03</totfact>
</mgrwt>
</event>
<event>
12    1  0.1074575E-001  0.1715290E+03  0.7546771E-02  0.1176459E+00
         21   -1    0    0  503  502  0.00000000000E+00  0.00000000000E+00  0.18982162405E+03  0.18982162405E+03  0.00000000000E+00 0.  1.
         21   -1    0    0  501  503 -0.00000000000E+00 -0.00000000000E+00 -0.17489486740E+03  0.17489486740E+03  0.00000000000E+00 0.  1.
          6    2    1    2  501    0 -0.85037498984E+01  0.49796872161E+01 -0.55110317326E+02  0.17943994445E+03  0.17048294795E+03 0.  0.
         24    2    3    3    0    0 -0.55899538491E+02 -0.20025066151E+02 -0.71629135002E+02  0.12316775056E+03  0.80708116816E+02 0.  0.
         -6    2    1    2    0  502  0.85037498984E+01 -0.49796872161E+01  0.70037073978E+02  0.18527654700E+03  0.17124571846E+03 0.  0.
        -24    2    5    5    0    0 -0.31490881375E+02  0.52769889901E+02  0.42254044727E+02  0.10958922374E+03  0.80299793120E+02 0.  0.
          5    1    3    3  501    0  0.47395788593E+02  0.25004753368E+02  0.16518817676E+02  0.56272193886E+02  0.47000000000E+01 0. -1.
        -13    1    4    4    0    0 -0.93821216597E+01 -0.27819927203E+02 -0.70074261879E+02  0.75976145824E+02  0.00000000000E+00 0.  1.
         14    1    4    4    0    0 -0.46517416832E+02  0.77948610515E+01 -0.15548731232E+01  0.47191604740E+02  0.00000000000E+00 0. -1.
         -5    1    5    5    0  502  0.39994631273E+02 -0.57749577117E+02  0.27783029251E+02  0.75687323260E+02  0.47000000000E+01 0.  1.
         13    1    6    6    0    0  0.56722327696E+01  0.19086902575E+02 -0.20949449030E+02  0.28902655399E+02  0.00000000000E+00 0. -1.
        -14    1    6    6    0    0 -0.37163114144E+02  0.33682987326E+02  0.63203493756E+02  0.80686568344E+02  0.00000000000E+00 0.  1.
<mgrwt>
<rscale>  2 0.17133833E+03</rscale>
<asrwt>0</asrwt>
<pdfrwt beam="1">  1       21 0.29203327E-01 0.17152903E+03</pdfrwt>
<pdfrwt beam="2">  1       21 0.26906903E-01 0.17152903E+03</pdfrwt>
<totfact> 0.14876099E+05</totfact>
</mgrwt>
</event>
<event>
12    1  0.1074575E-001  0.1832335E+03  0.7546771E-02  0.1165978E+00
         21   -1    0    0  501  502  0.00000000000E+00  0.00000000000E+00  0.35551696566E+03  0.35551696566E+03  0.00000000000E+00 0. -1.
         21   -1    0    0  502  503 -0.00000000000E+00 -0.00000000000E+00 -0.96285981402E+02  0.96285981402E+02  0.00000000000E+00 0. -1.
         -6    2    1    2    0  503  0.62607225658E+01  0.43851819195E+02  0.82325767381E+02  0.20087817078E+03  0.17779856250E+03 0.  0.
        -24    2    3    3    0    0  0.60899515143E+02  0.46781931191E+01  0.79419222916E+01  0.10050378637E+03  0.79418514906E+02 0.  0.
          6    2    1    2  501    0 -0.62607225658E+01 -0.43851819195E+02  0.17690521688E+03  0.25092477629E+03  0.17235315171E+03 0.  0.
         24    2    5    5    0    0  0.53159245302E+01 -0.84662459488E+02  0.16960952063E+03  0.20762530397E+03  0.84527429056E+02 0.  0.
          5    1    5    5  501    0 -0.11576647096E+02  0.40810640293E+02  0.72956962548E+01  0.43299472317E+02  0.47000000000E+01 0. -1.
        -11    1    6    6    0    0  0.42111728676E+02 -0.57775797918E+02  0.12409883811E+03  0.14321997814E+03  0.00000000000E+00 0.  1.
         12    1    6    6    0    0 -0.36795804145E+02 -0.26886661571E+02  0.45510682518E+02  0.64405325838E+02  0.00000000000E+00 0. -1.
         -5    1    3    3    0  503 -0.54638792577E+02  0.39173626076E+02  0.74383845089E+02  0.10037438440E+03  0.47000000000E+01 0.  1.
         13    1    4    4    0    0  0.55159163694E+02  0.24577490100E+02  0.32339284486E+02  0.68501209333E+02  0.00000000000E+00 0. -1.
        -14    1    4    4    0    0  0.57403514495E+01 -0.19899296981E+02 -0.24397362194E+02  0.32002577039E+02  0.00000000000E+00 0.  1.
<mgrwt>
<rscale>  2 0.18189922E+03</rscale>
<asrwt>0</asrwt>
<pdfrwt beam="1">  1       21 0.54694917E-01 0.18323348E+03</pdfrwt>
<pdfrwt beam="2">  1       21 0.14813228E-01 0.18323348E+03</pdfrwt>
<totfact> 0.12707936E+05</totfact>
</mgrwt>
</event>
<event>
12    1  0.1074575E-001  0.1812795E+03  0.7546771E-02  0.1167290E+00
         21   -1    0    0  501  502  0.00000000000E+00  0.00000000000E+00  0.31917603044E+03  0.31917603044E+03  0.00000000000E+00 0.  1.
         21   -1    0    0  502  503 -0.00000000000E+00 -0.00000000000E+00 -0.22502370389E+03  0.22502370389E+03  0.00000000000E+00 0.  1.
         -6    2    1    2    0  503  0.40027995321E+01  0.55327469357E+02 -0.15452652215E+03  0.23820308907E+03  0.17258364444E+03 0.  0.
        -24    2    3    3    0    0 -0.45789487381E+02  0.80392565794E+02 -0.12334396842E+03  0.17415644551E+03  0.80975867865E+02 0.  0.
          6    2    1    2  501    0 -0.40027995321E+01 -0.55327469357E+02  0.24867884870E+03  0.30599664526E+03  0.16945685542E+03 0.  0.
         24    2    5    5    0    0 -0.72039942259E+01 -0.48152559665E+02  0.26967369527E+03  0.28309248496E+03  0.71041442716E+02 0.  0.
          5    1    5    5  501    0  0.32011946938E+01 -0.71749096916E+01 -0.20994846572E+02  0.22904160302E+02  0.47000000000E+01 0. -1.
        -11    1    6    6    0    0 -0.34057300438E+02 -0.10868799605E+02  0.75207069208E+02  0.83271446347E+02  0.00000000000E+00 0.  1.
         12    1    6    6    0    0  0.26853306212E+02 -0.37283760060E+02  0.19446662606E+03  0.19982103861E+03  0.00000000000E+00 0. -1.
         -5    1    3    3    0  503  0.49792286913E+02 -0.25065096437E+02 -0.31182553728E+02  0.64046643569E+02  0.47000000000E+01 0.  1.
         13    1    4    4    0    0  0.11168990030E+01  0.18877315983E+02  0.89372711404E+01  0.20915911109E+02  0.00000000000E+00 0. -1.
        -14    1    4    4    0    0 -0.46906386384E+02  0.61515249811E+02 -0.13228123956E+03  0.15324053440E+03  0.00000000000E+00 0.  1.
<mgrwt>
<rscale>  2 0.18053135E+03</rscale>
<asrwt>0</asrwt>
<pdfrwt beam="1">  1       21 0.49104005E-01 0.18127952E+03</pdfrwt>
<pdfrwt beam="2">  1       21 0.34619031E-01 0.18127952E+03</pdfrwt>
<totfact> 0.32012122E+04</totfact>
</mgrwt>
</event>
<event>
12    1  0.1074575E-001  0.2089879E+03  0.7546771E-02  0.1142760E+00
         21   -1    0    0  501  502  0.00000000000E+00  0.00000000000E+00  0.53176248518E+03  0.53176248518E+03  0.00000000000E+00 0. -1.
         21   -1    0    0  502  503 -0.00000000000E+00 -0.00000000000E+00 -0.27729987119E+03  0.27729987119E+03  0.00000000000E+00 0.  1.
         -6    2    1    2    0  503 -0.90108661432E+02 -0.72228464485E+02 -0.21263047566E+03  0.29814034297E+03  0.17418215460E+03 0.  0.
        -24    2    3    3    0    0 -0.68650383321E+02 -0.44985503291E+02 -0.38056614656E+02  0.12009327172E+03  0.78977954883E+02 0.  0.
          6    2    1    2  501    0  0.90108661432E+02  0.72228464485E+02  0.46709308966E+03  0.51092201339E+03  0.17183953974E+03 0.  0.
         24    2    5    5    0    0  0.31028247804E+02  0.73639624233E+02  0.14739760527E+03  0.18577623165E+03  0.80007548323E+02 0.  0.
          5    1    5    5  501    0  0.59080413629E+02 -0.14111597476E+01  0.31969548439E+03  0.32514578174E+03  0.47000000000E+01 0. -1.
        -13    1    6    6    0    0 -0.12897023775E+02  0.27029557575E+02  0.59915968565E+01  0.30542256593E+02  0.00000000000E+00 0.  1.
         14    1    6    6    0    0  0.43925271578E+02  0.46610066658E+02  0.14140600841E+03  0.15523397506E+03  0.00000000000E+00 0. -1.
         -5    1    3    3    0  503 -0.21458278111E+02 -0.27242961194E+02 -0.17457386101E+03  0.17804707125E+03  0.47000000000E+01 0.  1.
         13    1    4    4    0    0 -0.30938185915E+02  0.16548723450E+02  0.59160645746E+01  0.35581335214E+02  0.00000000000E+00 0. -1.
        -14    1    4    4    0    0 -0.37712197406E+02 -0.61534226741E+02 -0.43972679231E+02  0.84511936509E+02  0.00000000000E+00 0.  1.
<mgrwt>
<rscale>  2 0.20849909E+03</rscale>
<asrwt>0</asrwt>
<pdfrwt beam="1">  1       21 0.81809612E-01 0.20898791E+03</pdfrwt>
<pdfrwt beam="2">  1       21 0.42661519E-01 0.20898791E+03</pdfrwt>
<totfact> 0.68277367E+03</totfact>
</mgrwt>
</event>
<event>
12    1  0.1074575E-001  0.2134733E+03  0.7546771E-02  0.1139181E+00
         21   -1    0    0  501  502  0.00000000000E+00  0.00000000000E+00  0.31293386048E+02  0.31293386048E+02  0.00000000000E+00 0.  1.
         21   -1    0    0  502  503 -0.00000000000E+00 -0.00000000000E+00 -0.14450168070E+04  0.14450168070E+04  0.00000000000E+00 0.  1.
         -6    2    1    2    0  503 -0.16339578774E+02 -0.12335551646E+03 -0.71827825676E+03  0.74883865698E+03  0.17132458894E+03 0.  0.
        -24    2    3    3    0    0 -0.55725587393E+01 -0.62345943020E+02 -0.64375133669E+03  0.65181057554E+03  0.80766161723E+02 0.  0.
          6    2    1    2  501    0  0.16339578774E+02  0.12335551646E+03 -0.69544516419E+03  0.72747153607E+03  0.17345689412E+03 0.  0.
         24    2    5    5    0    0 -0.52038788956E+02  0.53657079400E+02 -0.30906383664E+03  0.32891652909E+03  0.84133883002E+02 0.  0.
          5    1    5    5  501    0  0.68378367730E+02  0.69698437059E+02 -0.38638132755E+03  0.39855500697E+03  0.47000000000E+01 0. -1.
        -13    1    6    6    0    0 -0.12640405533E+02  0.34196140798E+02 -0.26201140911E+03  0.26453569589E+03  0.00000000000E+00 0.  1.
         14    1    6    6    0    0 -0.39398383423E+02  0.19460938603E+02 -0.47052427528E+02  0.64380833203E+02  0.00000000000E+00 0. -1.
         -5    1    3    3    0  503 -0.10767020035E+02 -0.61009573439E+02 -0.74526920069E+02  0.97028081433E+02  0.47000000000E+01 0.  1.
         13    1    4    4    0    0 -0.31924789014E+02 -0.16557441432E+02 -0.11663816807E+03  0.12205655768E+03  0.00000000000E+00 0. -1.
        -14    1    4    4    0    0  0.26352230274E+02 -0.45788501589E+02 -0.52711316862E+03  0.52975401787E+03  0.00000000000E+00 0.  1.
<mgrwt>
<rscale>  2 0.21303977E+03</rscale>
<asrwt>0</asrwt>
<pdfrwt beam="1">  1       21 0.48143671E-02 0.21347332E+03</pdfrwt>
<pdfrwt beam="2">  1       21 0.22231028E+00 0.21347332E+03</pdfrwt>
<totfact> 0.27492117E+04</totfact>
</mgrwt>
</event>
<event>
12    1  0.1074575E-001  0.1786564E+03  0.7546771E-02  0.1169176E+00
         21   -1    0    0  503  502  0.00000000000E+00  0.00000000000E+00  0.12456075637E+03  0.12456075637E+03  0.00000000000E+00 0.  1.
         21   -1    0    0  501  503 -0.00000000000E+00 -0.00000000000E+00 -0.26463209266E+03  0.26463209266E+03  0.00000000000E+00 0.  1.
          6    2    1    2  501    0 -0.31189349580E+02 -0.27749384279E+02 -0.10541581297E+03  0.20720627610E+03  0.17343339752E+03 0.  0.
         24    2    3    3    0    0  0.29436713805E+02  0.27152064749E+02 -0.80781891145E+02  0.12165740836E+03  0.81676534766E+02 0.  0.
         -6    2    1    2    0  502  0.31189349580E+02  0.27749384279E+02 -0.34655523323E+02  0.18198657294E+03  0.17371040147E+03 0.  0.
        -24    2    5    5    0    0 -0.37170321646E+02 -0.12750261393E+02  0.53718862816E+01  0.92893646905E+02  0.84001014853E+02 0.  0.
          5    1    3    3  501    0 -0.60626063385E+02 -0.54901449027E+02 -0.24633921825E+02  0.85548867739E+02  0.47000000000E+01 0. -1.
        -13    1    4    4    0    0 -0.11420575481E+02  0.33543955763E+02 -0.56307733788E+01  0.35879410828E+02  0.00000000000E+00 0.  1.
         14    1    4    4    0    0  0.40857289286E+02 -0.63918910141E+01 -0.75151117766E+02  0.85777997528E+02  0.00000000000E+00 0. -1.
         -5    1    5    5    0  502  0.68359671226E+02  0.40499645671E+02 -0.40027409605E+02  0.89092926034E+02  0.47000000000E+01 0.  1.
         11    1    6    6    0    0  0.11446368075E+02 -0.18145394203E+01  0.33655492186E+02  0.35595000347E+02  0.00000000000E+00 0. -1.
        -12    1    6    6    0    0 -0.48616689721E+02 -0.10935721973E+02 -0.28283605904E+02  0.57298646558E+02  0.00000000000E+00 0.  1.
<mgrwt>
<rscale>  2 0.17858903E+03</rscale>
<asrwt>0</asrwt>
<pdfrwt beam="1">  1       21 0.19163194E-01 0.17865639E+03</pdfrwt>
<pdfrwt beam="2">  1       21 0.40712629E-01 0.17865639E+03</pdfrwt>
<totfact> 0.14595475E+05</totfact>
</mgrwt>
</event>
<event>
12    1  0.1074575E-001  0.3384491E+03  0.7546771E-02  0.1067498E+00
         21   -1    0    0  501  502  0.00000000000E+00  0.00000000000E+00  0.34553622322E+03  0.34553622322E+03  0.00000000000E+00 0.  1.
         21   -1    0    0  502  503 -0.00000000000E+00 -0.00000000000E+00 -0.66555702898E+03  0.66555702898E+03  0.00000000000E+00 0. -1.
         -6    2    1    2    0  503  0.18397734579E+03 -0.22515162262E+03 -0.51840499440E+03  0.61910544005E+03  0.17322497149E+03 0.  0.
        -24    2    3    3    0    0  0.67112678277E+02 -0.35740875459E+02 -0.10688744033E+03  0.15123519206E+03  0.75270423484E+02 0.  0.
          6    2    1    2  501    0 -0.18397734579E+03  0.22515162262E+03  0.19838418864E+03  0.39198781214E+03  0.17250287427E+03 0.  0.
         24    2    5    5    0    0 -0.13890400449E+03  0.24150773339E+03  0.16993638445E+03  0.33603697641E+03  0.80138423990E+02 0.  0.
          5    1    5    5  501    0 -0.45073341301E+02 -0.16356110779E+02  0.28447804194E+02  0.55950835733E+02  0.47000000000E+01 0. -1.
        -11    1    6    6    0    0 -0.12850459798E+03  0.15134867284E+03  0.12652138743E+03  0.23543048645E+03  0.00000000000E+00 0.  1.
         12    1    6    6    0    0 -0.10399406516E+02  0.90159060551E+02  0.43414997020E+02  0.10060648996E+03  0.00000000000E+00 0. -1.
         -5    1    3    3    0  503  0.11686466752E+03 -0.18941074716E+03 -0.41151755407E+03  0.46787024800E+03  0.47000000000E+01 0.  1.
         11    1    4    4    0    0  0.61433881141E+02 -0.48465483926E+02 -0.11179728525E+03  0.13646119549E+03  0.00000000000E+00 0. -1.
        -12    1    4    4    0    0  0.56787971365E+01  0.12724608467E+02  0.49098449178E+01  0.14773996570E+02  0.00000000000E+00 0.  1.
<mgrwt>
<rscale>  2 0.33835683E+03</rscale>
<asrwt>0</asrwt>
<pdfrwt beam="1">  1       21 0.53159419E-01 0.33844912E+03</pdfrwt>
<pdfrwt beam="2">  1       21 0.10239339E+00 0.33844912E+03</pdfrwt>
<totfact> 0.23584448E+03</totfact>
</mgrwt>
</event>
<event>
12    1  0.1074575E-001  0.2639144E+03  0.7546771E-02  0.1105161E+00
         21   -1    0    0  503  502  0.00000000000E+00  0.00000000000E+00  0.11355085594E+03  0.11355085594E+03  0.00000000000E+00 0. -1.
         21   -1    0    0  501  503 -0.00000000000E+00 -0.00000000000E+00 -0.90621111856E+03  0.90621111856E+03  0.00000000000E+00 0.  1.
          6    2    1    2  501    0  0.19475343160E+03 -0.34141361126E+02 -0.69003289512E+03  0.73878020162E+03  0.17480348483E+03 0.  0.
         24    2    3    3    0    0  0.15301468341E+03  0.37896334966E+02 -0.52187421932E+03  0.55108101941E+03  0.80547896421E+02 0.  0.
         -6    2    1    2    0  502 -0.19475343160E+03  0.34141361126E+02 -0.10262736751E+03  0.28098177288E+03  0.17124207565E+03 0.  0.
        -24    2    5    5    0    0 -0.17811184068E+03  0.43096504902E+02 -0.26450509938E+02  0.20235518210E+03  0.81650803554E+02 0.  0.
          5    1    3    3  501    0  0.41738748186E+02 -0.72037696092E+02 -0.16815867580E+03  0.18769918222E+03  0.47000000000E+01 0. -1.
        -11    1    4    4    0    0  0.12709994412E+03  0.29463898296E+01 -0.31514282278E+03  0.33982065234E+03  0.00000000000E+00 0.  1.
         12    1    4    4    0    0  0.25914739290E+02  0.34949945137E+02 -0.20673139654E+03  0.21126036706E+03  0.00000000000E+00 0. -1.
         -5    1    5    5    0  502 -0.16641590913E+02 -0.89551437759E+01 -0.76176857572E+02  0.78626590780E+02  0.47000000000E+01 0.  1.
         11    1    6    6    0    0 -0.39788007223E+02  0.19050947463E+02 -0.42235202279E+02  0.61072386801E+02  0.00000000000E+00 0. -1.
        -12    1    6    6    0    0 -0.13832383346E+03  0.24045557439E+02  0.15784692341E+02  0.14128279530E+03  0.00000000000E+00 0.  1.
<mgrwt>
<rscale>  2 0.26332608E+03</rscale>
<asrwt>0</asrwt>
<pdfrwt beam="1">  1       21 0.17469362E-01 0.26391436E+03</pdfrwt>
<pdfrwt beam="2">  1       21 0.13941710E+00 0.26391436E+03</pdfrwt>
<totfact> 0.10247005E+04</totfact>
</mgrwt>
</event>
<event>
12    1  0.1074575E-001  0.1832301E+03  0.7546771E-02  0.1166015E+00
         21   -1    0    0  503  502  0.00000000000E+00  0.00000000000E+00  0.18381612578E+03  0.18381612578E+03  0.00000000000E+00 0.  1.
         21   -1    0    0  501  503 -0.00000000000E+00 -0.00000000000E+00 -0.31056973910E+03  0.31056973910E+03  0.00000000000E+00 0.  1.
          6    2    1    2  501    0  0.17780709905E+00 -0.42027368641E+02  0.99093666822E+02  0.20355902576E+03  0.17277265650E+03 0.  0.
         24    2    3    3    0    0 -0.48614313271E+02 -0.21456542578E+02  0.11311475216E+03  0.14858166015E+03  0.80360611640E+02 0.  0.
         -6    2    1    2    0  502 -0.17780709905E+00  0.42027368641E+02 -0.22584728014E+03  0.29082683912E+03  0.17834496090E+03 0.  0.
        -24    2    5    5    0    0  0.18561634637E+02  0.46991285550E+02 -0.38906659847E+02  0.10282499694E+03  0.80663105679E+02 0.  0.
          5    1    3    3  501    0  0.48792120370E+02 -0.20570826063E+02 -0.14021085339E+02  0.54977365608E+02  0.47000000000E+01 0. -1.
        -11    1    4    4    0    0  0.22577405160E+02 -0.42574117583E+01  0.23850844942E+02  0.33116877617E+02  0.00000000000E+00 0.  1.
         12    1    4    4    0    0 -0.71191718431E+02 -0.17199130820E+02  0.89263907218E+02  0.11546478254E+03  0.00000000000E+00 0. -1.
         -5    1    5    5    0  502 -0.18739441736E+02 -0.49639169085E+01 -0.18694062029E+03  0.18800184218E+03  0.47000000000E+01 0.  1.
         11    1    6    6    0    0 -0.88935687181E+01  0.27774477020E+01  0.21295872905E+02  0.23244870038E+02  0.00000000000E+00 0. -1.
        -12    1    6    6    0    0  0.27455203355E+02  0.44213837848E+02 -0.60202532752E+02  0.79580126905E+02  0.00000000000E+00 0.  1.
<mgrwt>
<rscale>  2 0.18185999E+03</rscale>
<asrwt>0</asrwt>
<pdfrwt beam="1">  1       21 0.28279404E-01 0.18323006E+03</pdfrwt>
<pdfrwt beam="2">  1       21 0.47779960E-01 0.18323006E+03</pdfrwt>
<totfact> 0.50269738E+04</totfact>
</mgrwt>
</event>
<event>
12    1  0.1074575E-001  0.3962393E+03  0.7546771E-02  0.1045124E+00
         21   -1    0    0  503  502  0.00000000000E+00  0.00000000000E+00  0.60131190868E+03  0.60131190868E+03  0.00000000000E+00 0.  1.
         21   -1    0    0  501  503 -0.00000000000E+00 -0.00000000000E+00 -0.35089654455E+03  0.35089654455E+03  0.00000000000E+00 0. -1.
          6    2    1    2  501    0 -0.32063058200E+03  0.15739103178E+03  0.36643947774E+03  0.53970681633E+03  0.17155072062E+03 0.  0.
         24    2    3    3    0    0 -0.14679836600E+03  0.10759247371E+03  0.27223244882E+03  0.33575929857E+03  0.74147823444E+02 0.  0.
         -6    2    1    2    0  502  0.32063058200E+03 -0.15739103178E+03 -0.11602411362E+03  0.41250163690E+03  0.17064612067E+03 0.  0.
        -24    2    5    5    0    0  0.12678236897E+03 -0.33183860773E+02 -0.74645213963E+00  0.15498352052E+03  0.82730869359E+02 0.  0.
          5    1    3    3  501    0 -0.17383221600E+03  0.49798558066E+02  0.94207028924E+02  0.20394751777E+03  0.47000000000E+01 0. -1.
        -11    1    4    4    0    0 -0.86904927680E+02  0.36827733641E+02  0.85833224638E+02  0.12757778361E+03  0.00000000000E+00 0.  1.
         12    1    4    4    0    0 -0.59893438325E+02  0.70764740071E+02  0.18639922418E+03  0.20818151495E+03  0.00000000000E+00 0. -1.
         -5    1    5    5    0  502  0.19384821304E+03 -0.12420717101E+03 -0.11527766148E+03  0.25751811638E+03  0.47000000000E+01 0.  1.
         11    1    6    6    0    0  0.11573325559E+03 -0.33228841970E+02 -0.29679076498E+02  0.12401286211E+03  0.00000000000E+00 0. -1.
        -12    1    6    6    0    0  0.11049113378E+02  0.44981197496E-01  0.28932624358E+02  0.30970658405E+02  0.00000000000E+00 0.  1.
<mgrwt>
<rscale>  2 0.39614153E+03</rscale>
<asrwt>0</asrwt>
<pdfrwt beam="1">  1       21 0.92509524E-01 0.39623927E+03</pdfrwt>
<pdfrwt beam="2">  1       21 0.53984084E-01 0.39623927E+03</pdfrwt>
<totfact> 0.28359944E+03</totfact>
</mgrwt>
</event>
<event>
12    1  0.1074575E-001  0.1998588E+03  0.7546771E-02  0.1150813E+00
         21   -1    0    0  501  502  0.00000000000E+00  0.00000000000E+00  0.42383386172E+02  0.42383386172E+02  0.00000000000E+00 0. -1.
         21   -1    0    0  502  503 -0.00000000000E+00 -0.00000000000E+00 -0.11093212805E+04  0.11093212805E+04  0.00000000000E+00 0. -1.
         -6    2    1    2    0  503 -0.58972003953E+02 -0.74421296294E+02 -0.30152775450E+03  0.36174926141E+03  0.17586163541E+03 0.  0.
        -24    2    3    3    0    0 -0.39165925675E+02 -0.67140429427E+02 -0.31595500265E+03  0.33575835438E+03  0.82851082334E+02 0.  0.
          6    2    1    2  501    0  0.58972003953E+02  0.74421296294E+02 -0.76541013986E+03  0.78995540528E+03  0.17076484869E+03 0.  0.
         24    2    5    5    0    0 -0.32172835618E+02  0.17151926522E+02 -0.39799927516E+03  0.40707161613E+03  0.77295521865E+02 0.  0.
          5    1    5    5  501    0  0.91144839572E+02  0.57269369772E+02 -0.36741086470E+03  0.38288378915E+03  0.47000000000E+01 0. -1.
        -11    1    6    6    0    0 -0.94040928299E+01 -0.11812963085E+00 -0.14760789001E+01  0.95199645736E+01  0.00000000000E+00 0.  1.
         12    1    6    6    0    0 -0.22768742788E+02  0.17270056152E+02 -0.39652319626E+03  0.39755165156E+03  0.00000000000E+00 0. -1.
         -5    1    3    3    0  503 -0.19806078279E+02 -0.72808668669E+01  0.14427248149E+02  0.25990907030E+02  0.47000000000E+01 0.  1.
         11    1    4    4    0    0 -0.40126635518E+02 -0.64896495704E+02 -0.13721826410E+03  0.15700494908E+03  0.00000000000E+00 0. -1.
        -12    1    4    4    0    0  0.96070984309E+00 -0.22439337232E+01 -0.17873673855E+03  0.17875340531E+03  0.00000000000E+00 0.  1.
<mgrwt>
<rscale>  2 0.19873186E+03</rscale>
<asrwt>0</asrwt>
<pdfrwt beam="1">  1       21 0.65205208E-02 0.19985880E+03</pdfrwt>
<pdfrwt beam="2">  1       21 0.17066482E+00 0.19985880E+03</pdfrwt>
<totfact> 0.35920488E+04</totfact>
</mgrwt>
</event>
<event>
12    1  0.1074575E-001  0.3111495E+03  0.7546771E-02  0.1079866E+00
         21   -1    0    0  501  502  0.00000000000E+00  0.00000000000E+00  0.66560683527E+02  0.66560683527E+02  0.00000000000E+00 0.  1.
         21   -1    0    0  502  503 -0.00000000000E+00 -0.00000000000E+00 -0.15354360771E+04  0.15354360771E+04  0.00000000000E+00 0. -1.
         -6    2    1    2    0  503  0.13277453727E+03 -0.22279152325E+03 -0.92205566434E+03  0.97313957695E+03  0.17189778214E+03 0.  0.
        -24    2    3    3    0    0  0.13750058367E+03 -0.18439707481E+03 -0.88975538739E+03  0.92252468708E+03  0.80488863666E+02 0.  0.
          6    2    1    2  501    0 -0.13277453727E+03  0.22279152325E+03 -0.54681972923E+03  0.62885718368E+03  0.17083442454E+03 0.  0.
         24    2    5    5    0    0 -0.11214743589E+03  0.22175823919E+03 -0.38293004864E+03  0.46360446088E+03  0.80869709843E+02 0.  0.
          5    1    5    5  501    0 -0.20627101379E+02  0.10332840556E+01 -0.16388968059E+03  0.16525272280E+03  0.47000000000E+01 0. -1.
        -13    1    6    6    0    0 -0.22091752982E+02  0.92194234910E+02 -0.89171329998E+02  0.13015125276E+03  0.00000000000E+00 0.  1.
         14    1    6    6    0    0 -0.90055682909E+02  0.12956400428E+03 -0.29375871864E+03  0.33345320812E+03  0.00000000000E+00 0. -1.
         -5    1    3    3    0  503 -0.47260464015E+01 -0.38394448440E+02 -0.32300276956E+02  0.50614889875E+02  0.47000000000E+01 0.  1.
         11    1    4    4    0    0 -0.22241094244E+01 -0.32471144415E+02 -0.19708863274E+03  0.19975798116E+03  0.00000000000E+00 0. -1.
        -12    1    4    4    0    0  0.13972469310E+03 -0.15192593039E+03 -0.69266675464E+03  0.72276670591E+03  0.00000000000E+00 0.  1.
<mgrwt>
<rscale>  2 0.31100281E+03</rscale>
<asrwt>0</asrwt>
<pdfrwt beam="1">  1       21 0.10240105E-01 0.31114946E+03</pdfrwt>
<pdfrwt beam="2">  1       21 0.23622093E+00 0.31114946E+03</pdfrwt>
<totfact> 0.56947271E+03</totfact>
</mgrwt>
</event>
<event>
12    1  0.1074575E-001  0.2431098E+03  0.7546771E-02  0.1117990E+00
         21   -1    0    0  503  502  0.00000000000E+00  0.00000000000E+00  0.34615566314E+02  0.34615566314E+02  0.00000000000E+00 0.  1.
         21   -1    0    0  501  503 -0.00000000000E+00 -0.00000000000E+00 -0.23753598062E+04  0.23753598062E+04  0.00000000000E+00 0.  1.
          6    2    1    2  501    0  0.53898267551E+02  0.16200501726E+03 -0.18171283084E+04  0.18333187587E+04  0.17306568951E+03 0.  0.
         24    2    3    3    0    0  0.29923861980E+02  0.14503232022E+03 -0.17668757475E+04  0.17749213748E+04  0.81031896155E+02 0.  0.
         -6    2    1    2    0  502 -0.53898267551E+02 -0.16200501726E+03 -0.52361593142E+03  0.57665661377E+03  0.17090511315E+03 0.  0.
        -24    2    5    5    0    0 -0.42218886451E+02 -0.84257295792E+02 -0.16506331768E+03  0.20955556098E+03  0.88237792506E+02 0.  0.
          5    1    3    3  501    0  0.23974405571E+02  0.16972697039E+02 -0.50252560900E+02  0.58397383882E+02  0.47000000000E+01 0. -1.
        -13    1    4    4    0    0  0.57964123682E+02  0.91301071720E+02 -0.11534798551E+04  0.11585385196E+04  0.00000000000E+00 0.  1.
         14    1    4    4    0    0 -0.28040261702E+02  0.53731248502E+02 -0.61339589245E+03  0.61638285523E+03  0.00000000000E+00 0. -1.
         -5    1    5    5    0  502 -0.11679381100E+02 -0.77747721469E+02 -0.35855261375E+03  0.36710105279E+03  0.47000000000E+01 0.  1.
         11    1    6    6    0    0 -0.43799665676E+02 -0.66126610571E+01 -0.95592309755E+02  0.10535666891E+03  0.00000000000E+00 0. -1.
        -12    1    6    6    0    0  0.15807792254E+01 -0.77644634735E+02 -0.69471007920E+02  0.10419889207E+03  0.00000000000E+00 0.  1.
<mgrwt>
<rscale>  2 0.24272558E+03</rscale>
<asrwt>0</asrwt>
<pdfrwt beam="1">  1       21 0.53254701E-02 0.24310981E+03</pdfrwt>
<pdfrwt beam="2">  1       21 0.36544009E+00 0.24310981E+03</pdfrwt>
<totfact> 0.32189598E+03</totfact>
</mgrwt>
</event>
<event>
12    1  0.1074575E-001  0.1967038E+03  0.7546771E-02  0.1152737E+00
         21   -1    0    0  503  502  0.00000000000E+00  0.00000000000E+00  0.29921864534E+03  0.29921864534E+03  0.00000000000E+00 0. -1.
         21   -1    0    0  501  503 -0.00000000000E+00 -0.00000000000E+00 -0.13196397075E+03  0.13196397075E+03  0.00000000000E+00 0. -1.
          6    2    1    2  501    0  0.41612982807E+02  0.81467027612E+02  0.11749120400E+03  0.22912132191E+03  0.17413753246E+03 0.  0.
         24    2    3    3    0    0  0.75367036566E+02  0.10104821392E+03  0.11515260880E+03  0.18974724377E+03  0.82782615736E+02 0.  0.
         -6    2    1    2    0  502 -0.41612982807E+02 -0.81467027612E+02  0.49763470588E+02  0.20206129418E+03  0.17315844385E+03 0.  0.
        -24    2    5    5    0    0 -0.34865422541E+02  0.22792305698E+02  0.66149280574E+01  0.88926750940E+02  0.78288714842E+02 0.  0.
          5    1    3    3  501    0 -0.33754053759E+02 -0.19581186303E+02  0.23385952009E+01  0.39374078144E+02  0.47000000000E+01 0. -1.
        -13    1    4    4    0    0  0.58057944264E+02  0.67971694226E+02  0.12255119773E+03  0.15168939374E+03  0.00000000000E+00 0.  1.
         14    1    4    4    0    0  0.17309092302E+02  0.33076519689E+02 -0.73985889244E+01  0.38057850033E+02  0.00000000000E+00 0. -1.
         -5    1    5    5    0  502 -0.67475602659E+01 -0.10425933331E+03  0.43148542530E+02  0.11313454324E+03  0.47000000000E+01 0.  1.
         11    1    6    6    0    0  0.20152849921E+02  0.22968596855E+02  0.13638020035E+02  0.33461760143E+02  0.00000000000E+00 0. -1.
        -12    1    6    6    0    0 -0.55018272462E+02 -0.17629115674E+00 -0.70230919771E+01  0.55464990797E+02  0.00000000000E+00 0.  1.
<mgrwt>
<rscale>  2 0.19648691E+03</rscale>
<asrwt>0</asrwt>
<pdfrwt beam="1">  1       21 0.46033638E-01 0.19670383E+03</pdfrwt>
<pdfrwt beam="2">  1       21 0.20302149E-01 0.19670383E+03</pdfrwt>
<totfact> 0.10134273E+05</totfact>
</mgrwt>
</event>
<event>
12    1  0.1074575E-001  0.2119476E+03  0.7546771E-02  0.1142670E+00
         21   -1    0    0  501  502  0.00000000000E+00  0.00000000000E+00  0.51607992416E+02  0.51607992416E+02  0.00000000000E+00 0.  1.
         21   -1    0    0  502  503 -0.00000000000E+00 -0.00000000000E+00 -0.87074261062E+03  0.87074261062E+03  0.00000000000E+00 0.  1.
         -6    2    1    2    0  503  0.11372997215E+03 -0.45216247853E+02 -0.28364616579E+03  0.34644293016E+03  0.15680733674E+03 0.  0.
        -24    2    3    3    0    0  0.82706485614E+02 -0.24434717759E+02 -0.28536581553E+03  0.30876832459E+03  0.80416487101E+02 0.  0.
          6    2    1    2  501    0 -0.11372997215E+03  0.45216247853E+02 -0.53548845241E+03  0.57590767288E+03  0.17303973351E+03 0.  0.
         24    2    5    5    0    0 -0.42224712174E+02  0.88272818891E+02 -0.29340465339E+03  0.31979534154E+03  0.81288086245E+02 0.  0.
          5    1    5    5  501    0 -0.71505259979E+02 -0.43056571038E+02 -0.24208379902E+03  0.25611233134E+03  0.47000000000E+01 0. -1.
        -13    1    6    6    0    0 -0.79059542397E+01  0.54631151416E+02 -0.24663255185E+03  0.25273441089E+03  0.00000000000E+00 0.  1.
         14    1    6    6    0    0 -0.34318757935E+02  0.33641667475E+02 -0.46772101545E+02  0.67060930650E+02  0.00000000000E+00 0. -1.
         -5    1    3    3    0  503  0.31023486540E+02 -0.20781530094E+02  0.17196497396E+01  0.37674605577E+02  0.47000000000E+01 0.  1.
         11    1    4    4    0    0  0.29651772968E+02  0.28666776106E+02 -0.77967661723E+02  0.88204126701E+02  0.00000000000E+00 0. -1.
        -12    1    4    4    0    0  0.53054712646E+02 -0.53101493865E+02 -0.20739815381E+03  0.22056419788E+03  0.00000000000E+00 0.  1.
<mgrwt>
<rscale>  2 0.20861172E+03</rscale>
<asrwt>0</asrwt>
<pdfrwt beam="1">  1       21 0.79396910E-02 0.21194755E+03</pdfrwt>
<pdfrwt beam="2">  1       21 0.13396040E+00 0.21194755E+03</pdfrwt>
<totfact> 0.48205833E+04</totfact>
</mgrwt>
</event>
<event>
12    1  0.1074575E-001  0.1832184E+03  0.7546771E-02  0.1165087E+00
         21   -1    0    0  503  502  0.00000000000E+00  0.00000000000E+00  0.34306181910E+03  0.34306181910E+03  0.00000000000E+00 0. -1.
         21   -1    0    0  501  503 -0.00000000000E+00 -0.00000000000E+00 -0.68777868724E+03  0.68777868724E+03  0.00000000000E+00 0. -1.
          6    2    1    2  501    0 -0.16762975257E+02 -0.47803193304E+02 -0.65013850772E+03  0.67546211752E+03  0.17607626288E+03 0.  0.
         24    2    3    3    0    0  0.25439208470E+02 -0.41934591292E+02 -0.60909640910E+03  0.61611560405E+03  0.78704121288E+02 0.  0.
         -6    2    1    2    0  502  0.16762975257E+02  0.47803193304E+02  0.30542163958E+03  0.35537838882E+03  0.17448575497E+03 0.  0.
        -24    2    5    5    0    0  0.35758950683E+02  0.37357700974E+02  0.31648414385E+03  0.33059080336E+03  0.80335332109E+02 0.  0.
          5    1    3    3  501    0 -0.42202183728E+02 -0.58686020118E+01 -0.41042098627E+02  0.59346513467E+02  0.47000000000E+01 0. -1.
        -13    1    4    4    0    0  0.79582773859E+01 -0.21668631670E+02 -0.38486895692E+02  0.44878780258E+02  0.00000000000E+00 0.  1.
         14    1    4    4    0    0  0.17480931084E+02 -0.20265959622E+02 -0.57060951340E+03  0.57123682379E+03  0.00000000000E+00 0. -1.
         -5    1    5    5    0  502 -0.18995975426E+02  0.10445492330E+02 -0.11062504265E+02  0.24787585462E+02  0.47000000000E+01 0.  1.
         13    1    6    6    0    0  0.30944519536E+02 -0.20710173560E+02  0.12799295050E+03  0.13329917463E+03  0.00000000000E+00 0. -1.
        -14    1    6    6    0    0  0.48144311476E+01  0.58067874534E+02  0.18849119334E+03  0.19729162873E+03  0.00000000000E+00 0.  1.
<mgrwt>
<rscale>  2 0.18283524E+03</rscale>
<asrwt>0</asrwt>
<pdfrwt beam="1">  1       21 0.52778742E-01 0.18321843E+03</pdfrwt>
<pdfrwt beam="2">  1       21 0.10581211E+00 0.18321843E+03</pdfrwt>
<totfact> 0.24611866E+03</totfact>
</mgrwt>
</event>
<event>
12    1  0.1074575E-001  0.2068141E+03  0.7546771E-02  0.1144479E+00
         21   -1    0    0  503  502  0.00000000000E+00  0.00000000000E+00  0.38486370547E+02  0.38486370547E+02  0.00000000000E+00 0.  1.
         21   -1    0    0  501  503 -0.00000000000E+00 -0.00000000000E+00 -0.11072825854E+04  0.11072825854E+04  0.00000000000E+00 0.  1.
          6    2    1    2  501    0  0.11113854576E+03  0.10683027477E+01 -0.49142313592E+03  0.53247316294E+03  0.17227319324E+03 0.  0.
         24    2    3    3    0    0  0.13702370117E+03 -0.72366124182E+01 -0.47927079117E+03  0.50232714547E+03  0.61678250320E+02 0.  0.
         -6    2    1    2    0  502 -0.11113854576E+03 -0.10683027477E+01 -0.57737307891E+03  0.61329579298E+03  0.17441083629E+03 0.  0.
        -24    2    5    5    0    0 -0.94275307745E+02  0.15144292560E+01 -0.19916192672E+03  0.23467090613E+03  0.80714521518E+02 0.  0.
          5    1    3    3  501    0 -0.25885155411E+02  0.83049151659E+01 -0.12152344748E+02  0.30146017472E+02  0.47000000000E+01 0. -1.
        -13    1    4    4    0    0  0.12941957752E+03  0.10169514447E+02 -0.43916667331E+03  0.45795219512E+03  0.00000000000E+00 0.  1.
         14    1    4    4    0    0  0.76041236525E+01 -0.17406126865E+02 -0.40104117861E+02  0.44374950348E+02  0.00000000000E+00 0. -1.
         -5    1    5    5    0  502 -0.16863238013E+02 -0.25827320037E+01 -0.37821115219E+03  0.37862488685E+03  0.47000000000E+01 0.  1.
         11    1    6    6    0    0  0.12586102996E+02 -0.52650005455E+01 -0.87217285944E+01  0.16192552889E+02  0.00000000000E+00 0. -1.
        -12    1    6    6    0    0 -0.10686141074E+03  0.67794298015E+01 -0.19044019812E+03  0.21847835324E+03  0.00000000000E+00 0.  1.
<mgrwt>
<rscale>  2 0.20636271E+03</rscale>
<asrwt>0</asrwt>
<pdfrwt beam="1">  1       21 0.59209797E-02 0.20681406E+03</pdfrwt>
<pdfrwt beam="2">  1       21 0.17035118E+00 0.20681406E+03</pdfrwt>
<totfact> 0.42424486E+04</totfact>
</mgrwt>
</event>
<event>
12    1  0.1074575E-001  0.2847275E+03  0.7546771E-02  0.1093189E+00
         21   -1    0    0  501  502  0.00000000000E+00  0.00000000000E+00  0.46679641601E+03  0.46679641601E+03  0.00000000000E+00 0.  1.
         21   -1    0    0  502  503 -0.00000000000E+00 -0.00000000000E+00 -0.17379402901E+03  0.17379402901E+03  0.00000000000E+00 0. -1.
         -6    2    1    2    0  503 -0.15886524593E+03 -0.16011556206E+03  0.16120914418E+03  0.32684019184E+03  0.17309235471E+03 0.  0.
        -24    2    3    3    0    0 -0.42359113109E+02 -0.80639755091E+02  0.13783106448E+03  0.18380625360E+03  0.80562224164E+02 0.  0.
          6    2    1    2  501    0  0.15886524593E+03  0.16011556206E+03  0.13179324282E+03  0.31375025317E+03  0.17376594297E+03 0.  0.
         24    2    5    5    0    0  0.64246566780E+02  0.30523662771E+02  0.32476686545E+01  0.10809809675E+03  0.81334714830E+02 0.  0.
          5    1    5    5  501    0  0.94618679151E+02  0.12959189929E+03  0.12854557416E+03  0.20565215643E+03  0.47000000000E+01 0. -1.
        -13    1    6    6    0    0 -0.13477323876E+02 -0.12830155263E+02  0.42837976961E+01  0.19094555917E+02  0.00000000000E+00 0.  1.
         14    1    6    6    0    0  0.77723890656E+02  0.43353818034E+02 -0.10361290417E+01  0.89003540830E+02  0.00000000000E+00 0. -1.
         -5    1    3    3    0  503 -0.11650613282E+03 -0.79475806971E+02  0.23378079698E+02  0.14303393824E+03  0.47000000000E+01 0.  1.
         11    1    4    4    0    0  0.15461742890E+02  0.66826191297E+01  0.20501241086E+02  0.26533446397E+02  0.00000000000E+00 0. -1.
        -12    1    4    4    0    0 -0.57820855999E+02 -0.87322374220E+02  0.11732982339E+03  0.15727280720E+03  0.00000000000E+00 0.  1.
<mgrwt>
<rscale>  2 0.28462482E+03</rscale>
<asrwt>0</asrwt>
<pdfrwt beam="1">  1       21 0.71814833E-01 0.28472752E+03</pdfrwt>
<pdfrwt beam="2">  1       21 0.26737543E-01 0.28472752E+03</pdfrwt>
<totfact> 0.22266762E+04</totfact>
</mgrwt>
</event>
<event>
12    1  0.1074575E-001  0.2931219E+03  0.7546771E-02  0.1088973E+00
         21   -1    0    0  503  502  0.00000000000E+00  0.00000000000E+00  0.73546577082E+02  0.73546577082E+02  0.00000000000E+00 0.  1.
         21   -1    0    0  501  503 -0.00000000000E+00 -0.00000000000E+00 -0.12940028258E+04  0.12940028258E+04  0.00000000000E+00 0. -1.
          6    2    1    2  501    0  0.23453705318E+03  0.73172323537E+01 -0.39259085201E+03  0.48994696929E+03  0.17566810874E+03 0.  0.
         24    2    3    3    0    0  0.21206138878E+03  0.32811698545E+02 -0.23243741073E+03  0.32615949099E+03  0.79411733875E+02 0.  0.
         -6    2    1    2    0  502 -0.23453705318E+03 -0.73172323537E+01 -0.82786539674E+03  0.87760243362E+03  0.17252172379E+03 0.  0.
        -24    2    5    5    0    0 -0.19084904135E+03 -0.66142065953E+02 -0.60082884073E+03  0.63898832844E+03  0.80701044366E+02 0.  0.
          5    1    3    3  501    0  0.22475664399E+02 -0.25494466191E+02 -0.16015344128E+03  0.16378747831E+03  0.47000000000E+01 0. -1.
        -13    1    4    4    0    0  0.18345579019E+03  0.26782891303E+02 -0.23192395116E+03  0.29692098165E+03  0.00000000000E+00 0.  1.
         14    1    4    4    0    0  0.28605598593E+02  0.60288072420E+01 -0.51345957520E+00  0.29238509339E+02  0.00000000000E+00 0. -1.
         -5    1    5    5    0  502 -0.43688011831E+02  0.58824833600E+02 -0.22703655601E+03  0.23861410518E+03  0.47000000000E+01 0.  1.
         11    1    6    6    0    0 -0.69017898215E+02 -0.35645519758E+02 -0.34948774399E+03  0.35801641939E+03  0.00000000000E+00 0. -1.
        -12    1    6    6    0    0 -0.12183114314E+03 -0.30496546196E+02 -0.25134109674E+03  0.28097190906E+03  0.00000000000E+00 0.  1.
<mgrwt>
<rscale>  2 0.29265210E+03</rscale>
<asrwt>0</asrwt>
<pdfrwt beam="1">  1       21 0.11314858E-01 0.29312191E+03</pdfrwt>
<pdfrwt beam="2">  1       21 0.19907736E+00 0.29312191E+03</pdfrwt>
<totfact> 0.82616743E+03</totfact>
</mgrwt>
</event>
<event>
12    1  0.1074575E-001  0.1870887E+03  0.7546771E-02  0.1161663E+00
         21   -1    0    0  503  502  0.00000000000E+00  0.00000000000E+00  0.48601280438E+03  0.48601280438E+03  0.00000000000E+00 0.  1.
         21   -1    0    0  501  503 -0.00000000000E+00 -0.00000000000E+00 -0.71642696493E+02  0.71642696493E+02  0.00000000000E+00 0.  1.
          6    2    1    2  501    0 -0.48454167119E+02 -0.42375768418E+02  0.18179103637E+03  0.25916728480E+03  0.17313632936E+03 0.  0.
         24    2    3    3    0    0  0.19866008668E+02  0.92062524023E+01  0.14320924823E+03  0.16515135175E+03  0.79288503713E+02 0.  0.
         -6    2    1    2    0  502  0.48454167119E+02  0.42375768418E+02  0.23257907151E+03  0.29848821607E+03  0.17566638428E+03 0.  0.
        -24    2    5    5    0    0  0.58092272073E+02 -0.36591715510E+02  0.14169474267E+03  0.17761304156E+03  0.82190794567E+02 0.  0.
          5    1    3    3  501    0 -0.68320175786E+02 -0.51582020820E+02  0.38581788136E+02  0.94015933050E+02  0.47000000000E+01 0. -1.
        -13    1    4    4    0    0  0.17469961701E+02 -0.19571629663E+02  0.13133217679E+03  0.13392680430E+03  0.00000000000E+00 0.  1.
         14    1    4    4    0    0  0.23960469668E+01  0.28777882065E+02  0.11877071442E+02  0.31224547447E+02  0.00000000000E+00 0. -1.
         -5    1    5    5    0  502 -0.96381049545E+01  0.78967483928E+02  0.90884328842E+02  0.12087517452E+03  0.47000000000E+01 0.  1.
         11    1    6    6    0    0  0.47550235212E+02  0.15880965783E+02  0.46360715997E+02  0.68282837746E+02  0.00000000000E+00 0. -1.
        -12    1    6    6    0    0  0.10542036861E+02 -0.52472681293E+02  0.95334026674E+02  0.10933020381E+03  0.00000000000E+00 0.  1.
<mgrwt>
<rscale>  2 0.18649250E+03</rscale>
<asrwt>0</asrwt>
<pdfrwt beam="1">  1       21 0.74771199E-01 0.18708872E+03</pdfrwt>
<pdfrwt beam="2">  1       21 0.11021954E-01 0.18708872E+03</pdfrwt>
<totfact> 0.10955032E+05</totfact>
</mgrwt>
</event>
<event>
12    1  0.1074575E-001  0.1961884E+03  0.7546771E-02  0.1153264E+00
         21   -1    0    0  501  502  0.00000000000E+00  0.00000000000E+00  0.78861222748E+02  0.78861222748E+02  0.00000000000E+00 0.  1.
         21   -1    0    0  502  503 -0.00000000000E+00 -0.00000000000E+00 -0.51749883703E+03  0.51749883703E+03  0.00000000000E+00 0. -1.
         -6    2    1    2    0  503  0.79051279352E+02 -0.39588071109E+02 -0.29339166238E+03  0.35225705854E+03  0.17375283478E+03 0.  0.
        -24    2    3    3    0    0  0.28873405288E+01 -0.75008644900E+02 -0.18029366227E+03  0.21130029121E+03  0.80668301504E+02 0.  0.
          6    2    1    2  501    0 -0.79051279352E+02  0.39588071109E+02 -0.14524595190E+03  0.24410300124E+03  0.17513871226E+03 0.  0.
         24    2    5    5    0    0  0.23665164798E+02 -0.11401973630E+02 -0.43524230372E+02  0.90740518242E+02  0.75162743389E+02 0.  0.
          5    1    5    5  501    0 -0.10271644415E+03  0.50990044739E+02 -0.10172172153E+03  0.15336248300E+03  0.47000000000E+01 0. -1.
        -13    1    6    6    0    0  0.49271195905E+01 -0.39889580797E+02 -0.39590021574E+02  0.56416531015E+02  0.00000000000E+00 0.  1.
         14    1    6    6    0    0  0.18738045207E+02  0.28487607167E+02 -0.39342087982E+01  0.34323987227E+02  0.00000000000E+00 0. -1.
         -5    1    3    3    0  503  0.76163938823E+02  0.35420573790E+02 -0.11309800012E+03  0.14095676733E+03  0.47000000000E+01 0.  1.
         13    1    4    4    0    0  0.18709443184E+02 -0.20563273964E+02 -0.13745545639E+03  0.14023870362E+03  0.00000000000E+00 0. -1.
        -14    1    4    4    0    0 -0.15822102655E+02 -0.54445370936E+02 -0.42838205874E+02  0.71061587593E+02  0.00000000000E+00 0.  1.
<mgrwt>
<rscale>  2 0.19587862E+03</rscale>
<asrwt>0</asrwt>
<pdfrwt beam="1">  1       21 0.12132496E-01 0.19618840E+03</pdfrwt>
<pdfrwt beam="2">  1       21 0.79615207E-01 0.19618840E+03</pdfrwt>
<totfact> 0.79881207E+04</totfact>
</mgrwt>
</event>
<event>
12    1  0.1074575E-001  0.3963502E+03  0.7546771E-02  0.1045160E+00
         21   -1    0    0  503  502  0.00000000000E+00  0.00000000000E+00  0.13366619890E+03  0.13366619890E+03  0.00000000000E+00 0.  1.
         21   -1    0    0  501  503 -0.00000000000E+00 -0.00000000000E+00 -0.31034448965E+04  0.31034448965E+04  0.00000000000E+00 0. -1.
          6    2    1    2  501    0  0.10438283380E+03  0.34157243486E+03 -0.27627874947E+04  0.27910729452E+04  0.17183113882E+03 0.  0.
         24    2    3    3    0    0  0.73996753781E+01  0.24674634318E+03 -0.19135954934E+04  0.19311038378E+04  0.79848649021E+02 0.  0.
         -6    2    1    2    0  502 -0.10438283380E+03 -0.34157243486E+03 -0.20699120282E+03  0.44603815014E+03  0.16892947962E+03 0.  0.
        -24    2    5    5    0    0  0.10143714900E+01 -0.10203112041E+03 -0.10260384169E+03  0.16424492209E+03  0.77701142977E+02 0.  0.
          5    1    3    3  501    0  0.96983158421E+02  0.94826091682E+02 -0.84919200132E+03  0.85996910746E+03  0.47000000000E+01 0. -1.
        -13    1    4    4    0    0  0.34274290365E+02  0.11268413442E+03 -0.70124374031E+03  0.71106625884E+03  0.00000000000E+00 0.  1.
         14    1    4    4    0    0 -0.26874614987E+02  0.13406220876E+03 -0.12123517531E+04  0.12200375789E+04  0.00000000000E+00 0. -1.
         -5    1    5    5    0  502 -0.10539720529E+03 -0.23954131445E+03 -0.10438736113E+03  0.28179322805E+03  0.47000000000E+01 0.  1.
         11    1    6    6    0    0 -0.13586632673E+02 -0.15359896407E+02  0.88244025272E+01  0.22324719147E+02  0.00000000000E+00 0. -1.
        -12    1    6    6    0    0  0.14601004163E+02 -0.86671224006E+02 -0.11142824422E+03  0.14192020294E+03  0.00000000000E+00 0.  1.
<mgrwt>
<rscale>  2 0.39603746E+03</rscale>
<asrwt>0</asrwt>
<pdfrwt beam="1">  1       21 0.20564031E-01 0.39635015E+03</pdfrwt>
<pdfrwt beam="2">  1       21 0.47745304E+00 0.39635015E+03</pdfrwt>
<totfact> 0.45850640E+01</totfact>
</mgrwt>
</event>
<event>
12    1  0.1074575E-001  0.4467241E+03  0.7546771E-02  0.1028732E+00
         21   -1    0    0  501  502  0.00000000000E+00  0.00000000000E+00  0.30099729712E+03  0.30099729712E+03  0.00000000000E+00 0. -1.
         21   -1    0    0  502  503 -0.00000000000E+00 -0.00000000000E+00 -0.80509638054E+03  0.80509638054E+03  0.00000000000E+00 0. -1.
         -6    2    1    2    0  503 -0.42928313696E+02 -0.40910837064E+03 -0.48475600635E+03  0.65895096867E+03  0.17324980340E+03 0.  0.
        -24    2    3    3    0    0 -0.67977507254E+02 -0.19170598183E+03 -0.30965608385E+03  0.37864161525E+03  0.78169415823E+02 0.  0.
          6    2    1    2  501    0  0.42928313696E+02  0.40910837064E+03 -0.19343077070E+02  0.44714270899E+03  0.17421236618E+03 0.  0.
         24    2    5    5    0    0 -0.35538604411E+01  0.33088853021E+03  0.33216690128E+02  0.34195927362E+03  0.79579815038E+02 0.  0.
          5    1    5    5  501    0  0.46482174137E+02  0.78219840430E+02 -0.52559767198E+02  0.10518343538E+03  0.47000000000E+01 0. -1.
        -13    1    6    6    0    0 -0.71233844317E+01  0.77986542226E+02  0.42032657217E+02  0.88878499351E+02  0.00000000000E+00 0.  1.
         14    1    6    6    0    0  0.35695239906E+01  0.25290198799E+03 -0.88159670887E+01  0.25308077427E+03  0.00000000000E+00 0. -1.
         -5    1    3    3    0  503  0.25049193557E+02 -0.21740238881E+03 -0.17509992249E+03  0.28030935342E+03  0.47000000000E+01 0.  1.
         11    1    4    4    0    0 -0.15387644223E+02 -0.19025940110E+02 -0.56983433907E+01  0.25124432515E+02  0.00000000000E+00 0. -1.
        -12    1    4    4    0    0 -0.52589863030E+02 -0.17268004172E+03 -0.30395774046E+03  0.35351718273E+03  0.00000000000E+00 0.  1.
<mgrwt>
<rscale>  2 0.44663048E+03</rscale>
<asrwt>0</asrwt>
<pdfrwt beam="1">  1       21 0.46307276E-01 0.44672413E+03</pdfrwt>
<pdfrwt beam="2">  1       21 0.12386098E+00 0.44672413E+03</pdfrwt>
<totfact> 0.18753692E+03</totfact>
</mgrwt>
</event>
<event>
12    1  0.1074575E-001  0.2468309E+03  0.7546771E-02  0.1115434E+00
         21   -1    0    0  501  502  0.00000000000E+00  0.00000000000E+00  0.27864885902E+03  0.27864885902E+03  0.00000000000E+00 0.  1.
         21   -1    0    0  502  503 -0.00000000000E+00 -0.00000000000E+00 -0.25073285411E+03  0.25073285411E+03  0.00000000000E+00 0. -1.
         -6    2    1    2    0  503 -0.70707155134E+02  0.16023123590E+03 -0.81631374196E+02  0.25933336403E+03  0.17296404742E+03 0.  0.
        -24    2    3    3    0    0 -0.18110001875E+02  0.14888978901E+03 -0.10568377488E+03  0.20020894498E+03  0.80115041901E+02 0.  0.
          6    2    1    2  501    0  0.70707155134E+02 -0.16023123590E+03  0.10954737911E+03  0.27004834910E+03  0.17393082485E+03 0.  0.
         24    2    5    5    0    0 -0.26756270476E+02 -0.53838112074E+02  0.29288780001E+02  0.10487526152E+03  0.80787050466E+02 0.  0.
          5    1    5    5  501    0  0.97463425611E+02 -0.10639312383E+03  0.80258599111E+02  0.16517308758E+03  0.47000000000E+01 0. -1.
        -11    1    6    6    0    0 -0.26625036221E+02 -0.71463962073E+02  0.38009243639E+02  0.85209700334E+02  0.00000000000E+00 0.  1.
         12    1    6    6    0    0 -0.13123425511E+00  0.17625849999E+02 -0.87204636374E+01  0.19665561184E+02  0.00000000000E+00 0. -1.
         -5    1    3    3    0  503 -0.52597153259E+02  0.11341446894E+02  0.24052400689E+02  0.59124419046E+02  0.47000000000E+01 0.  1.
         13    1    4    4    0    0 -0.49832190168E+02  0.81679086060E+02 -0.61678627041E+02  0.11383748640E+03  0.00000000000E+00 0. -1.
        -14    1    4    4    0    0  0.31722188293E+02  0.67210702948E+02 -0.44005147843E+02  0.86371458582E+02  0.00000000000E+00 0.  1.
<mgrwt>
<rscale>  2 0.24666063E+03</rscale>
<asrwt>0</asrwt>
<pdfrwt beam="1">  1       21 0.42869055E-01 0.24683088E+03</pdfrwt>
<pdfrwt beam="2">  1       21 0.38574285E-01 0.24683088E+03</pdfrwt>
<totfact> 0.33021436E+04</totfact>
</mgrwt>
</event>
<event>
12    1  0.1074575E-001  0.2441716E+03  0.7546771E-02  0.1117093E+00
         21   -1    0    0  503  502  0.00000000000E+00  0.00000000000E+00  0.48395088862E+02  0.48395088862E+02  0.00000000000E+00 0. -1.
         21   -1    0    0  501  503 -0.00000000000E+00 -0.00000000000E+00 -0.12746699093E+04  0.12746699093E+04  0.00000000000E+00 0.  1.
          6    2    1    2  501    0 -0.17105986618E+03  0.30681188643E+01 -0.73598796956E+03  0.77534155800E+03  0.17379686147E+03 0.  0.
         24    2    3    3    0    0 -0.48188563379E+02  0.24640134291E+02 -0.17046283418E+03  0.19620126615E+03  0.80672703829E+02 0.  0.
         -6    2    1    2    0  502  0.17105986618E+03 -0.30681188643E+01 -0.49028685089E+03  0.54772344017E+03  0.17420929822E+03 0.  0.
        -24    2    5    5    0    0  0.50836026037E+02  0.98784108058E+01 -0.34709192535E+03  0.36024474520E+03  0.81373135943E+02 0.  0.
          5    1    3    3  501    0 -0.12287130280E+03 -0.21572015427E+02 -0.56552513537E+03  0.57914029185E+03  0.47000000000E+01 0. -1.
        -13    1    4    4    0    0  0.82010770739E+01  0.62384784933E+01 -0.11348664970E+03  0.11395348147E+03  0.00000000000E+00 0.  1.
         14    1    4    4    0    0 -0.56389640453E+02  0.18401655798E+02 -0.56976184481E+02  0.82247784678E+02  0.00000000000E+00 0. -1.
         -5    1    5    5    0  502  0.12022384014E+03 -0.12946529670E+02 -0.14319492553E+03  0.18747869497E+03  0.47000000000E+01 0.  1.
         13    1    6    6    0    0 -0.11340033669E+02 -0.21993868100E+02 -0.12485269957E+03  0.12728127587E+03  0.00000000000E+00 0. -1.
        -14    1    6    6    0    0  0.62176059706E+02  0.31872278906E+02 -0.22223922579E+03  0.23296346933E+03  0.00000000000E+00 0.  1.
<mgrwt>
<rscale>  2 0.24409805E+03</rscale>
<asrwt>0</asrwt>
<pdfrwt beam="1">  1       21 0.74453978E-02 0.24417160E+03</pdfrwt>
<pdfrwt beam="2">  1       21 0.19610308E+00 0.24417160E+03</pdfrwt>
<totfact> 0.18661573E+04</totfact>
</mgrwt>
</event>
<event>
12    1  0.1074575E-001  0.2370812E+03  0.7546771E-02  0.1121812E+00
         21   -1    0    0  501  502  0.00000000000E+00  0.00000000000E+00  0.12690330813E+03  0.12690330813E+03  0.00000000000E+00 0. -1.
         21   -1    0    0  502  503 -0.00000000000E+00 -0.00000000000E+00 -0.53578303683E+03  0.53578303683E+03  0.00000000000E+00 0. -1.
         -6    2    1    2    0  503  0.25149273674E+02 -0.15996981395E+03 -0.66130903471E+02  0.24613163852E+03  0.17316079160E+03 0.  0.
        -24    2    3    3    0    0  0.10357088892E+02 -0.98037216176E+02  0.28960511044E+02  0.13159377355E+03  0.82217060224E+02 0.  0.
          6    2    1    2  501    0 -0.25149273674E+02  0.15996981395E+03 -0.34274882523E+03  0.41655470643E+03  0.17267958452E+03 0.  0.
         24    2    5    5    0    0 -0.44765579653E+02  0.12017775806E+03 -0.13276723535E+03  0.20188620557E+03  0.81757266125E+02 0.  0.
          5    1    5    5  501    0  0.19616305979E+02  0.39792055895E+02 -0.20998158988E+03  0.21466850086E+03  0.47000000000E+01 0. -1.
        -13    1    6    6    0    0 -0.38838845056E+02  0.10011881763E+02 -0.49241492309E+02  0.63509197968E+02  0.00000000000E+00 0.  1.
         14    1    6    6    0    0 -0.59267345976E+01  0.11016587630E+03 -0.83525743038E+02  0.13837700760E+03  0.00000000000E+00 0. -1.
         -5    1    3    3    0  503  0.14792184782E+02 -0.61932597778E+02 -0.95091414515E+02  0.11453786497E+03  0.47000000000E+01 0.  1.
         11    1    4    4    0    0 -0.50296494355E+01 -0.10677603300E+03  0.35640888673E+02  0.11267959683E+03  0.00000000000E+00 0. -1.
        -12    1    4    4    0    0  0.15386738328E+02  0.87388168222E+01 -0.66803776290E+01  0.18914176722E+02  0.00000000000E+00 0.  1.
<mgrwt>
<rscale>  2 0.23699332E+03</rscale>
<asrwt>0</asrwt>
<pdfrwt beam="1">  1       21 0.19523586E-01 0.23708118E+03</pdfrwt>
<pdfrwt beam="2">  1       21 0.82428159E-01 0.23708118E+03</pdfrwt>
<totfact> 0.30317706E+04</totfact>
</mgrwt>
</event>
<event>
12    1  0.1074575E-001  0.1990179E+03  0.7546771E-02  0.1150968E+00
         21   -1    0    0  501  502  0.00000000000E+00  0.00000000000E+00  0.29629692191E+02  0.29629692191E+02  0.00000000000E+00 0.  1.
         21   -1    0    0  502  503 -0.00000000000E+00 -0.00000000000E+00 -0.13545099724E+04  0.13545099724E+04  0.00000000000E+00 0.  1.
         -6    2    1    2    0  503  0.68560803450E+02 -0.65603606702E+02 -0.56210430100E+03  0.59629639114E+03  0.17493920060E+03 0.  0.
        -24    2    3    3    0    0  0.41314319666E+02 -0.69636626130E+02 -0.18180333983E+03  0.21497035323E+03  0.81262941658E+02 0.  0.
          6    2    1    2  501    0 -0.68560803450E+02  0.65603606702E+02 -0.76277597918E+03  0.78784327342E+03  0.17281612214E+03 0.  0.
         24    2    5    5    0    0 -0.70749332208E+02  0.49070112046E+02 -0.31005763791E+03  0.33479346089E+03  0.92399019080E+02 0.  0.
          5    1    5    5  501    0  0.21885287581E+01  0.16533494656E+02 -0.45271834128E+03  0.45304981253E+03  0.47000000000E+01 0. -1.
        -13    1    6    6    0    0 -0.75879283689E+02  0.61432713831E+01 -0.14036300263E+03  0.15967835791E+03  0.00000000000E+00 0.  1.
         14    1    6    6    0    0  0.51299514810E+01  0.42926840663E+02 -0.16969463528E+03  0.17511510298E+03  0.00000000000E+00 0. -1.
         -5    1    3    3    0  503  0.27246483784E+02  0.40330194278E+01 -0.38030096117E+03  0.38132603791E+03  0.47000000000E+01 0.  1.
         11    1    4    4    0    0  0.58211017883E+01 -0.77839641581E+02 -0.11747764640E+03  0.14104571043E+03  0.00000000000E+00 0. -1.
        -12    1    4    4    0    0  0.35493217878E+02  0.82030154510E+01 -0.64325693427E+02  0.73924642797E+02  0.00000000000E+00 0.  1.
<mgrwt>
<rscale>  2 0.19855039E+03</rscale>
<asrwt>0</asrwt>
<pdfrwt beam="1">  1       21 0.45584136E-02 0.19901794E+03</pdfrwt>
<pdfrwt beam="2">  1       21 0.20838618E+00 0.19901794E+03</pdfrwt>
<totfact> 0.37190905E+04</totfact>
</mgrwt>
</event>
<event>
12    1  0.1074575E-001  0.1973025E+03  0.7546771E-02  0.1152404E+00
         21   -1    0    0  501  502  0.00000000000E+00  0.00000000000E+00  0.34812882377E+03  0.34812882377E+03  0.00000000000E+00 0. -1.
         21   -1    0    0  502  503 -0.00000000000E+00 -0.00000000000E+00 -0.27767602607E+03  0.27767602607E+03  0.00000000000E+00 0. -1.
         -6    2    1    2    0  503  0.92737079776E+02 -0.97214413013E+00 -0.20736406781E+03  0.28505495706E+03  0.17220731952E+03 0.  0.
        -24    2    3    3    0    0  0.33006069585E+01 -0.11509663503E+02 -0.16721207252E+03  0.18634226937E+03  0.81364597944E+02 0.  0.
          6    2    1    2  501    0 -0.92737079776E+02  0.97214413013E+00  0.27781686551E+03  0.34074989278E+03  0.17414697138E+03 0.  0.
         24    2    5    5    0    0 -0.11101851099E+03 -0.10004450812E+02  0.11921802332E+03  0.18065498622E+03  0.77447324964E+02 0.  0.
          5    1    5    5  501    0  0.18281431209E+02  0.10976594942E+02  0.15859884219E+03  0.16009490656E+03  0.47000000000E+01 0. -1.
        -13    1    6    6    0    0 -0.68365425928E+02 -0.42525054728E+02  0.84759953470E+02  0.11690364175E+03  0.00000000000E+00 0.  1.
         14    1    6    6    0    0 -0.42653085057E+02  0.32520603916E+02  0.34458069849E+02  0.63751344469E+02  0.00000000000E+00 0. -1.
         -5    1    3    3    0  503  0.89436472817E+02  0.10537519373E+02 -0.40151995290E+02  0.98712687687E+02  0.47000000000E+01 0.  1.
         13    1    4    4    0    0  0.25311166072E+02 -0.11902454256E+02 -0.16107968111E+03  0.16349002175E+03  0.00000000000E+00 0. -1.
        -14    1    4    4    0    0 -0.22010559113E+02  0.39279075277E+00 -0.61323914106E+01  0.22852247624E+02  0.00000000000E+00 0.  1.
<mgrwt>
<rscale>  2 0.19687364E+03</rscale>
<asrwt>0</asrwt>
<pdfrwt beam="1">  1       21 0.53558281E-01 0.19730251E+03</pdfrwt>
<pdfrwt beam="2">  1       21 0.42719388E-01 0.19730251E+03</pdfrwt>
<totfact> 0.17338885E+04</totfact>
</mgrwt>
</event>
<event>
12    1  0.1074575E-001  0.2565501E+03  0.7546771E-02  0.1109511E+00
         21   -1    0    0  501  502  0.00000000000E+00  0.00000000000E+00  0.19486301972E+04  0.19486301972E+04  0.00000000000E+00 0. -1.
         21   -1    0    0  502  503 -0.00000000000E+00 -0.00000000000E+00 -0.74812805020E+02  0.74812805020E+02  0.00000000000E+00 0. -1.
         -6    2    1    2    0  503 -0.18229423885E+03 -0.64658286721E+02  0.18395725553E+03  0.31421942093E+03  0.16577602079E+03 0.  0.
        -24    2    3    3    0    0 -0.16769882101E+03 -0.17337862704E+02  0.88663920259E+02  0.20672449780E+03  0.80313331300E+02 0.  0.
          6    2    1    2  501    0  0.18229423885E+03  0.64658286721E+02  0.16898601366E+04  0.17092235813E+04  0.16854105090E+03 0.  0.
         24    2    5    5    0    0  0.79064124578E+02 -0.29602725364E+02  0.68601670710E+03  0.69568260238E+03  0.78917068372E+02 0.  0.
          5    1    5    5  501    0  0.10323011427E+03  0.94261012084E+02  0.10038434295E+04  0.10135409789E+04  0.47000000000E+01 0. -1.
        -13    1    6    6    0    0  0.81349955209E+02 -0.27100597946E+02  0.37622663618E+03  0.38587399419E+03  0.00000000000E+00 0.  1.
         14    1    6    6    0    0 -0.22858306311E+01 -0.25021274182E+01  0.30979007092E+03  0.30980860818E+03  0.00000000000E+00 0. -1.
         -5    1    3    3    0  503 -0.14595417833E+02 -0.47320424017E+02  0.95293335271E+02  0.10749492313E+03  0.47000000000E+01 0.  1.
         11    1    4    4    0    0 -0.33697769901E+02  0.16001500986E+02 -0.80186388557E+01  0.38156078142E+02  0.00000000000E+00 0. -1.
        -12    1    4    4    0    0 -0.13400105111E+03 -0.33339363690E+02  0.96682559115E+02  0.16856841966E+03  0.00000000000E+00 0.  1.
<mgrwt>
<rscale>  2 0.25609694E+03</rscale>
<asrwt>0</asrwt>
<pdfrwt beam="1">  1       21 0.29978922E+00 0.25655013E+03</pdfrwt>
<pdfrwt beam="2">  1       21 0.11509664E-01 0.25655013E+03</pdfrwt>
<totfact> 0.20176122E+03</totfact>
</mgrwt>
</event>
<event>
12    1  0.1074575E-001  0.1864374E+03  0.7546771E-02  0.1161889E+00
         21   -1    0    0  501  502  0.00000000000E+00  0.00000000000E+00  0.36820391196E+03  0.36820391196E+03  0.00000000000E+00 0. -1.
         21   -1    0    0  502  503 -0.00000000000E+00 -0.00000000000E+00 -0.10128231627E+03  0.10128231627E+03  0.00000000000E+00 0.  1.
         -6    2    1    2    0  503  0.50521732591E+02  0.47866665444E+02  0.19606960583E+03  0.27003975288E+03  0.17214678236E+03 0.  0.
        -24    2    3    3    0    0  0.90219469268E+02  0.59223638578E+02  0.17883146172E+03  0.22504936781E+03  0.83782660788E+02 0.  0.
          6    2    1    2  501    0 -0.50521732591E+02 -0.47866665444E+02  0.70851989864E+02  0.19944647535E+03  0.17296019466E+03 0.  0.
         24    2    5    5    0    0  0.40294190646E+02 -0.29258487908E+02  0.52019396828E+02  0.10473347337E+03  0.76048681008E+02 0.  0.
          5    1    5    5  501    0 -0.90815923236E+02 -0.18608177536E+02  0.18832593036E+02  0.94713001985E+02  0.47000000000E+01 0. -1.
        -11    1    6    6    0    0  0.52373867251E+02 -0.11923503361E+02  0.59405827947E+01  0.54041488018E+02  0.00000000000E+00 0.  1.
         12    1    6    6    0    0 -0.12079676605E+02 -0.17334984547E+02  0.46078814033E+02  0.50691985351E+02  0.00000000000E+00 0. -1.
         -5    1    3    3    0  503 -0.39697736677E+02 -0.11356973135E+02  0.17238144112E+02  0.44990385067E+02  0.47000000000E+01 0.  1.
         11    1    4    4    0    0  0.41710198635E+02  0.59170426737E+02  0.15484806720E+03  0.17093508706E+03  0.00000000000E+00 0. -1.
        -12    1    4    4    0    0  0.48509270632E+02  0.53211840866E-01  0.23983394518E+02  0.54114280753E+02  0.00000000000E+00 0.  1.
<mgrwt>
<rscale>  2 0.18624849E+03</rscale>
<asrwt>0</asrwt>
<pdfrwt beam="1">  1       21 0.56646755E-01 0.18643737E+03</pdfrwt>
<pdfrwt beam="2">  1       21 0.15581895E-01 0.18643737E+03</pdfrwt>
<totfact> 0.10748010E+05</totfact>
</mgrwt>
</event>
<event>
12    1  0.1074575E-001  0.1852776E+03  0.7546771E-02  0.1164099E+00
         21   -1    0    0  501  502  0.00000000000E+00  0.00000000000E+00  0.40391192008E+02  0.40391192008E+02  0.00000000000E+00 0. -1.
         21   -1    0    0  502  503 -0.00000000000E+00 -0.00000000000E+00 -0.95623017410E+03  0.95623017410E+03  0.00000000000E+00 0. -1.
         -6    2    1    2    0  503  0.45918894490E+02 -0.10109427385E+02 -0.64866617185E+03  0.67460773082E+03  0.17921228358E+03 0.  0.
        -24    2    3    3    0    0  0.46094456706E+01 -0.68625674889E+02 -0.26202390462E+03  0.28135850375E+03  0.75995728798E+02 0.  0.
          6    2    1    2  501    0 -0.45918894490E+02  0.10109427385E+02 -0.26717281025E+03  0.32201363530E+03  0.17349560625E+03 0.  0.
         24    2    5    5    0    0  0.18442087093E+02  0.26944286409E+02 -0.59505827805E+02  0.10390032982E+03  0.78665302691E+02 0.  0.
          5    1    5    5  501    0 -0.64360981583E+02 -0.16834859023E+02 -0.20766698245E+03  0.21811330548E+03  0.47000000000E+01 0. -1.
        -11    1    6    6    0    0 -0.62961380877E+01 -0.16199883060E+02  0.87412236004E+01  0.19454730942E+02  0.00000000000E+00 0.  1.
         12    1    6    6    0    0  0.24738225180E+02  0.43144169469E+02 -0.68247051406E+02  0.84445598878E+02  0.00000000000E+00 0. -1.
         -5    1    3    3    0  503  0.41309448819E+02  0.58516247504E+02 -0.38664226723E+03  0.39324922707E+03  0.47000000000E+01 0.  1.
         13    1    4    4    0    0  0.36674691919E+02 -0.16349223753E+02 -0.12357170190E+03  0.12993188853E+03  0.00000000000E+00 0. -1.
        -14    1    4    4    0    0 -0.32065246249E+02 -0.52276451136E+02 -0.13845220271E+03  0.15142661522E+03  0.00000000000E+00 0.  1.
<mgrwt>
<rscale>  2 0.18388096E+03</rscale>
<asrwt>0</asrwt>
<pdfrwt beam="1">  1       21 0.62140289E-02 0.18527760E+03</pdfrwt>
<pdfrwt beam="2">  1       21 0.14711235E+00 0.18527760E+03</pdfrwt>
<totfact> 0.58637775E+04</totfact>
</mgrwt>
</event>
<event>
12    1  0.1074575E-001  0.2386094E+03  0.7546771E-02  0.1120725E+00
         21   -1    0    0  503  502  0.00000000000E+00  0.00000000000E+00  0.11822925067E+03  0.11822925067E+03  0.00000000000E+00 0.  1.
         21   -1    0    0  501  503 -0.00000000000E+00 -0.00000000000E+00 -0.58351626754E+03  0.58351626754E+03  0.00000000000E+00 0.  1.
          6    2    1    2  501    0  0.14996156053E+03 -0.68661918462E+02 -0.37932426207E+03  0.44812368219E+03  0.17240942567E+03 0.  0.
         24    2    3    3    0    0  0.62444842719E+01 -0.21261597390E+02 -0.16059852806E+03  0.18210784589E+03  0.82947761939E+02 0.  0.
         -6    2    1    2    0  502 -0.14996156053E+03  0.68661918462E+02 -0.85962754804E+02  0.25362183603E+03  0.17242828020E+03 0.  0.
        -24    2    5    5    0    0 -0.15373904255E+03  0.10382372208E+03 -0.64688890035E+02  0.21208523618E+03  0.79877634166E+02 0.  0.
          5    1    3    3  501    0  0.14371707626E+03 -0.47400321072E+02 -0.21872573401E+03  0.26601583630E+03  0.47000000000E+01 0. -1.
        -13    1    4    4    0    0  0.29894742013E+02  0.29389605353E+01 -0.13843737452E+03  0.14165888519E+03  0.00000000000E+00 0.  1.
         14    1    4    4    0    0 -0.23650257741E+02 -0.24200557925E+02 -0.22161153537E+02  0.40448960694E+02  0.00000000000E+00 0. -1.
         -5    1    5    5    0  502  0.37774820238E+01 -0.35161803622E+02 -0.21273864769E+02  0.41536599844E+02  0.47000000000E+01 0.  1.
         11    1    6    6    0    0 -0.41199802280E+01  0.24126309765E+02 -0.30575837756E+02  0.39165481159E+02  0.00000000000E+00 0. -1.
        -12    1    6    6    0    0 -0.14961906233E+03  0.79697412319E+02 -0.34113052279E+02  0.17291975502E+03  0.00000000000E+00 0.  1.
<mgrwt>
<rscale>  2 0.23860598E+03</rscale>
<asrwt>0</asrwt>
<pdfrwt beam="1">  1       21 0.18189116E-01 0.23860939E+03</pdfrwt>
<pdfrwt beam="2">  1       21 0.89771732E-01 0.23860939E+03</pdfrwt>
<totfact> 0.28396658E+04</totfact>
</mgrwt>
</event>
<event>
12    1  0.1074575E-001  0.1898367E+03  0.7546771E-02  0.1158903E+00
         21   -1    0    0  501  502  0.00000000000E+00  0.00000000000E+00  0.20288786594E+04  0.20288786594E+04  0.00000000000E+00 0.  1.
         21   -1    0    0  502  503 -0.00000000000E+00 -0.00000000000E+00 -0.17645515810E+02  0.17645515810E+02  0.00000000000E+00 0.  1.
         -6    2    1    2    0  503 -0.73167858795E+02  0.18608255986E+02  0.99330812825E+03  0.10112858145E+04  0.17417852391E+03 0.  0.
        -24    2    3    3    0    0 -0.89671621028E+02 -0.42315800085E+02  0.65428657855E+03  0.66640639217E+03  0.78580698045E+02 0.  0.
          6    2    1    2  501    0  0.73167858795E+02 -0.18608255986E+02  0.10179250153E+04  0.10352383607E+04  0.17276378063E+03 0.  0.
         24    2    5    5    0    0 -0.15261072298E+02 -0.40591041971E+01  0.27250202707E+03  0.28443287652E+03  0.79970806109E+02 0.  0.
          5    1    5    5  501    0  0.88428931092E+02 -0.14549151789E+02  0.74542298823E+03  0.75080548416E+03  0.47000000000E+01 0. -1.
        -13    1    6    6    0    0 -0.29885609867E+01  0.32213232378E+02  0.19841465923E+03  0.20103482493E+03  0.00000000000E+00 0.  1.
         14    1    6    6    0    0 -0.12272511311E+02 -0.36272336576E+02  0.74087367843E+02  0.83398051587E+02  0.00000000000E+00 0. -1.
         -5    1    3    3    0  503  0.16503762233E+02  0.60924056071E+02  0.33902154971E+03  0.34487942232E+03  0.47000000000E+01 0.  1.
         11    1    4    4    0    0 -0.20270433795E+02  0.23027880363E+02  0.13482332257E+03  0.13826967154E+03  0.00000000000E+00 0. -1.
        -12    1    4    4    0    0 -0.69401187234E+02 -0.65343680448E+02  0.51946325598E+03  0.52813672063E+03  0.00000000000E+00 0.  1.
<mgrwt>
<rscale>  2 0.18951153E+03</rscale>
<asrwt>0</asrwt>
<pdfrwt beam="1">  1       21 0.31213499E+00 0.18983667E+03</pdfrwt>
<pdfrwt beam="2">  1       21 0.27146963E-02 0.18983667E+03</pdfrwt>
<totfact> 0.21748565E+04</totfact>
</mgrwt>
</event>
<event>
12    1  0.1074575E-001  0.1891494E+03  0.7546771E-02  0.1159523E+00
         21   -1    0    0  503  502  0.00000000000E+00  0.00000000000E+00  0.15092597717E+03  0.15092597717E+03  0.00000000000E+00 0.  1.
         21   -1    0    0  501  503 -0.00000000000E+00 -0.00000000000E+00 -0.64903205858E+03  0.64903205858E+03  0.00000000000E+00 0.  1.
          6    2    1    2  501    0  0.28811618972E+02 -0.71284089818E+02 -0.56803530269E+03  0.59829600952E+03  0.17141318227E+03 0.  0.
         24    2    3    3    0    0 -0.44712645138E+02 -0.68730823690E+02 -0.37650632336E+03  0.39306985011E+03  0.77612813238E+02 0.  0.
         -6    2    1    2    0  502 -0.28811618972E+02  0.71284089818E+02  0.69929221285E+02  0.20166202622E+03  0.17281766687E+03 0.  0.
        -24    2    5    5    0    0 -0.59450519551E+02  0.17613122025E+02 -0.86971744281E+01  0.10154451969E+03  0.79944119813E+02 0.  0.
          5    1    3    3  501    0  0.73524264110E+02 -0.25532661277E+01 -0.19152897933E+03  0.20522615941E+03  0.47000000000E+01 0. -1.
        -11    1    4    4    0    0  0.12064652579E+01 -0.57196391675E+02 -0.12960197732E+03  0.14166705793E+03  0.00000000000E+00 0.  1.
         12    1    4    4    0    0 -0.45919110396E+02 -0.11534432015E+02 -0.24690434604E+03  0.25140279218E+03  0.00000000000E+00 0. -1.
         -5    1    5    5    0  502  0.30638900579E+02  0.53670967793E+02  0.78626395714E+02  0.10011750654E+03  0.47000000000E+01 0.  1.
         13    1    6    6    0    0  0.22891602047E+01  0.83501732403E+01 -0.33325283699E+02  0.34431674098E+02  0.00000000000E+00 0. -1.
        -14    1    6    6    0    0 -0.61739679756E+02  0.92629487846E+01  0.24628109271E+02  0.67112845587E+02  0.00000000000E+00 0.  1.
<mgrwt>
<rscale>  2 0.18882794E+03</rscale>
<asrwt>0</asrwt>
<pdfrwt beam="1">  1       21 0.23219381E-01 0.18914935E+03</pdfrwt>
<pdfrwt beam="2">  1       21 0.99851086E-01 0.18914935E+03</pdfrwt>
<totfact> 0.14395174E+04</totfact>
</mgrwt>
</event>
<event>
12    1  0.1074575E-001  0.2316386E+03  0.7546771E-02  0.1125825E+00
         21   -1    0    0  503  502  0.00000000000E+00  0.00000000000E+00  0.17559796061E+03  0.17559796061E+03  0.00000000000E+00 0. -1.
         21   -1    0    0  501  503 -0.00000000000E+00 -0.00000000000E+00 -0.42080933797E+03  0.42080933797E+03  0.00000000000E+00 0. -1.
          6    2    1    2  501    0  0.15378407062E+03 -0.31521400546E+01 -0.28071180649E+03  0.36394443843E+03  0.17319630365E+03 0.  0.
         24    2    3    3    0    0  0.17578943041E+02  0.40343033602E+02 -0.12745350964E+03  0.15429267367E+03  0.75001682859E+02 0.  0.
         -6    2    1    2    0  502 -0.15378407062E+03  0.31521400546E+01  0.35500429130E+02  0.23246286016E+03  0.17064355986E+03 0.  0.
        -24    2    5    5    0    0 -0.13795640199E+03  0.59619474281E+02  0.22174344763E+02  0.17214081234E+03  0.80958675518E+02 0.  0.
          5    1    3    3  501    0  0.13620512758E+03 -0.43495173656E+02 -0.15325829685E+03  0.20965176475E+03  0.47000000000E+01 0. -1.
        -13    1    4    4    0    0 -0.24113022276E+02 -0.57036993644E+01 -0.39043094511E+02  0.46242115638E+02  0.00000000000E+00 0.  1.
         14    1    4    4    0    0  0.41691965317E+02  0.46046732966E+02 -0.88410415125E+02  0.10805055803E+03  0.00000000000E+00 0. -1.
         -5    1    5    5    0  502 -0.15827668632E+02 -0.56467334227E+02  0.13326084366E+02  0.60322047823E+02  0.47000000000E+01 0.  1.
         13    1    6    6    0    0 -0.13224266128E+03  0.27017522393E+02  0.29685946481E+02  0.13820030173E+03  0.00000000000E+00 0. -1.
        -14    1    6    6    0    0 -0.57137407084E+01  0.32601951889E+02 -0.75116017173E+01  0.33940510606E+02  0.00000000000E+00 0.  1.
<mgrwt>
<rscale>  2 0.23116151E+03</rscale>
<asrwt>0</asrwt>
<pdfrwt beam="1">  1       21 0.27015071E-01 0.23163859E+03</pdfrwt>
<pdfrwt beam="2">  1       21 0.64739897E-01 0.23163859E+03</pdfrwt>
<totfact> 0.28113970E+04</totfact>
</mgrwt>
</event>
<event>
12    1  0.1074575E-001  0.1856841E+03  0.7546771E-02  0.1162430E+00
         21   -1    0    0  501  502  0.00000000000E+00  0.00000000000E+00  0.98748431306E+03  0.98748431306E+03  0.00000000000E+00 0. -1.
         21   -1    0    0  502  503 -0.00000000000E+00 -0.00000000000E+00 -0.12805333764E+03  0.12805333764E+03  0.00000000000E+00 0.  1.
         -6    2    1    2    0  503  0.18706702035E+02 -0.65441676063E+02 -0.46029860175E+02  0.19123364209E+03  0.17268180036E+03 0.  0.
        -24    2    3    3    0    0  0.64473168145E+01  0.31476590935E+02 -0.33237658709E+02  0.92597069657E+02  0.80231737372E+02 0.  0.
          6    2    1    2  501    0 -0.18706702035E+02  0.65441676063E+02  0.90546083560E+03  0.92430400861E+03  0.17276001233E+03 0.  0.
         24    2    5    5    0    0  0.26726582046E+02  0.51113786580E+02  0.28003335059E+03  0.29704720257E+03  0.80569434311E+02 0.  0.
          5    1    5    5  501    0 -0.45433284080E+02  0.14327889482E+02  0.62542748500E+03  0.62725680603E+03  0.47000000000E+01 0. -1.
        -11    1    6    6    0    0 -0.40860311641E+01 -0.20273990143E+02  0.73810488163E+02  0.76653235352E+02  0.00000000000E+00 0.  1.
         12    1    6    6    0    0  0.30812613210E+02  0.71387776724E+02  0.20622286243E+03  0.22039396722E+03  0.00000000000E+00 0. -1.
         -5    1    3    3    0  503  0.12259385220E+02 -0.96918266998E+02 -0.12792201466E+02  0.98636572437E+02  0.47000000000E+01 0.  1.
         11    1    4    4    0    0  0.37149908664E+02  0.42698828189E+01  0.34617160615E+01  0.37554375126E+02  0.00000000000E+00 0. -1.
        -12    1    4    4    0    0 -0.30702591849E+02  0.27206708116E+02 -0.36699374770E+02  0.55042694532E+02  0.00000000000E+00 0.  1.
<mgrwt>
<rscale>  2 0.18566588E+03</rscale>
<asrwt>0</asrwt>
<pdfrwt beam="1">  1       21 0.15192066E+00 0.18568407E+03</pdfrwt>
<pdfrwt beam="2">  1       21 0.19700514E-01 0.18568407E+03</pdfrwt>
<totfact> 0.69014327E+03</totfact>
</mgrwt>
</event>
<event>
12    1  0.1074575E-001  0.1866486E+03  0.7546771E-02  0.1161548E+00
         21   -1    0    0  503  502  0.00000000000E+00  0.00000000000E+00  0.30777780783E+03  0.30777780783E+03  0.00000000000E+00 0. -1.
         21   -1    0    0  501  503 -0.00000000000E+00 -0.00000000000E+00 -0.13806613851E+03  0.13806613851E+03  0.00000000000E+00 0.  1.
          6    2    1    2  501    0  0.28467165370E+02  0.64363142962E+02 -0.99339049298E+01  0.18678749354E+03  0.17273648022E+03 0.  0.
         24    2    3    3    0    0  0.17141875030E+02 -0.28769755737E+02  0.76693385125E+01  0.91215723641E+02  0.84498205670E+02 0.  0.
         -6    2    1    2    0  502 -0.28467165370E+02 -0.64363142962E+02  0.17964557425E+03  0.25905645280E+03  0.17287197492E+03 0.  0.
        -24    2    5    5    0    0  0.42715268462E+02 -0.66767813471E+02  0.10685614972E+03  0.15710984104E+03  0.83562732975E+02 0.  0.
          5    1    3    3  501    0  0.11325290340E+02  0.93132898699E+02 -0.17603243442E+02  0.95571769896E+02  0.47000000000E+01 0. -1.
        -11    1    4    4    0    0 -0.29001669029E+02 -0.41523879494E+01 -0.16475014339E+02  0.33611980448E+02  0.00000000000E+00 0.  1.
         12    1    4    4    0    0  0.46143544060E+02 -0.24617367788E+02  0.24144352852E+02  0.57603743193E+02  0.00000000000E+00 0. -1.
         -5    1    5    5    0  502 -0.71182433833E+02  0.24046705088E+01  0.72789424532E+02  0.10194661176E+03  0.47000000000E+01 0.  1.
         13    1    6    6    0    0 -0.12553877990E+02 -0.57803025458E+02  0.56769477136E+02  0.81985139745E+02  0.00000000000E+00 0. -1.
        -14    1    6    6    0    0  0.55269146453E+02 -0.89647880132E+01  0.50086672584E+02  0.75124701292E+02  0.00000000000E+00 0.  1.
<mgrwt>
<rscale>  2 0.18661726E+03</rscale>
<asrwt>0</asrwt>
<pdfrwt beam="1">  1       21 0.47350432E-01 0.18664864E+03</pdfrwt>
<pdfrwt beam="2">  1       21 0.21240945E-01 0.18664864E+03</pdfrwt>
<totfact> 0.88191923E+04</totfact>
</mgrwt>
</event>
<event>
12    1  0.1074575E-001  0.4037559E+03  0.7546771E-02  0.1042513E+00
         21   -1    0    0  501  502  0.00000000000E+00  0.00000000000E+00  0.27311178180E+04  0.27311178180E+04  0.00000000000E+00 0.  1.
         21   -1    0    0  502  503 -0.00000000000E+00 -0.00000000000E+00 -0.95835662881E+02  0.95835662881E+02  0.00000000000E+00 0. -1.
         -6    2    1    2    0  503 -0.16976363203E+03 -0.32295154065E+03  0.44933852254E+03  0.60408933948E+03  0.17292031074E+03 0.  0.
        -24    2    3    3    0    0 -0.11968307280E+03 -0.21111501237E+03  0.19481740405E+03  0.32156755054E+03  0.80983222173E+02 0.  0.
          6    2    1    2  501    0  0.16976363203E+03  0.32295154065E+03  0.21859436326E+04  0.22228641414E+04  0.17221509211E+03 0.  0.
         24    2    5    5    0    0  0.13750350471E+03  0.27291024830E+03  0.20518269212E+04  0.20760505555E+04  0.81271007775E+02 0.  0.
          5    1    5    5  501    0  0.32260127321E+02  0.50041292347E+02  0.13411671137E+03  0.14681358597E+03  0.47000000000E+01 0. -1.
        -11    1    6    6    0    0  0.12847265366E+03  0.20997293305E+03  0.17767608111E+04  0.17937315394E+04  0.00000000000E+00 0.  1.
         12    1    6    6    0    0  0.90308510482E+01  0.62937315256E+02  0.27506611010E+03  0.28231901609E+03  0.00000000000E+00 0. -1.
         -5    1    3    3    0  503 -0.50080559225E+02 -0.11183652828E+03  0.25452111849E+03  0.28252178894E+03  0.47000000000E+01 0.  1.
         11    1    4    4    0    0 -0.10246183808E+03 -0.10853760404E+03  0.13680250314E+03  0.20246916955E+03  0.00000000000E+00 0. -1.
        -12    1    4    4    0    0 -0.17221234720E+02 -0.10257740834E+03  0.58014900915E+02  0.11909838099E+03  0.00000000000E+00 0.  1.
<mgrwt>
<rscale>  2 0.40368049E+03</rscale>
<asrwt>0</asrwt>
<pdfrwt beam="1">  1       21 0.42017191E+00 0.40375589E+03</pdfrwt>
<pdfrwt beam="2">  1       21 0.14743950E-01 0.40375589E+03</pdfrwt>
<totfact> 0.20693050E+02</totfact>
</mgrwt>
</event>
<event>
12    1  0.1074575E-001  0.1957711E+03  0.7546771E-02  0.1155144E+00
         21   -1    0    0  503  502  0.00000000000E+00  0.00000000000E+00  0.31954928150E+03  0.31954928150E+03  0.00000000000E+00 0. -1.
         21   -1    0    0  501  503 -0.00000000000E+00 -0.00000000000E+00 -0.16422987923E+03  0.16422987923E+03  0.00000000000E+00 0. -1.
          6    2    1    2  501    0  0.67860118972E+02 -0.26510111332E+02 -0.55828967857E+02  0.19583829304E+03  0.17299705667E+03 0.  0.
         24    2    3    3    0    0 -0.28661948838E+02 -0.27928943988E+02 -0.14108050003E+02  0.90570787856E+02  0.80015606694E+02 0.  0.
         -6    2    1    2    0  502 -0.67860118972E+02  0.26510111332E+02  0.21114837013E+03  0.28794086769E+03  0.18171000889E+03 0.  0.
        -24    2    5    5    0    0 -0.10414589902E+03 -0.22777186573E+02  0.14426498631E+03  0.19715886177E+03  0.81817247496E+02 0.  0.
          5    1    3    3  501    0  0.96522067810E+02  0.14188326561E+01 -0.41720917854E+02  0.10526750518E+03  0.47000000000E+01 0. -1.
        -11    1    4    4    0    0 -0.43121868086E+01  0.21052961734E+02 -0.26864724415E+02  0.34402551805E+02  0.00000000000E+00 0.  1.
         12    1    4    4    0    0 -0.24349762029E+02 -0.48981905722E+02  0.12756674412E+02  0.56168236051E+02  0.00000000000E+00 0. -1.
         -5    1    5    5    0  502  0.36285780050E+02  0.49287297905E+02  0.66883383820E+02  0.90782005926E+02  0.47000000000E+01 0.  1.
         13    1    6    6    0    0  0.97097104239E+01  0.97757295129E+01  0.57635318025E+01  0.14935249006E+02  0.00000000000E+00 0. -1.
        -14    1    6    6    0    0 -0.11385560945E+03 -0.32552916086E+02  0.13850145450E+03  0.18222361276E+03  0.00000000000E+00 0.  1.
<mgrwt>
<rscale>  2 0.19372440E+03</rscale>
<asrwt>0</asrwt>
<pdfrwt beam="1">  1       21 0.49161428E-01 0.19577106E+03</pdfrwt>
<pdfrwt beam="2">  1       21 0.25266135E-01 0.19577106E+03</pdfrwt>
<totfact> 0.58503917E+04</totfact>
</mgrwt>
</event>
<event>
12    1  0.1074575E-001  0.1922670E+03  0.7546771E-02  0.1156587E+00
         21   -1    0    0  503  502  0.00000000000E+00  0.00000000000E+00  0.94851776193E+02  0.94851776193E+02  0.00000000000E+00 0.  1.
         21   -1    0    0  501  503 -0.00000000000E+00 -0.00000000000E+00 -0.40807588093E+03  0.40807588093E+03  0.00000000000E+00 0.  1.
          6    2    1    2  501    0 -0.40371917046E+02  0.74358043735E+02 -0.21166806426E+03  0.28548748028E+03  0.17187414470E+03 0.  0.
         24    2    3    3    0    0 -0.48813196466E+02  0.11039293445E+03 -0.12567565493E+03  0.19175086519E+03  0.80029344205E+02 0.  0.
         -6    2    1    2    0  502  0.40371917046E+02 -0.74358043735E+02 -0.10155604048E+03  0.21744017684E+03  0.17264874976E+03 0.  0.
        -24    2    5    5    0    0  0.76042223369E+02 -0.39059175271E+02 -0.11610594996E+03  0.16497904138E+03  0.80183873505E+02 0.  0.
          5    1    3    3  501    0  0.84412794197E+01 -0.36034890714E+02 -0.85992409324E+02  0.93736615089E+02  0.47000000000E+01 0. -1.
        -13    1    4    4    0    0 -0.52093150146E+01  0.19026554413E+02 -0.76873421119E+02  0.79364158222E+02  0.00000000000E+00 0.  1.
         14    1    4    4    0    0 -0.43603881451E+02  0.91366380036E+02 -0.48802233816E+02  0.11238670697E+03  0.00000000000E+00 0. -1.
         -5    1    5    5    0  502 -0.35670306323E+02 -0.35298868463E+02  0.14549909482E+02  0.52461135461E+02  0.47000000000E+01 0.  1.
         13    1    6    6    0    0  0.14430862240E+02 -0.35215873095E+02 -0.90446645221E+02  0.98127484093E+02  0.00000000000E+00 0. -1.
        -14    1    6    6    0    0  0.61611361129E+02 -0.38433021763E+01 -0.25659304742E+02  0.66851557287E+02  0.00000000000E+00 0.  1.
<mgrwt>
<rscale>  2 0.19209295E+03</rscale>
<asrwt>0</asrwt>
<pdfrwt beam="1">  1       21 0.14592581E-01 0.19226700E+03</pdfrwt>
<pdfrwt beam="2">  1       21 0.62780903E-01 0.19226700E+03</pdfrwt>
<totfact> 0.96946465E+04</totfact>
</mgrwt>
</event>
<event>
12    1  0.1074575E-001  0.2668457E+03  0.7546771E-02  0.1103128E+00
         21   -1    0    0  503  502  0.00000000000E+00  0.00000000000E+00  0.11843636840E+03  0.11843636840E+03  0.00000000000E+00 0. -1.
         21   -1    0    0  501  503 -0.00000000000E+00 -0.00000000000E+00 -0.60379636901E+03  0.60379636901E+03  0.00000000000E+00 0.  1.
          6    2    1    2  501    0  0.31153695865E+02  0.20040762808E+03 -0.26815307733E+03  0.37816086134E+03  0.17310630841E+03 0.  0.
         24    2    3    3    0    0  0.29096206699E+02  0.71802161665E+02 -0.43752633573E+02  0.11946944592E+03  0.79727761164E+02 0.  0.
         -6    2    1    2    0  502 -0.31153695865E+02 -0.20040762808E+03 -0.21720692328E+03  0.34407187607E+03  0.17341521912E+03 0.  0.
        -24    2    5    5    0    0  0.18763784470E+02 -0.19873440689E+03 -0.18975661300E+03  0.28688652789E+03  0.80304816896E+02 0.  0.
          5    1    3    3  501    0  0.20574891663E+01  0.12860546641E+03 -0.22440044375E+03  0.25869141542E+03  0.47000000000E+01 0. -1.
        -11    1    4    4    0    0  0.83496575306E+01  0.79158890780E+00 -0.44704174055E+02  0.45484135386E+02  0.00000000000E+00 0.  1.
         12    1    4    4    0    0  0.20746549168E+02  0.71010572757E+02  0.95154048290E+00  0.73985310535E+02  0.00000000000E+00 0. -1.
         -5    1    5    5    0  502 -0.49917480335E+02 -0.16732211907E+01 -0.27450310279E+02  0.57185348180E+02  0.47000000000E+01 0.  1.
         13    1    6    6    0    0 -0.43647872643E+01 -0.17019801313E+03 -0.12079762092E+03  0.20875459339E+03  0.00000000000E+00 0. -1.
        -14    1    6    6    0    0  0.23128571734E+02 -0.28536393755E+02 -0.68958992085E+02  0.78131934498E+02  0.00000000000E+00 0.  1.
<mgrwt>
<rscale>  2 0.26679549E+03</rscale>
<asrwt>0</asrwt>
<pdfrwt beam="1">  1       21 0.18220979E-01 0.26684566E+03</pdfrwt>
<pdfrwt beam="2">  1       21 0.92891751E-01 0.26684566E+03</pdfrwt>
<totfact> 0.25793054E+04</totfact>
</mgrwt>
</event>
<event>
12    1  0.1074575E-001  0.2223510E+03  0.7546771E-02  0.1132321E+00
         21   -1    0    0  501  502  0.00000000000E+00  0.00000000000E+00  0.73066293708E+03  0.73066293708E+03  0.00000000000E+00 0. -1.
         21   -1    0    0  502  503 -0.00000000000E+00 -0.00000000000E+00 -0.67794122511E+02  0.67794122511E+02  0.00000000000E+00 0.  1.
         -6    2    1    2    0  503  0.12151473553E+03  0.65849209968E+02  0.29914562049E+03  0.37215374623E+03  0.17294033413E+03 0.  0.
        -24    2    3    3    0    0  0.11866818342E+03  0.29152343378E+02  0.12607080689E+03  0.19514599505E+03  0.85182827805E+02 0.  0.
          6    2    1    2  501    0 -0.12151473553E+03 -0.65849209968E+02  0.36372319408E+03  0.42630331336E+03  0.17417808032E+03 0.  0.
         24    2    5    5    0    0 -0.97019865013E+00 -0.18949068267E+02  0.84403107068E+02  0.11845203486E+03  0.80913482231E+02 0.  0.
          5    1    5    5  501    0 -0.12054453688E+03 -0.46900141701E+02  0.27932008701E+03  0.30785127850E+03  0.47000000000E+01 0. -1.
        -11    1    6    6    0    0 -0.40282628411E+02 -0.13288755614E+02  0.52586173555E+02  0.67561726048E+02  0.00000000000E+00 0.  1.
         12    1    6    6    0    0  0.39312429761E+02 -0.56603126531E+01  0.31816933513E+02  0.50890308814E+02  0.00000000000E+00 0. -1.
         -5    1    3    3    0  503  0.28465521153E+01  0.36696866590E+02  0.17307481359E+03  0.17700775118E+03  0.47000000000E+01 0.  1.
         11    1    4    4    0    0  0.12094463869E+03  0.46718815161E+01  0.11858472644E+03  0.16944547634E+03  0.00000000000E+00 0. -1.
        -12    1    4    4    0    0 -0.22764552740E+01  0.24480461862E+02  0.74860804489E+01  0.25700518712E+02  0.00000000000E+00 0.  1.
<mgrwt>
<rscale>  2 0.22210851E+03</rscale>
<asrwt>0</asrwt>
<pdfrwt beam="1">  1       21 0.11240968E+00 0.22235097E+03</pdfrwt>
<pdfrwt beam="2">  1       21 0.10429866E-01 0.22235097E+03</pdfrwt>
<totfact> 0.45965861E+04</totfact>
</mgrwt>
</event>
<event>
12    1  0.1074575E-001  0.3089064E+03  0.7546771E-02  0.1081633E+00
         21   -1    0    0  503  502  0.00000000000E+00  0.00000000000E+00  0.33891873690E+03  0.33891873690E+03  0.00000000000E+00 0. -1.
         21   -1    0    0  501  503 -0.00000000000E+00 -0.00000000000E+00 -0.33186563223E+03  0.33186563223E+03  0.00000000000E+00 0. -1.
          6    2    1    2  501    0  0.25393637618E+03 -0.10191487100E+02 -0.13425966029E+03  0.33108968357E+03  0.16433859142E+03 0.  0.
         24    2    3    3    0    0  0.25487019764E+03 -0.41878373984E+02 -0.12276412354E+03  0.29704312445E+03  0.80317942575E+02 0.  0.
         -6    2    1    2    0  502 -0.25393637618E+03  0.10191487100E+02  0.14131276496E+03  0.33969468556E+03  0.17560077535E+03 0.  0.
        -24    2    5    5    0    0 -0.26388776377E+03 -0.45318944350E+00  0.15757218690E+03  0.31736089825E+03  0.79069516276E+02 0.  0.
          5    1    3    3  501    0 -0.93382146390E+00  0.31686886884E+02 -0.11495536748E+02  0.34046559122E+02  0.47000000000E+01 0. -1.
        -13    1    4    4    0    0  0.10880348337E+02 -0.11254641608E+01  0.11260900785E+02  0.15698934232E+02  0.00000000000E+00 0.  1.
         14    1    4    4    0    0  0.24398984930E+03 -0.40752909823E+02 -0.13402502432E+03  0.28134419021E+03  0.00000000000E+00 0. -1.
         -5    1    5    5    0  502  0.99513875964E+01  0.10644676544E+02 -0.16259421943E+02  0.22333787312E+02  0.47000000000E+01 0.  1.
         13    1    6    6    0    0 -0.12294186041E+03 -0.28021124560E+02  0.41643567487E+02  0.13279334010E+03  0.00000000000E+00 0. -1.
        -14    1    6    6    0    0 -0.14094590336E+03  0.27567935116E+02  0.11592861941E+03  0.18456755815E+03  0.00000000000E+00 0.  1.
<mgrwt>
<rscale>  2 0.30732934E+03</rscale>
<asrwt>0</asrwt>
<pdfrwt beam="1">  1       21 0.52141344E-01 0.30890643E+03</pdfrwt>
<pdfrwt beam="2">  1       21 0.51056251E-01 0.30890643E+03</pdfrwt>
<totfact> 0.11964512E+04</totfact>
</mgrwt>
</event>
<event>
12    1  0.1074575E-001  0.1763279E+03  0.7546771E-02  0.1172059E+00
         21   -1    0    0  503  502  0.00000000000E+00  0.00000000000E+00  0.84373274955E+03  0.84373274955E+03  0.00000000000E+00 0. -1.
         21   -1    0    0  501  503 -0.00000000000E+00 -0.00000000000E+00 -0.66505226444E+02  0.66505226444E+02  0.00000000000E+00 0. -1.
          6    2    1    2  501    0 -0.92759731970E+01 -0.33141977358E+02  0.80351291002E+02  0.19140002435E+03  0.17027391172E+03 0.  0.
         24    2    3    3    0    0  0.13647962394E+02  0.41060766500E+02  0.20448776066E+02  0.93206565736E+02  0.79981610578E+02 0.  0.
         -6    2    1    2    0  502  0.92759731970E+01  0.33141977358E+02  0.69687623210E+03  0.71883795164E+03  0.17293664595E+03 0.  0.
        -24    2    5    5    0    0 -0.25881151473E+02 -0.31749256575E+02  0.50277507911E+03  0.51112602794E+03  0.82396522782E+02 0.  0.
          5    1    3    3  501    0 -0.22923935591E+02 -0.74202743858E+02  0.59902514936E+02  0.98193458614E+02  0.47000000000E+01 0. -1.
        -11    1    4    4    0    0  0.11887571364E+02  0.52684356832E+02  0.42160643226E+02  0.68516243657E+02  0.00000000000E+00 0.  1.
         12    1    4    4    0    0  0.17603910297E+01 -0.11623590332E+02 -0.21711867160E+02  0.24690322078E+02  0.00000000000E+00 0. -1.
         -5    1    5    5    0  502  0.35157124670E+02  0.64891233933E+02  0.19410115299E+03  0.20771192371E+03  0.47000000000E+01 0.  1.
         11    1    6    6    0    0  0.12055601695E+02 -0.34074878548E+02  0.95996552498E+02  0.10257569386E+03  0.00000000000E+00 0. -1.
        -12    1    6    6    0    0 -0.37936753168E+02  0.23256219729E+01  0.40677852661E+03  0.40855033407E+03  0.00000000000E+00 0.  1.
<mgrwt>
<rscale>  2 0.17567153E+03</rscale>
<asrwt>0</asrwt>
<pdfrwt beam="1">  1       21 0.12980503E+00 0.17632787E+03</pdfrwt>
<pdfrwt beam="2">  1       21 0.10231574E-01 0.17632787E+03</pdfrwt>
<totfact> 0.34136170E+04</totfact>
</mgrwt>
</event>
<event>
12    1  0.1074575E-001  0.1764125E+03  0.7546771E-02  0.1171399E+00
         21   -1    0    0  503  502  0.00000000000E+00  0.00000000000E+00  0.12308807618E+04  0.12308807618E+04  0.00000000000E+00 0.  1.
         21   -1    0    0  501  503 -0.00000000000E+00 -0.00000000000E+00 -0.60027202724E+02  0.60027202724E+02  0.00000000000E+00 0.  1.
          6    2    1    2  501    0 -0.84002725467E+01 -0.33661876049E+02  0.94276533879E+02  0.20002360265E+03  0.17296730992E+03 0.  0.
         24    2    3    3    0    0  0.38657547007E+02 -0.88181073562E+01  0.11226992818E+03  0.14365425405E+03  0.80373148348E+02 0.  0.
         -6    2    1    2    0  502  0.84002725467E+01  0.33661876049E+02  0.10765770252E+04  0.10908843619E+04  0.17264678773E+03 0.  0.
        -24    2    5    5    0    0  0.77103991713E+01 -0.18274004408E+02  0.95694274796E+03  0.96037665370E+03  0.78679759756E+02 0.  0.
          5    1    3    3  501    0 -0.47057819553E+02 -0.24843768693E+02 -0.17993394297E+02  0.56369348606E+02  0.47000000000E+01 0. -1.
        -11    1    4    4    0    0  0.25942514030E+02 -0.36424541695E+02  0.24976691621E+02  0.51221054228E+02  0.00000000000E+00 0.  1.
         12    1    4    4    0    0  0.12715032977E+02  0.27606434339E+02  0.87293236555E+02  0.92433199819E+02  0.00000000000E+00 0. -1.
         -5    1    5    5    0  502  0.68987337538E+00  0.51935880457E+02  0.11963427728E+03  0.13050770822E+03  0.47000000000E+01 0.  1.
         13    1    6    6    0    0 -0.22123615989E+02 -0.38903897166E+02  0.50304427355E+03  0.50503119582E+03  0.00000000000E+00 0. -1.
        -14    1    6    6    0    0  0.29834015160E+02  0.20629892757E+02  0.45389847441E+03  0.45534545788E+03  0.00000000000E+00 0.  1.
<mgrwt>
<rscale>  2 0.17633390E+03</rscale>
<asrwt>0</asrwt>
<pdfrwt beam="1">  1       21 0.18936625E+00 0.17641252E+03</pdfrwt>
<pdfrwt beam="2">  1       21 0.92349552E-02 0.17641252E+03</pdfrwt>
<totfact> 0.14892819E+04</totfact>
</mgrwt>
</event>
<event>
12    1  0.1074575E-001  0.1790825E+03  0.7546771E-02  0.1169280E+00
         21   -1    0    0  501  502  0.00000000000E+00  0.00000000000E+00  0.68788711753E+03  0.68788711753E+03  0.00000000000E+00 0.  1.
         21   -1    0    0  502  503 -0.00000000000E+00 -0.00000000000E+00 -0.51937719091E+02  0.51937719091E+02  0.00000000000E+00 0.  1.
         -6    2    1    2    0  503  0.21431485154E+02  0.29394818861E+02  0.19103044296E+03  0.26021728343E+03  0.17290760692E+03 0.  0.
        -24    2    3    3    0    0  0.30395848895E+02  0.90413654600E+02  0.14081029372E+03  0.18054412910E+03  0.60581409413E+02 0.  0.
          6    2    1    2  501    0 -0.21431485154E+02 -0.29394818861E+02  0.44491895548E+03  0.47960755318E+03  0.17534869317E+03 0.  0.
         24    2    5    5    0    0 -0.55609476394E+02  0.32515525197E+02  0.20310251791E+03  0.22761885252E+03  0.80062700399E+02 0.  0.
          5    1    5    5  501    0  0.34177991240E+02 -0.61910344058E+02  0.24181643757E+03  0.25198870067E+03  0.47000000000E+01 0. -1.
        -11    1    6    6    0    0 -0.51124707422E+02 -0.10835879994E+01  0.52652517418E+02  0.73397530356E+02  0.00000000000E+00 0.  1.
         12    1    6    6    0    0 -0.44847689722E+01  0.33599113197E+02  0.15045000049E+03  0.15422132216E+03  0.00000000000E+00 0. -1.
         -5    1    3    3    0  503 -0.89643637416E+01 -0.61018835739E+02  0.50220149238E+02  0.79673154335E+02  0.47000000000E+01 0.  1.
         11    1    4    4    0    0  0.15695875726E+02 -0.30715649587E+01  0.92258814058E+01  0.18463800092E+02  0.00000000000E+00 0. -1.
        -12    1    4    4    0    0  0.14699973169E+02  0.93485219558E+02  0.13158441231E+03  0.16208032901E+03  0.00000000000E+00 0.  1.
<mgrwt>
<rscale>  2 0.17848208E+03</rscale>
<asrwt>0</asrwt>
<pdfrwt beam="1">  1       21 0.10582878E+00 0.17908246E+03</pdfrwt>
<pdfrwt beam="2">  1       21 0.79904188E-02 0.17908246E+03</pdfrwt>
<totfact> 0.86725507E+04</totfact>
</mgrwt>
</event>
<event>
12    1  0.1074575E-001  0.1976763E+03  0.7546771E-02  0.1152000E+00
         21   -1    0    0  503  502  0.00000000000E+00  0.00000000000E+00  0.56916699711E+02  0.56916699711E+02  0.00000000000E+00 0.  1.
         21   -1    0    0  501  503 -0.00000000000E+00 -0.00000000000E+00 -0.80593091390E+03  0.80593091390E+03  0.00000000000E+00 0.  1.
          6    2    1    2  501    0 -0.90063736678E+02 -0.18178929251E+02 -0.20635360403E+03  0.28575818568E+03  0.17502565712E+03 0.  0.
         24    2    3    3    0    0 -0.10936661621E+03 -0.16792410770E+02 -0.22216340346E+03  0.26033057569E+03  0.78564553083E+02 0.  0.
         -6    2    1    2    0  502  0.90063736678E+02  0.18178929251E+02 -0.54266061015E+03  0.57708942793E+03  0.17352152571E+03 0.  0.
        -24    2    5    5    0    0  0.81360611009E+02 -0.50230509624E+02 -0.29979422747E+03  0.32457850627E+03  0.79573706610E+02 0.  0.
          5    1    3    3  501    0  0.19302879535E+02 -0.13865184811E+01  0.15809799425E+02  0.25427609988E+02  0.47000000000E+01 0. -1.
        -13    1    4    4    0    0 -0.40209933607E+02  0.13377158067E+02 -0.24948706770E+02  0.49175452089E+02  0.00000000000E+00 0.  1.
         14    1    4    4    0    0 -0.69156682605E+02 -0.30169568837E+02 -0.19721469669E+03  0.21115512360E+03  0.00000000000E+00 0. -1.
         -5    1    5    5    0  502  0.87031256691E+01  0.68409438875E+02 -0.24286638268E+03  0.25251092167E+03  0.47000000000E+01 0.  1.
         11    1    6    6    0    0 -0.19410796594E+01  0.17083696965E+02 -0.46228112924E+02  0.49321992222E+02  0.00000000000E+00 0. -1.
        -12    1    6    6    0    0  0.83301690668E+02 -0.67314206588E+02 -0.25356611455E+03  0.27525651404E+03  0.00000000000E+00 0.  1.
<mgrwt>
<rscale>  2 0.19734285E+03</rscale>
<asrwt>0</asrwt>
<pdfrwt beam="1">  1       21 0.87564159E-02 0.19767633E+03</pdfrwt>
<pdfrwt beam="2">  1       21 0.12398936E+00 0.19767633E+03</pdfrwt>
<totfact> 0.49760718E+04</totfact>
</mgrwt>
</event>
<event>
12    1  0.1074575E-001  0.1948572E+03  0.7546771E-02  0.1154315E+00
         21   -1    0    0  503  502  0.00000000000E+00  0.00000000000E+00  0.20228190088E+02  0.20228190088E+02  0.00000000000E+00 0.  1.
         21   -1    0    0  501  503 -0.00000000000E+00 -0.00000000000E+00 -0.21489007168E+04  0.21489007168E+04  0.00000000000E+00 0. -1.
          6    2    1    2  501    0  0.82602806473E+02  0.31673037671E+02 -0.14533829712E+04  0.14662880269E+04  0.17277763660E+03 0.  0.
         24    2    3    3    0    0 -0.20211800240E+02 -0.72023755290E+01 -0.59635694836E+03  0.60222909660E+03  0.81104154290E+02 0.  0.
         -6    2    1    2    0  502 -0.82602806473E+02 -0.31673037671E+02 -0.67528955544E+03  0.70284087998E+03  0.17361714759E+03 0.  0.
        -24    2    5    5    0    0 -0.93207441877E+02 -0.58369057149E+02 -0.64990649470E+03  0.66422060654E+03  0.81951133303E+02 0.  0.
          5    1    3    3  501    0  0.10281460671E+03  0.38875413200E+02 -0.85702602289E+03  0.86405893029E+03  0.47000000000E+01 0. -1.
        -13    1    4    4    0    0 -0.30197007777E+02  0.26798961415E+02 -0.18529671062E+03  0.18964417887E+03  0.00000000000E+00 0.  1.
         14    1    4    4    0    0  0.99852075370E+01 -0.34001336944E+02 -0.41106023774E+03  0.41258491773E+03  0.00000000000E+00 0. -1.
         -5    1    5    5    0  502  0.10604635404E+02  0.26696019478E+02 -0.25383060740E+02  0.38620273440E+02  0.47000000000E+01 0.  1.
         11    1    6    6    0    0 -0.42398314201E+02  0.16887827827E+02 -0.18661307946E+03  0.19211261594E+03  0.00000000000E+00 0. -1.
        -12    1    6    6    0    0 -0.50809127676E+02 -0.75256884976E+02 -0.46329341523E+03  0.47210799060E+03  0.00000000000E+00 0.  1.
<mgrwt>
<rscale>  2 0.19467000E+03</rscale>
<asrwt>0</asrwt>
<pdfrwt beam="1">  1       21 0.31120302E-02 0.19485718E+03</pdfrwt>
<pdfrwt beam="2">  1       21 0.33060001E+00 0.19485718E+03</pdfrwt>
<totfact> 0.13493312E+04</totfact>
</mgrwt>
</event>
<event>
12    1  0.1074575E-001  0.2053786E+03  0.7546771E-02  0.1149919E+00
         21   -1    0    0  503  502  0.00000000000E+00  0.00000000000E+00  0.79479981059E+02  0.79479981059E+02  0.00000000000E+00 0. -1.
         21   -1    0    0  501  503 -0.00000000000E+00 -0.00000000000E+00 -0.57046778939E+03  0.57046778939E+03  0.00000000000E+00 0. -1.
          6    2    1    2  501    0 -0.21835060961E+02 -0.59886666507E+02 -0.36578585270E+03  0.40941519622E+03  0.17250602931E+03 0.  0.
         24    2    3    3    0    0  0.11258209450E+02 -0.52121228437E+02 -0.36247470905E+03  0.37494027421E+03  0.79680140532E+02 0.  0.
         -6    2    1    2    0  502  0.21835060961E+02  0.59886666507E+02 -0.12520195564E+03  0.24053257424E+03  0.19523628469E+03 0.  0.
        -24    2    5    5    0    0  0.14584691601E+02  0.11720893364E+03 -0.11235738724E+03  0.18115679548E+03  0.79012370732E+02 0.  0.
          5    1    3    3  501    0 -0.33093270411E+02 -0.77654380702E+01 -0.33111436508E+01  0.34474922004E+02  0.47000000000E+01 0. -1.
        -13    1    4    4    0    0  0.16876394137E+02 -0.64336899774E+01 -0.27925162589E+03  0.27983508645E+03  0.00000000000E+00 0.  1.
         14    1    4    4    0    0 -0.56181846873E+01 -0.45687538460E+02 -0.83223083160E+02  0.95105187768E+02  0.00000000000E+00 0. -1.
         -5    1    5    5    0  502  0.72503693606E+01 -0.57322267133E+02 -0.12844568403E+02  0.59375778753E+02  0.47000000000E+01 0.  1.
         13    1    6    6    0    0 -0.27765711408E+02  0.60376834938E+02 -0.31223114063E+02  0.73424653754E+02  0.00000000000E+00 0. -1.
        -14    1    6    6    0    0  0.42350403009E+02  0.56832098702E+02 -0.81134273173E+02  0.10773214173E+03  0.00000000000E+00 0.  1.
<mgrwt>
<rscale>  2 0.19978625E+03</rscale>
<asrwt>0</asrwt>
<pdfrwt beam="1">  1       21 0.12227689E-01 0.20537865E+03</pdfrwt>
<pdfrwt beam="2">  1       21 0.87764275E-01 0.20537865E+03</pdfrwt>
<totfact> 0.62792395E+04</totfact>
</mgrwt>
</event>
<event>
12    1  0.1074575E-001  0.2094093E+03  0.7546771E-02  0.1142354E+00
         21   -1    0    0  503  502  0.00000000000E+00  0.00000000000E+00  0.11648068522E+04  0.11648068522E+04  0.00000000000E+00 0.  1.
         21   -1    0    0  501  503 -0.00000000000E+00 -0.00000000000E+00 -0.44886207897E+02  0.44886207897E+02  0.00000000000E+00 0.  1.
          6    2    1    2  501    0  0.45358814814E+02  0.10818384014E+03  0.31408844635E+03  0.37749677883E+03  0.17346786604E+03 0.  0.
         24    2    3    3    0    0  0.69391253278E+02  0.40493534030E+02  0.10054841719E+03  0.15215044606E+03  0.81147407267E+02 0.  0.
         -6    2    1    2    0  502 -0.45358814814E+02 -0.10818384014E+03  0.80583219791E+03  0.83219628123E+03  0.17153411890E+03 0.  0.
        -24    2    5    5    0    0  0.15597047606E+02 -0.56215565564E+02  0.21761778165E+03  0.23853424924E+03  0.78343037109E+02 0.  0.
          5    1    3    3  501    0 -0.24032438465E+02  0.67690306113E+02  0.21354002916E+03  0.22534633277E+03  0.47000000000E+01 0. -1.
        -11    1    4    4    0    0  0.66254898764E+02  0.62973287807E+02  0.78133510545E+02  0.12025053870E+03  0.00000000000E+00 0.  1.
         12    1    4    4    0    0  0.31363545144E+01 -0.22479753777E+02  0.22414906643E+02  0.31899907356E+02  0.00000000000E+00 0. -1.
         -5    1    5    5    0  502 -0.60955862420E+02 -0.51968274579E+02  0.58821441627E+03  0.59366203199E+03  0.47000000000E+01 0.  1.
         13    1    6    6    0    0 -0.25242071144E+02 -0.18346541436E+02  0.13726188331E+03  0.14076427938E+03  0.00000000000E+00 0. -1.
        -14    1    6    6    0    0  0.40839118750E+02 -0.37869024129E+02  0.80355898334E+02  0.97769969857E+02  0.00000000000E+00 0.  1.
<mgrwt>
<rscale>  2 0.20900842E+03</rscale>
<asrwt>0</asrwt>
<pdfrwt beam="1">  1       21 0.17920103E+00 0.20940933E+03</pdfrwt>
<pdfrwt beam="2">  1       21 0.69055713E-02 0.20940933E+03</pdfrwt>
<totfact> 0.28213254E+04</totfact>
</mgrwt>
</event>
<event>
12    1  0.1074575E-001  0.2167636E+03  0.7546771E-02  0.1136377E+00
         21   -1    0    0  503  502  0.00000000000E+00  0.00000000000E+00  0.43932895755E+03  0.43932895755E+03  0.00000000000E+00 0. -1.
         21   -1    0    0  501  503 -0.00000000000E+00 -0.00000000000E+00 -0.13948478102E+03  0.13948478102E+03  0.00000000000E+00 0. -1.
          6    2    1    2  501    0 -0.98359454933E+02 -0.83599530107E+02  0.99098779418E+01  0.21698997410E+03  0.17413494587E+03 0.  0.
         24    2    3    3    0    0 -0.73677383703E+02 -0.84190012916E+02  0.68536861146E+02  0.15320309089E+03  0.79104807563E+02 0.  0.
         -6    2    1    2    0  502  0.98359454933E+02  0.83599530107E+02  0.28993429859E+03  0.36182376447E+03  0.17375579193E+03 0.  0.
        -24    2    5    5    0    0  0.59818158569E+02  0.16202602766E+02  0.57834064509E+02  0.11703735553E+03  0.80698371371E+02 0.  0.
          5    1    3    3  501    0 -0.24682071230E+02  0.59048280935E+00 -0.58626983204E+02  0.63786883211E+02  0.47000000000E+01 0. -1.
        -13    1    4    4    0    0 -0.25147268979E+02 -0.58862456412E+02 -0.18487710173E+01  0.64035863906E+02  0.00000000000E+00 0.  1.
         14    1    4    4    0    0 -0.48530114724E+02 -0.25327556504E+02  0.70385632163E+02  0.89167226987E+02  0.00000000000E+00 0. -1.
         -5    1    5    5    0  502  0.38541296364E+02  0.67396927341E+02  0.23210023408E+03  0.24478640894E+03  0.47000000000E+01 0.  1.
         11    1    6    6    0    0  0.63960526273E+02 -0.17804307074E+02  0.46089116228E+02  0.80821710612E+02  0.00000000000E+00 0. -1.
        -12    1    6    6    0    0 -0.41423677037E+01  0.34006909840E+02  0.11744948280E+02  0.36215644922E+02  0.00000000000E+00 0.  1.
<mgrwt>
<rscale>  2 0.21668741E+03</rscale>
<asrwt>0</asrwt>
<pdfrwt beam="1">  1       21 0.67589070E-01 0.21676357E+03</pdfrwt>
<pdfrwt beam="2">  1       21 0.21459197E-01 0.21676357E+03</pdfrwt>
<totfact> 0.39991003E+04</totfact>
</mgrwt>
</event>
<event>
12    1  0.1074575E-001  0.1890797E+03  0.7546771E-02  0.1160704E+00
         21   -1    0    0  501  502  0.00000000000E+00  0.00000000000E+00  0.43844727226E+03  0.43844727226E+03  0.00000000000E+00 0. -1.
         21   -1    0    0  502  503 -0.00000000000E+00 -0.00000000000E+00 -0.14945898758E+03  0.14945898758E+03  0.00000000000E+00 0. -1.
         -6    2    1    2    0  503 -0.48482236214E+02 -0.40797038793E+02 -0.56171265163E+02  0.19724693026E+03  0.17814661059E+03 0.  0.
        -24    2    3    3    0    0 -0.40056137943E+02 -0.97061844528E+02 -0.32005459359E+02  0.13525657886E+03  0.79022128835E+02 0.  0.
          6    2    1    2  501    0  0.48482236214E+02  0.40797038793E+02  0.34515954984E+03  0.39065932957E+03  0.17165276384E+03 0.  0.
         24    2    5    5    0    0  0.83496078638E+02 -0.89681209135E+01  0.17818545679E+03  0.21288143996E+03  0.80724396130E+02 0.  0.
          5    1    5    5  501    0 -0.35013842424E+02  0.49765159707E+02  0.16697409306E+03  0.17777788961E+03  0.47000000000E+01 0. -1.
        -13    1    6    6    0    0 -0.40619831582E+01 -0.16571858059E+02  0.36231195369E+01  0.17442854752E+02  0.00000000000E+00 0.  1.
         14    1    6    6    0    0  0.87558061796E+02  0.76037371455E+01  0.17456233725E+03  0.19543858521E+03  0.00000000000E+00 0. -1.
         -5    1    3    3    0  503 -0.84260982707E+01  0.56264805735E+02 -0.24165805804E+02  0.61990351399E+02  0.47000000000E+01 0.  1.
         11    1    4    4    0    0  0.97406255894E+01 -0.34409747820E+02 -0.41364118438E+02  0.54679985608E+02  0.00000000000E+00 0. -1.
        -12    1    4    4    0    0 -0.49796763533E+02 -0.62652096708E+02  0.93586590785E+01  0.80576593251E+02  0.00000000000E+00 0.  1.
<mgrwt>
<rscale>  2 0.18753453E+03</rscale>
<asrwt>0</asrwt>
<pdfrwt beam="1">  1       21 0.67453426E-01 0.18907972E+03</pdfrwt>
<pdfrwt beam="2">  1       21 0.22993691E-01 0.18907972E+03</pdfrwt>
<totfact> 0.35761843E+04</totfact>
</mgrwt>
</event>
<event>
12    1  0.1074575E-001  0.2521182E+03  0.7546771E-02  0.1112128E+00
         21   -1    0    0  503  502  0.00000000000E+00  0.00000000000E+00  0.11056622676E+03  0.11056622676E+03  0.00000000000E+00 0.  1.
         21   -1    0    0  501  503 -0.00000000000E+00 -0.00000000000E+00 -0.71874534762E+03  0.71874534762E+03  0.00000000000E+00 0.  1.
          6    2    1    2  501    0 -0.74050587602E+02  0.16529677404E+03 -0.11666693550E+03  0.27690969382E+03  0.17395772953E+03 0.  0.
         24    2    3    3    0    0 -0.47055799419E+02  0.18058514196E+03 -0.13171646070E+03  0.24210982326E+03  0.80266423509E+02 0.  0.
         -6    2    1    2    0  502  0.74050587602E+02 -0.16529677404E+03 -0.49151218536E+03  0.55240188055E+03  0.17537701174E+03 0.  0.
        -24    2    5    5    0    0  0.72672159478E+02 -0.53765504584E+02 -0.15707979313E+03  0.19982814486E+03  0.84173949772E+02 0.  0.
          5    1    3    3  501    0 -0.26994788184E+02 -0.15288367921E+02  0.15049525196E+02  0.34799870566E+02  0.47000000000E+01 0. -1.
        -13    1    4    4    0    0 -0.14162682214E+02  0.24795624619E+02 -0.62062940400E+02  0.68317004756E+02  0.00000000000E+00 0.  1.
         14    1    4    4    0    0 -0.32893117204E+02  0.15578951734E+03 -0.69653520302E+02  0.17379281850E+03  0.00000000000E+00 0. -1.
         -5    1    5    5    0  502  0.13784281236E+01 -0.11153126946E+03 -0.33443239222E+03  0.35257373569E+03  0.47000000000E+01 0.  1.
         11    1    6    6    0    0 -0.51035262894E+01 -0.68103962939E+01 -0.80668569773E+02  0.81116247618E+02  0.00000000000E+00 0. -1.
        -12    1    6    6    0    0  0.77775685768E+02 -0.46955108290E+02 -0.76411223362E+02  0.11871189724E+03  0.00000000000E+00 0.  1.
<mgrwt>
<rscale>  2 0.25187158E+03</rscale>
<asrwt>0</asrwt>
<pdfrwt beam="1">  1       21 0.17010188E-01 0.25211824E+03</pdfrwt>
<pdfrwt beam="2">  1       21 0.11057621E+00 0.25211824E+03</pdfrwt>
<totfact> 0.19424560E+04</totfact>
</mgrwt>
</event>
<event>
11    1  0.1074575E-001  0.2270490E+03  0.7546771E-02  0.1128761E+00
         21   -1    0    0  503  502  0.00000000000E+00  0.00000000000E+00  0.78960455504E+02  0.78960455504E+02  0.00000000000E+00 0. -1.
         21   -1    0    0  501  503 -0.00000000000E+00 -0.00000000000E+00 -0.98484520697E+03  0.98484520697E+03  0.00000000000E+00 0. -1.
          6    2    1    2  501    0 -0.56793977755E+02 -0.13552246979E+03 -0.76185983420E+03  0.79492940743E+03  0.17288857713E+03 0.  0.
         -6    2    1    2    0  502  0.56793977755E+02  0.13552246979E+03 -0.14402491726E+03  0.26887625504E+03  0.17308774655E+03 0.  0.
        -24    2    4    4    0    0 -0.30273572444E+02  0.10060187983E+03 -0.69669941892E+02  0.14908076989E+03  0.79586102635E+02 0.  0.
          5    1    3    3  501    0 -0.89998101828E+02 -0.12295523716E+03 -0.37804636343E+03  0.40762579847E+03  0.47000000000E+01 0. -1.
        -11    1    3    3    0    0 -0.27097188849E+01  0.78030053756E+01 -0.30969976110E+02  0.32052595676E+02  0.00000000000E+00 0.  1.
         12    1    3    3    0    0  0.35913842958E+02 -0.20370238001E+02 -0.35284349466E+03  0.35525101328E+03  0.00000000000E+00 0. -1.
         -5    1    4    4    0  502  0.87067550199E+02  0.34920589954E+02 -0.74354975371E+02  0.11979548515E+03  0.47000000000E+01 0.  1.
         13    1    5    5    0    0  0.25228222645E+01  0.54747311473E+02  0.55428379180E+01  0.55084987046E+02  0.00000000000E+00 0. -1.
        -14    1    5    5    0    0 -0.32796394709E+02  0.45854568362E+02 -0.75212779810E+02  0.93995782843E+02  0.00000000000E+00 0.  1.
<mgrwt>
<rscale>  2 0.22701107E+03</rscale>
<asrwt>0</asrwt>
<pdfrwt beam="1">  1       21 0.12147762E-01 0.22704903E+03</pdfrwt>
<pdfrwt beam="2">  1       21 0.15151465E+00 0.22704903E+03</pdfrwt>
<totfact> 0.16331917E+04</totfact>
</mgrwt>
</event>
<event>
12    1  0.1074575E-001  0.1794119E+03  0.7546771E-02  0.1168837E+00
         21   -1    0    0  503  502  0.00000000000E+00  0.00000000000E+00  0.10352231052E+04  0.10352231052E+04  0.00000000000E+00 0.  1.
         21   -1    0    0  501  503 -0.00000000000E+00 -0.00000000000E+00 -0.11421174694E+03  0.11421174694E+03  0.00000000000E+00 0.  1.
          6    2    1    2  501    0  0.21953669818E+02  0.41272599636E+02 -0.30083027845E+02  0.18191652631E+03  0.17321444189E+03 0.  0.
         24    2    3    3    0    0  0.33189547301E+02 -0.39314142291E+02 -0.32827539965E+02  0.10036844071E+03  0.79680792395E+02 0.  0.
         -6    2    1    2    0  502 -0.21953669818E+02 -0.41272599636E+02  0.95109438613E+03  0.96751832586E+03  0.17124773996E+03 0.  0.
        -24    2    5    5    0    0  0.53119122797E+02 -0.19712234621E+02  0.53026992222E+03  0.53948083573E+03  0.81505633589E+02 0.  0.
          5    1    3    3  501    0 -0.11235877483E+02  0.80586741927E+02  0.27445121204E+01  0.81548085593E+02  0.47000000000E+01 0. -1.
        -11    1    4    4    0    0 -0.26227018079E+02 -0.17601540885E+02 -0.11292438956E+02  0.33543850352E+02  0.00000000000E+00 0.  1.
         12    1    4    4    0    0  0.59416565380E+02 -0.21712601406E+02 -0.21535101009E+02  0.66824590360E+02  0.00000000000E+00 0. -1.
         -5    1    5    5    0  502 -0.75072792614E+02 -0.21560365015E+02  0.42082446391E+03  0.42803749012E+03  0.47000000000E+01 0.  1.
         13    1    6    6    0    0 -0.19137435138E+01 -0.37745308388E+02  0.14323578443E+03  0.14813797846E+03  0.00000000000E+00 0. -1.
        -14    1    6    6    0    0  0.55032866310E+02  0.18033073768E+02  0.38703413779E+03  0.39134285727E+03  0.00000000000E+00 0.  1.
<mgrwt>
<rscale>  2 0.17893551E+03</rscale>
<asrwt>0</asrwt>
<pdfrwt beam="1">  1       21 0.15926509E+00 0.17941191E+03</pdfrwt>
<pdfrwt beam="2">  1       21 0.17571039E-01 0.17941191E+03</pdfrwt>
<totfact> 0.75623806E+03</totfact>
</mgrwt>
</event>
<event>
12    1  0.1074575E-001  0.2762368E+03  0.7546771E-02  0.1097769E+00
         21   -1    0    0  501  502  0.00000000000E+00  0.00000000000E+00  0.10823355098E+04  0.10823355098E+04  0.00000000000E+00 0. -1.
         21   -1    0    0  502  503 -0.00000000000E+00 -0.00000000000E+00 -0.24421374593E+03  0.24421374593E+03  0.00000000000E+00 0.  1.
         -6    2    1    2    0  503  0.20086373457E+03 -0.75446361080E+02 -0.14034888501E+03  0.30984601520E+03  0.17397801685E+03 0.  0.
        -24    2    3    3    0    0  0.43437694023E+02 -0.73802497295E+02 -0.50067156558E+02  0.12830114190E+03  0.81368427405E+02 0.  0.
          6    2    1    2  501    0 -0.20086373457E+03  0.75446361080E+02  0.97847064891E+03  0.10167032405E+04  0.17390306291E+03 0.  0.
         24    2    5    5    0    0 -0.13012765566E+03  0.11287495238E+03  0.77262963699E+03  0.79580257397E+03  0.81677531382E+02 0.  0.
          5    1    5    5  501    0 -0.70736078909E+02 -0.37428591302E+02  0.20584101192E+03  0.22090066658E+03  0.47000000000E+01 0. -1.
        -13    1    6    6    0    0 -0.25857270604E+02  0.71628027169E+02  0.25302025285E+03  0.26423175637E+03  0.00000000000E+00 0.  1.
         14    1    6    6    0    0 -0.10427038505E+03  0.41246925214E+02  0.51960938414E+03  0.53157081760E+03  0.00000000000E+00 0. -1.
         -5    1    3    3    0  503  0.15742604054E+03 -0.16438637857E+01 -0.90281728456E+02  0.18154487330E+03  0.47000000000E+01 0.  1.
         13    1    4    4    0    0  0.22135821271E+02  0.21473046823E+01 -0.43860583014E+02  0.49176785611E+02  0.00000000000E+00 0. -1.
        -14    1    4    4    0    0  0.21301872753E+02 -0.75949801977E+02 -0.62065735437E+01  0.79124356290E+02  0.00000000000E+00 0.  1.
<mgrwt>
<rscale>  2 0.27622495E+03</rscale>
<asrwt>0</asrwt>
<pdfrwt beam="1">  1       21 0.16651315E+00 0.27623675E+03</pdfrwt>
<pdfrwt beam="2">  1       21 0.37571346E-01 0.27623675E+03</pdfrwt>
<totfact> 0.14356822E+03</totfact>
</mgrwt>
</event>
<event>
12    1  0.1074575E-001  0.1812600E+03  0.7546771E-02  0.1167120E+00
         21   -1    0    0  503  502  0.00000000000E+00  0.00000000000E+00  0.17257224782E+03  0.17257224782E+03  0.00000000000E+00 0.  1.
         21   -1    0    0  501  503 -0.00000000000E+00 -0.00000000000E+00 -0.43539143253E+03  0.43539143253E+03  0.00000000000E+00 0.  1.
          6    2    1    2  501    0  0.27052777519E+02 -0.44724914354E+02 -0.36016273147E+03  0.40221876680E+03  0.17126170760E+03 0.  0.
         24    2    3    3    0    0  0.64652216203E+02 -0.77599504684E+02 -0.26700071847E+03  0.29640899813E+03  0.79795478098E+02 0.  0.
         -6    2    1    2    0  502 -0.27052777519E+02  0.44724914354E+02  0.97343546768E+02  0.20574491355E+03  0.17355988194E+03 0.  0.
        -24    2    5    5    0    0 -0.83447551275E+02  0.42399130092E+02  0.54042922537E+02  0.13445105801E+03  0.79970428765E+02 0.  0.
          5    1    3    3  501    0 -0.37599438684E+02  0.32874590330E+02 -0.93162013004E+02  0.10580976867E+03  0.47000000000E+01 0. -1.
        -11    1    4    4    0    0  0.50563842718E+01  0.16532158275E+02 -0.37726520935E+02  0.41499032048E+02  0.00000000000E+00 0.  1.
         12    1    4    4    0    0  0.59595831931E+02 -0.94131662959E+02 -0.22927419753E+03  0.25490996608E+03  0.00000000000E+00 0. -1.
         -5    1    5    5    0  502  0.56394773756E+02  0.23257842629E+01  0.43300624231E+02  0.71293855544E+02  0.47000000000E+01 0.  1.
         13    1    6    6    0    0 -0.57634777105E+02  0.17491593462E+02  0.72382331763E+02  0.94164352731E+02  0.00000000000E+00 0. -1.
        -14    1    6    6    0    0 -0.25812774170E+02  0.24907536630E+02 -0.18339409226E+02  0.40286705277E+02  0.00000000000E+00 0.  1.
<mgrwt>
<rscale>  2 0.18070769E+03</rscale>
<asrwt>0</asrwt>
<pdfrwt beam="1">  1       21 0.26549576E-01 0.18126004E+03</pdfrwt>
<pdfrwt beam="2">  1       21 0.66983298E-01 0.18126004E+03</pdfrwt>
<totfact> 0.27727889E+04</totfact>
</mgrwt>
</event>
<event>
12    1  0.1074575E-001  0.2109100E+03  0.7546771E-02  0.1141015E+00
         21   -1    0    0  503  502  0.00000000000E+00  0.00000000000E+00  0.18236065793E+03  0.18236065793E+03  0.00000000000E+00 0. -1.
         21   -1    0    0  501  503 -0.00000000000E+00 -0.00000000000E+00 -0.28038781046E+03  0.28038781046E+03  0.00000000000E+00 0. -1.
          6    2    1    2  501    0  0.10066024096E+03  0.67928183272E+02 -0.13364668475E+03  0.24968874366E+03  0.17244219371E+03 0.  0.
         24    2    3    3    0    0 -0.13962517976E+02  0.26303611088E+02 -0.44493083154E+02  0.98554907098E+02  0.82744204631E+02 0.  0.
         -6    2    1    2    0  502 -0.10066024096E+03 -0.67928183272E+02  0.35619532225E+02  0.21305972473E+03  0.17140295515E+03 0.  0.
        -24    2    5    5    0    0 -0.55968832423E+02 -0.10299807218E+03 -0.31884468698E+01  0.14410054589E+03  0.83747764489E+02 0.  0.
          5    1    3    3  501    0  0.11462275893E+03  0.41624572184E+02 -0.89153601595E+02  0.15113383656E+03  0.47000000000E+01 0. -1.
        -13    1    4    4    0    0  0.13571228150E+02 -0.24726639295E+02 -0.56608892262E+01  0.28768569501E+02  0.00000000000E+00 0.  1.
         14    1    4    4    0    0 -0.27533746126E+02  0.51030250383E+02 -0.38832193928E+02  0.69786337597E+02  0.00000000000E+00 0. -1.
         -5    1    5    5    0  502 -0.44691408536E+02  0.35069888909E+02  0.38807979095E+02  0.68959178841E+02  0.47000000000E+01 0.  1.
         13    1    6    6    0    0 -0.50559760763E+02 -0.52858738650E+02  0.34761989069E+02  0.80985995975E+02  0.00000000000E+00 0. -1.
        -14    1    6    6    0    0 -0.54090716599E+01 -0.50139333531E+02 -0.37950435939E+02  0.63114549916E+02  0.00000000000E+00 0.  1.
<mgrwt>
<rscale>  2 0.21069748E+03</rscale>
<asrwt>0</asrwt>
<pdfrwt beam="1">  1       21 0.28055486E-01 0.21091001E+03</pdfrwt>
<pdfrwt beam="2">  1       21 0.43136586E-01 0.21091001E+03</pdfrwt>
<totfact> 0.62195123E+04</totfact>
</mgrwt>
</event>
<event>
12    1  0.1074575E-001  0.2184286E+03  0.7546771E-02  0.1135550E+00
         21   -1    0    0  501  502  0.00000000000E+00  0.00000000000E+00  0.18515117378E+03  0.18515117378E+03  0.00000000000E+00 0. -1.
         21   -1    0    0  502  503 -0.00000000000E+00 -0.00000000000E+00 -0.27060214549E+03  0.27060214549E+03  0.00000000000E+00 0. -1.
         -6    2    1    2    0  503  0.12608772217E+03  0.43792439570E+02 -0.97827887613E+02  0.23697431785E+03  0.16961910353E+03 0.  0.
        -24    2    3    3    0    0  0.81830579152E+02  0.62258734388E+02 -0.12393864831E+03  0.18216956828E+03  0.85162018356E+02 0.  0.
          6    2    1    2  501    0 -0.12608772217E+03 -0.43792439570E+02  0.12376915905E+02  0.21877900142E+03  0.17290220349E+03 0.  0.
         24    2    5    5    0    0 -0.55179534386E+02 -0.15092985210E+02 -0.58316524560E+02  0.11451355988E+03  0.80249356021E+02 0.  0.
          5    1    5    5  501    0 -0.70908187780E+02 -0.28699454360E+02  0.70693440466E+02  0.10426544154E+03  0.47000000000E+01 0. -1.
        -13    1    6    6    0    0 -0.75085952662E+02 -0.83090307917E+01 -0.35456416132E+02  0.83451169703E+02  0.00000000000E+00 0.  1.
         14    1    6    6    0    0  0.19906418276E+02 -0.67839544179E+01 -0.22860108428E+02  0.31062390176E+02  0.00000000000E+00 0. -1.
         -5    1    3    3    0  503  0.44257143015E+02 -0.18466294818E+02  0.26110760694E+02  0.54804749576E+02  0.47000000000E+01 0.  1.
         13    1    4    4    0    0  0.12862420534E+02  0.57703541758E+02 -0.32239575554E+02  0.67338925038E+02  0.00000000000E+00 0. -1.
        -14    1    4    4    0    0  0.68968158618E+02  0.45551926296E+01 -0.91699072753E+02  0.11483064324E+03  0.00000000000E+00 0.  1.
<mgrwt>
<rscale>  2 0.21777835E+03</rscale>
<asrwt>0</asrwt>
<pdfrwt beam="1">  1       21 0.28484796E-01 0.21842862E+03</pdfrwt>
<pdfrwt beam="2">  1       21 0.41631099E-01 0.21842862E+03</pdfrwt>
<totfact> 0.64721501E+04</totfact>
</mgrwt>
</event>
<event>
12    1  0.1074575E-001  0.2124974E+03  0.7546771E-02  0.1139918E+00
         21   -1    0    0  503  502  0.00000000000E+00  0.00000000000E+00  0.14551663970E+04  0.14551663970E+04  0.00000000000E+00 0.  1.
         21   -1    0    0  501  503 -0.00000000000E+00 -0.00000000000E+00 -0.37517895641E+02  0.37517895641E+02  0.00000000000E+00 0. -1.
          6    2    1    2  501    0  0.83398818694E+02  0.78187894851E+02  0.39514325280E+03  0.44865724354E+03  0.17912683239E+03 0.  0.
         24    2    3    3    0    0 -0.11344025516E+01  0.41545781209E+02  0.80821150335E+02  0.12107674338E+03  0.80001128991E+02 0.  0.
         -6    2    1    2    0  502 -0.83398818694E+02 -0.78187894851E+02  0.10225052486E+04  0.10440270491E+04  0.17721959845E+03 0.  0.
        -24    2    5    5    0    0 -0.68654145157E+02  0.38375560644E+01  0.34415593627E+03  0.36056127858E+03  0.82662014605E+02 0.  0.
          5    1    3    3  501    0  0.84533221245E+02  0.36642113642E+02  0.31432210247E+03  0.32758050016E+03  0.47000000000E+01 0. -1.
        -11    1    4    4    0    0 -0.31235831160E+02  0.42971398645E+02  0.72376534459E+02  0.89780738413E+02  0.00000000000E+00 0.  1.
         12    1    4    4    0    0  0.30101428608E+02 -0.14256174364E+01  0.84446158756E+01  0.31296004963E+02  0.00000000000E+00 0. -1.
         -5    1    5    5    0  502 -0.14744673537E+02 -0.82025450915E+02  0.67834931231E+03  0.68346577054E+03  0.47000000000E+01 0.  1.
         13    1    6    6    0    0 -0.22290881019E+02 -0.28160323651E+02  0.53109487026E+02  0.64113218737E+02  0.00000000000E+00 0. -1.
        -14    1    6    6    0    0 -0.46363264139E+02  0.31997879715E+02  0.29104644924E+03  0.29644805984E+03  0.00000000000E+00 0.  1.
<mgrwt>
<rscale>  2 0.21209492E+03</rscale>
<asrwt>0</asrwt>
<pdfrwt beam="1">  1       21 0.22387171E+00 0.21249737E+03</pdfrwt>
<pdfrwt beam="2">  1       21 0.57719851E-02 0.21249737E+03</pdfrwt>
<totfact> 0.19756718E+04</totfact>
</mgrwt>
</event>
<event>
12    1  0.1074575E-001  0.2267300E+03  0.7546771E-02  0.1129183E+00
         21   -1    0    0  501  502  0.00000000000E+00  0.00000000000E+00  0.25005864095E+03  0.25005864095E+03  0.00000000000E+00 0. -1.
         21   -1    0    0  502  503 -0.00000000000E+00 -0.00000000000E+00 -0.36893543947E+03  0.36893543947E+03  0.00000000000E+00 0.  1.
         -6    2    1    2    0  503  0.14742372387E+03  0.16362154304E+02 -0.26599278232E+03  0.34871717076E+03  0.16985296724E+03 0.  0.
        -24    2    3    3    0    0  0.21735808189E+02  0.48185677008E+02 -0.10719662330E+03  0.14365986446E+03  0.79704051231E+02 0.  0.
          6    2    1    2  501    0 -0.14742372387E+03 -0.16362154304E+02  0.14711598380E+03  0.27027690967E+03  0.17147892220E+03 0.  0.
         24    2    5    5    0    0 -0.79898815837E+02 -0.21902883216E+02  0.36612885585E+01  0.11155812543E+03  0.74620729366E+02 0.  0.
          5    1    5    5  501    0 -0.67524908035E+02  0.55407289121E+01  0.14345469524E+03  0.15871878424E+03  0.47000000000E+01 0. -1.
        -11    1    6    6    0    0 -0.50051386858E+02  0.18360313053E+02  0.22699806778E+02  0.57944142496E+02  0.00000000000E+00 0.  1.
         12    1    6    6    0    0 -0.29847428978E+02 -0.40263196269E+02 -0.19038518219E+02  0.53613982938E+02  0.00000000000E+00 0. -1.
         -5    1    3    3    0  503  0.12568791568E+03 -0.31823522705E+02 -0.15879615902E+03  0.20505730630E+03  0.47000000000E+01 0.  1.
         11    1    4    4    0    0  0.43746038444E+02  0.32322409007E+02 -0.30618276830E+02  0.62417408466E+02  0.00000000000E+00 0. -1.
        -12    1    4    4    0    0 -0.22010230254E+02  0.15863268001E+02 -0.76578346471E+02  0.81242455993E+02  0.00000000000E+00 0.  1.
<mgrwt>
<rscale>  2 0.22642257E+03</rscale>
<asrwt>0</asrwt>
<pdfrwt beam="1">  1       21 0.38470560E-01 0.22673001E+03</pdfrwt>
<pdfrwt beam="2">  1       21 0.56759298E-01 0.22673001E+03</pdfrwt>
<totfact> 0.18636652E+04</totfact>
</mgrwt>
</event>
<event>
12    1  0.1074575E-001  0.1782276E+03  0.7546771E-02  0.1169865E+00
         21   -1    0    0  501  502  0.00000000000E+00  0.00000000000E+00  0.58880248146E+03  0.58880248146E+03  0.00000000000E+00 0.  1.
         21   -1    0    0  502  503 -0.00000000000E+00 -0.00000000000E+00 -0.54158824946E+02  0.54158824946E+02  0.00000000000E+00 0.  1.
         -6    2    1    2    0  503 -0.30940132258E+02 -0.56610379593E+01  0.23186671559E+03  0.29162251959E+03  0.17404649091E+03 0.  0.
        -24    2    3    3    0    0  0.40533716621E+02 -0.37385924447E+02  0.12164414582E+03  0.15639647039E+03  0.81374862260E+02 0.  0.
          6    2    1    2  501    0  0.30940132258E+02  0.56610379593E+01  0.30277694093E+03  0.35133878682E+03  0.17543012293E+03 0.  0.
         24    2    5    5    0    0 -0.30517418351E+02 -0.45149095695E+02  0.15076482077E+03  0.17961670063E+03  0.81008482886E+02 0.  0.
          5    1    5    5  501    0  0.61457550609E+02  0.50810133655E+02  0.15201212016E+03  0.17172208619E+03  0.47000000000E+01 0. -1.
        -11    1    6    6    0    0  0.15374719543E+02 -0.38318149050E+02  0.11127890606E+03  0.11869143811E+03  0.00000000000E+00 0.  1.
         12    1    6    6    0    0 -0.45892137893E+02 -0.68309466452E+01  0.39485914710E+02  0.60925262518E+02  0.00000000000E+00 0. -1.
         -5    1    3    3    0  503 -0.71473848879E+02  0.31724886487E+02  0.11022256976E+03  0.13522604920E+03  0.47000000000E+01 0.  1.
         13    1    4    4    0    0  0.11379630844E+02  0.17958347660E+01  0.10374326789E+03  0.10438096882E+03  0.00000000000E+00 0. -1.
        -14    1    4    4    0    0  0.29154085777E+02 -0.39181759213E+02  0.17900877937E+02  0.52015501568E+02  0.00000000000E+00 0.  1.
<mgrwt>
<rscale>  2 0.17788615E+03</rscale>
<asrwt>0</asrwt>
<pdfrwt beam="1">  1       21 0.90584993E-01 0.17822757E+03</pdfrwt>
<pdfrwt beam="2">  1       21 0.83321273E-02 0.17822757E+03</pdfrwt>
<totfact> 0.11633816E+05</totfact>
</mgrwt>
</event>
<event>
12    1  0.1074575E-001  0.2889127E+03  0.7546771E-02  0.1090938E+00
         21   -1    0    0  501  502  0.00000000000E+00  0.00000000000E+00  0.42341438128E+03  0.42341438128E+03  0.00000000000E+00 0. -1.
         21   -1    0    0  502  503 -0.00000000000E+00 -0.00000000000E+00 -0.19933552878E+03  0.19933552878E+03  0.00000000000E+00 0.  1.
         -6    2    1    2    0  503 -0.21590387694E+03  0.82095672547E+02  0.78612651712E+02  0.29941694921E+03  0.17354070685E+03 0.  0.
        -24    2    3    3    0    0 -0.87370474030E+02 -0.12827888031E+02 -0.48325686823E+01  0.11909359292E+03  0.79760740407E+02 0.  0.
          6    2    1    2  501    0  0.21590387694E+03 -0.82095672547E+02  0.14546620079E+03  0.32333296084E+03  0.17329052042E+03 0.  0.
         24    2    5    5    0    0  0.75454220527E+02 -0.92879053516E+02  0.49292078135E+02  0.15270488824E+03  0.81050699862E+02 0.  0.
          5    1    5    5  501    0  0.14044965642E+03  0.10783380969E+02  0.96174122653E+02  0.17062807260E+03  0.47000000000E+01 0. -1.
        -13    1    6    6    0    0  0.92637884489E+02 -0.84354112719E+02  0.41248999106E+02  0.13190479105E+03  0.00000000000E+00 0.  1.
         14    1    6    6    0    0 -0.17183663962E+02 -0.85249407965E+01  0.80430790292E+01  0.20800097188E+02  0.00000000000E+00 0. -1.
         -5    1    3    3    0  503 -0.12853340291E+03  0.94923560578E+02  0.83445220395E+02  0.18032335629E+03  0.47000000000E+01 0.  1.
         11    1    4    4    0    0 -0.15567402762E+02  0.24620967067E+02  0.18877883916E+02  0.34711821462E+02  0.00000000000E+00 0. -1.
        -12    1    4    4    0    0 -0.71803071267E+02 -0.37448855097E+02 -0.23710452598E+02  0.84381771455E+02  0.00000000000E+00 0.  1.
<mgrwt>
<rscale>  2 0.28887516E+03</rscale>
<asrwt>0</asrwt>
<pdfrwt beam="1">  1       21 0.65140674E-01 0.28891272E+03</pdfrwt>
<pdfrwt beam="2">  1       21 0.30667004E-01 0.28891272E+03</pdfrwt>
<totfact> 0.21103521E+04</totfact>
</mgrwt>
</event>
<event>
12    1  0.1074575E-001  0.2153811E+03  0.7546771E-02  0.1137530E+00
         21   -1    0    0  503  502  0.00000000000E+00  0.00000000000E+00  0.18868504596E+03  0.18868504596E+03  0.00000000000E+00 0.  1.
         21   -1    0    0  501  503 -0.00000000000E+00 -0.00000000000E+00 -0.33141340206E+03  0.33141340206E+03  0.00000000000E+00 0.  1.
          6    2    1    2  501    0  0.10938378222E+03 -0.66946934679E+02 -0.20410707017E+03  0.29614230552E+03  0.17202867537E+03 0.  0.
         24    2    3    3    0    0  0.56833066301E+02 -0.93383060489E+02 -0.76997541357E+02  0.15600177317E+03  0.80358810635E+02 0.  0.
         -6    2    1    2    0  502 -0.10938378222E+03  0.66946934679E+02  0.61378714081E+02  0.22395614250E+03  0.17303844470E+03 0.  0.
        -24    2    5    5    0    0 -0.20108520605E+02 -0.19856450341E+02  0.54745839818E+00  0.85293127764E+02  0.80473515593E+02 0.  0.
          5    1    3    3  501    0  0.52550715919E+02  0.26436125810E+02 -0.12710952882E+03  0.14014053235E+03  0.47000000000E+01 0. -1.
        -13    1    4    4    0    0 -0.15704804781E+02 -0.21396829517E+02  0.23126490214E+01  0.26642326327E+02  0.00000000000E+00 0.  1.
         14    1    4    4    0    0  0.72537871082E+02 -0.71986230972E+02 -0.79310190378E+02  0.12935944685E+03  0.00000000000E+00 0. -1.
         -5    1    5    5    0  502 -0.89275261615E+02  0.86803385019E+02  0.60831255683E+02  0.13866301473E+03  0.47000000000E+01 0.  1.
         11    1    6    6    0    0 -0.44771379625E+02 -0.32848862077E+02 -0.80766359004E+01  0.56113779241E+02  0.00000000000E+00 0. -1.
        -12    1    6    6    0    0  0.24662859019E+02  0.12992411736E+02  0.86240942986E+01  0.29179348523E+02  0.00000000000E+00 0.  1.
<mgrwt>
<rscale>  2 0.21517818E+03</rscale>
<asrwt>0</asrwt>
<pdfrwt beam="1">  1       21 0.29028469E-01 0.21538107E+03</pdfrwt>
<pdfrwt beam="2">  1       21 0.50986677E-01 0.21538107E+03</pdfrwt>
<totfact> 0.41087419E+04</totfact>
</mgrwt>
</event>
<event>
12    1  0.1074575E-001  0.2168293E+03  0.7546771E-02  0.1139321E+00
         21   -1    0    0  501  502  0.00000000000E+00  0.00000000000E+00  0.53558072599E+03  0.53558072599E+03  0.00000000000E+00 0.  1.
         21   -1    0    0  502  503 -0.00000000000E+00 -0.00000000000E+00 -0.20511967890E+03  0.20511967890E+03  0.00000000000E+00 0.  1.
         -6    2    1    2    0  503 -0.16550720794E+02  0.10123815577E+03 -0.11960796651E+03  0.24763080403E+03  0.19102842434E+03 0.  0.
        -24    2    3    3    0    0  0.97256756871E+01  0.13769834159E+03 -0.55011419999E+02  0.16879808250E+03  0.80069434122E+02 0.  0.
          6    2    1    2  501    0  0.16550720794E+02 -0.10123815577E+03  0.45006901360E+03  0.49306960087E+03  0.17329865479E+03 0.  0.
         24    2    5    5    0    0 -0.49165554854E+02 -0.31238963404E+02  0.17705020936E+03  0.20362206972E+03  0.81988084646E+02 0.  0.
          5    1    5    5  501    0  0.65716275647E+02 -0.69999192370E+02  0.27301880424E+03  0.28944753114E+03  0.47000000000E+01 0. -1.
        -13    1    6    6    0    0  0.39449585514E+01  0.23762478694E+02  0.44495956231E+02  0.50597511921E+02  0.00000000000E+00 0.  1.
         14    1    6    6    0    0 -0.53110513405E+02 -0.55001442098E+02  0.13255425313E+03  0.15302455780E+03  0.00000000000E+00 0. -1.
         -5    1    3    3    0  503 -0.26276396481E+02 -0.36460185819E+02 -0.64596546513E+02  0.78832721528E+02  0.47000000000E+01 0.  1.
         11    1    4    4    0    0  0.11883638997E+02 -0.30414603344E+01  0.79334275048E+01  0.14608580655E+02  0.00000000000E+00 0. -1.
        -12    1    4    4    0    0 -0.21579633098E+01  0.14073980193E+03 -0.62944847504E+02  0.15418950185E+03  0.00000000000E+00 0.  1.
<mgrwt>
<rscale>  2 0.21286033E+03</rscale>
<asrwt>0</asrwt>
<pdfrwt beam="1">  1       21 0.82397034E-01 0.21682931E+03</pdfrwt>
<pdfrwt beam="2">  1       21 0.31556874E-01 0.21682931E+03</pdfrwt>
<totfact> 0.12222120E+04</totfact>
</mgrwt>
</event>
<event>
12    1  0.1074575E-001  0.2135838E+03  0.7546771E-02  0.1138845E+00
         21   -1    0    0  503  502  0.00000000000E+00  0.00000000000E+00  0.36604325791E+03  0.36604325791E+03  0.00000000000E+00 0. -1.
         21   -1    0    0  501  503 -0.00000000000E+00 -0.00000000000E+00 -0.36270265756E+03  0.36270265756E+03  0.00000000000E+00 0.  1.
          6    2    1    2  501    0 -0.96130491243E+02  0.78256090141E+02 -0.29369849851E+03  0.36314852417E+03  0.17393376782E+03 0.  0.
         24    2    3    3    0    0 -0.72957296392E+02 -0.14554604904E+02 -0.11589599257E+03  0.16119149113E+03  0.83762832442E+02 0.  0.
         -6    2    1    2    0  502  0.96130491243E+02 -0.78256090141E+02  0.29703909886E+03  0.36559739130E+03  0.17339013605E+03 0.  0.
        -24    2    5    5    0    0  0.17369857951E+02 -0.10099998350E+03  0.19865553171E+03  0.23744928040E+03  0.80096390994E+02 0.  0.
          5    1    3    3  501    0 -0.23173194851E+02  0.92810695045E+02 -0.17780250594E+03  0.20195703304E+03  0.47000000000E+01 0. -1.
        -13    1    4    4    0    0 -0.54136930641E+02  0.30815014653E+02 -0.56319595593E+02  0.83977790129E+02  0.00000000000E+00 0.  1.
         14    1    4    4    0    0 -0.18820365752E+02 -0.45369619556E+02 -0.59576396977E+02  0.77213701002E+02  0.00000000000E+00 0. -1.
         -5    1    5    5    0  502  0.78760633292E+02  0.22743893359E+02  0.98383567149E+02  0.12814811090E+03  0.47000000000E+01 0.  1.
         11    1    6    6    0    0  0.26844672502E+02 -0.30339982519E+02  0.13807053032E+03  0.14389100849E+03  0.00000000000E+00 0. -1.
        -12    1    6    6    0    0 -0.94748145505E+01 -0.70660000981E+02  0.60585001394E+02  0.93558271913E+02  0.00000000000E+00 0.  1.
<mgrwt>
<rscale>  2 0.21347310E+03</rscale>
<asrwt>0</asrwt>
<pdfrwt beam="1">  1       21 0.56314348E-01 0.21358381E+03</pdfrwt>
<pdfrwt beam="2">  1       21 0.55800409E-01 0.21358381E+03</pdfrwt>
<totfact> 0.88466148E+03</totfact>
</mgrwt>
</event>
