<event>
12    1  0.1050690E-001  0.1805606E+03  0.7546771E-02  0.1167364E+00
         21   -1    0    0  501  502  0.00000000000E+00  0.00000000000E+00  0.43620376768E+02  0.43620376768E+02  0.00000000000E+00 0. -1.
         21   -1    0    0  502  503 -0.00000000000E+00 -0.00000000000E+00 -0.85000691958E+03  0.85000691958E+03  0.00000000000E+00 0. -1.
         -6    2    1    2    0  503 -0.48709269324E+02 -0.11145342833E+02 -0.55933538204E+03  0.58762663970E+03  0.17306700004E+03 0.  0.
        -24    2    3    3    0    0 -0.88749119754E+02  0.42172886372E+01 -0.48696944819E+03  0.50337630766E+03  0.91401705999E+02 0.  0.
          6    2    1    2  501    0  0.48709269324E+02  0.11145342833E+02 -0.24705116078E+03  0.30600065665E+03  0.17350883045E+03 0.  0.
         24    2    5    5    0    0  0.27859626242E+02 -0.32909699650E+02 -0.52133474846E+02  0.10502665665E+03  0.80333631206E+02 0.  0.
          5    1    5    5  501    0  0.20849643083E+02  0.44055042483E+02 -0.19491768594E+03  0.20097400000E+03  0.47000000000E+01 0. -1.
        -11    1    6    6    0    0  0.25309813264E+02  0.16073287940E+02 -0.46946594055E+02  0.55703859167E+02  0.00000000000E+00 0.  1.
         12    1    6    6    0    0  0.25498129775E+01 -0.48982987590E+02 -0.51868807904E+01  0.49322797486E+02  0.00000000000E+00 0. -1.
         -5    1    3    3    0  503  0.40039850429E+02 -0.15362631470E+02 -0.72365933843E+02  0.84250332041E+02  0.47000000000E+01 0.  1.
         11    1    4    4    0    0 -0.15234434046E+02 -0.12706085634E+01 -0.54244579142E+01  0.16221195100E+02  0.00000000000E+00 0. -1.
        -12    1    4    4    0    0 -0.73514685708E+02  0.54878972007E+01 -0.48154499028E+03  0.48715511256E+03  0.00000000000E+00 0.  1.
<mgrwt>
<rscale>  2 0.18045436E+03</rscale>
<asrwt>0</asrwt>
<pdfrwt beam="1">  1       21 0.67108271E-02 0.18056059E+03</pdfrwt>
<pdfrwt beam="2">  1       21 0.13077030E+00 0.18056059E+03</pdfrwt>
<totfact> 0.69692999E+04</totfact>
</mgrwt>
</event>
<event>
12    1  0.1050690E-001  0.2225341E+03  0.7546771E-02  0.1132168E+00
         21   -1    0    0  501  502  0.00000000000E+00  0.00000000000E+00  0.30442971608E+03  0.30442971608E+03  0.00000000000E+00 0.  1.
         21   -1    0    0  502  503 -0.00000000000E+00 -0.00000000000E+00 -0.17095940727E+03  0.17095940727E+03  0.00000000000E+00 0.  1.
         -6    2    1    2    0  503 -0.24302539738E+02 -0.13842828064E+03  0.12116892116E+03  0.25338377201E+03  0.17253528957E+03 0.  0.
        -24    2    3    3    0    0 -0.64757203083E+02 -0.37874017525E+02  0.86503217527E+02  0.13949110050E+03  0.79668211479E+02 0.  0.
          6    2    1    2  501    0  0.24302539738E+02  0.13842828064E+03  0.12301387655E+02  0.22200535133E+03  0.17141192946E+03 0.  0.
         24    2    5    5    0    0  0.33723136524E+02  0.20983023955E+02 -0.35101785770E+02  0.94917638264E+02  0.78738081371E+02 0.  0.
          5    1    5    5  501    0 -0.94205967863E+01  0.11744525669E+03  0.47403173426E+02  0.12708771307E+03  0.47000000000E+01 0. -1.
        -11    1    6    6    0    0  0.56002832658E+02  0.96808856314E+00 -0.32732809332E+02  0.64874426918E+02  0.00000000000E+00 0.  1.
         12    1    6    6    0    0 -0.22279696134E+02  0.20014935392E+02 -0.23689764385E+01  0.30043211345E+02  0.00000000000E+00 0. -1.
         -5    1    3    3    0  503  0.40454663345E+02 -0.10055426312E+03  0.34665703630E+02  0.11389267152E+03  0.47000000000E+01 0.  1.
         11    1    4    4    0    0  0.15979756682E+02 -0.18453647387E+02  0.93473943567E+01  0.26139309607E+02  0.00000000000E+00 0. -1.
        -12    1    4    4    0    0 -0.80736959765E+02 -0.19420370138E+02  0.77155823171E+02  0.11335179089E+03  0.00000000000E+00 0.  1.
<mgrwt>
<rscale>  2 0.22231633E+03</rscale>
<asrwt>0</asrwt>
<pdfrwt beam="1">  1       21 0.46835341E-01 0.22253411E+03</pdfrwt>
<pdfrwt beam="2">  1       21 0.26301447E-01 0.22253411E+03</pdfrwt>
<totfact> 0.59179037E+04</totfact>
</mgrwt>
</event>
<event>
12    1  0.1050690E-001  0.2196127E+03  0.7546771E-02  0.1134384E+00
         21   -1    0    0  501  502  0.00000000000E+00  0.00000000000E+00  0.31158492735E+03  0.31158492735E+03  0.00000000000E+00 0.  1.
         21   -1    0    0  502  503 -0.00000000000E+00 -0.00000000000E+00 -0.20415057690E+03  0.20415057690E+03  0.00000000000E+00 0. -1.
         -6    2    1    2    0  503 -0.11949643042E+03 -0.60183921645E+02 -0.74206903886E+02  0.23073848964E+03  0.17271967089E+03 0.  0.
        -24    2    3    3    0    0 -0.10931579482E+03 -0.25988804703E+02 -0.11183932912E+03  0.17866891318E+03  0.82396504971E+02 0.  0.
          6    2    1    2  501    0  0.11949643042E+03  0.60183921645E+02  0.18164125433E+03  0.28499701461E+03  0.17415008399E+03 0.  0.
         24    2    5    5    0    0  0.11199392147E+03  0.64070861848E+02  0.60430262693E+02  0.16340100136E+03  0.80002230029E+02 0.  0.
          5    1    5    5  501    0  0.75025089418E+01 -0.38869402032E+01  0.12121099164E+03  0.12159601325E+03  0.47000000000E+01 0. -1.
        -11    1    6    6    0    0  0.22528911600E+02  0.47219350075E+02  0.48940254531E+02  0.71640542941E+02  0.00000000000E+00 0.  1.
         12    1    6    6    0    0  0.89465009874E+02  0.16851511773E+02  0.11490008162E+02  0.91760458414E+02  0.00000000000E+00 0. -1.
         -5    1    3    3    0  503 -0.10180635592E+02 -0.34195116942E+02  0.37632425235E+02  0.52069576461E+02  0.47000000000E+01 0.  1.
         11    1    4    4    0    0 -0.97180099575E+02  0.11365220126E+02 -0.64645178228E+02  0.11726951458E+03  0.00000000000E+00 0. -1.
        -12    1    4    4    0    0 -0.12135695250E+02 -0.37354024829E+02 -0.47194150893E+02  0.61399398601E+02  0.00000000000E+00 0.  1.
<mgrwt>
<rscale>  2 0.21932904E+03</rscale>
<asrwt>0</asrwt>
<pdfrwt beam="1">  1       21 0.47936143E-01 0.21961273E+03</pdfrwt>
<pdfrwt beam="2">  1       21 0.31407781E-01 0.21961273E+03</pdfrwt>
<totfact> 0.39980587E+04</totfact>
</mgrwt>
</event>
<event>
12    1  0.1050690E-001  0.1876531E+03  0.7546771E-02  0.1160821E+00
         21   -1    0    0  503  502  0.00000000000E+00  0.00000000000E+00  0.27108986603E+02  0.27108986603E+02  0.00000000000E+00 0.  1.
         21   -1    0    0  501  503 -0.00000000000E+00 -0.00000000000E+00 -0.12969062434E+04  0.12969062434E+04  0.00000000000E+00 0.  1.
          6    2    1    2  501    0  0.68196390495E+01  0.73060350490E+02 -0.67321962649E+03  0.69862050780E+03  0.17164389338E+03 0.  0.
         24    2    3    3    0    0  0.70463141394E+02  0.40211317440E+02 -0.43203977236E+03  0.44698711097E+03  0.80975972515E+02 0.  0.
         -6    2    1    2    0  502 -0.68196390495E+01 -0.73060350490E+02 -0.59657763035E+03  0.62539472225E+03  0.17271180414E+03 0.  0.
        -24    2    5    5    0    0 -0.46663218421E+02 -0.43850725871E+01 -0.22916863904E+03  0.24947550020E+03  0.86735663158E+02 0.  0.
          5    1    3    3  501    0 -0.63643502344E+02  0.32849033049E+02 -0.24117985413E+03  0.25163339683E+03  0.47000000000E+01 0. -1.
        -13    1    4    4    0    0  0.16846527171E+02  0.55872934526E+02 -0.20180280145E+03  0.21007132352E+03  0.00000000000E+00 0.  1.
         14    1    4    4    0    0  0.53616614223E+02 -0.15661617085E+02 -0.23023697091E+03  0.23691578745E+03  0.00000000000E+00 0. -1.
         -5    1    5    5    0  502  0.39843579371E+02 -0.68675277903E+02 -0.36740899131E+03  0.37591922205E+03  0.47000000000E+01 0.  1.
         11    1    6    6    0    0 -0.10823066091E+02  0.14829191527E+02 -0.19638357264E+03  0.19723983189E+03  0.00000000000E+00 0. -1.
        -12    1    6    6    0    0 -0.35840152329E+02 -0.19214264114E+02 -0.32785066398E+02  0.52235668304E+02  0.00000000000E+00 0.  1.
<mgrwt>
<rscale>  2 0.18740702E+03</rscale>
<asrwt>0</asrwt>
<pdfrwt beam="1">  1       21 0.41706146E-02 0.18765311E+03</pdfrwt>
<pdfrwt beam="2">  1       21 0.19952397E+00 0.18765311E+03</pdfrwt>
<totfact> 0.49560050E+04</totfact>
</mgrwt>
</event>
<event>
12    1  0.1050690E-001  0.1782578E+03  0.7546771E-02  0.1169504E+00
         21   -1    0    0  501  502  0.00000000000E+00  0.00000000000E+00  0.16845569718E+03  0.16845569718E+03  0.00000000000E+00 0. -1.
         21   -1    0    0  502  503 -0.00000000000E+00 -0.00000000000E+00 -0.29871510334E+03  0.29871510334E+03  0.00000000000E+00 0. -1.
         -6    2    1    2    0  503  0.24130139309E+02  0.36983874861E+02 -0.20694090345E+03  0.27311950581E+03  0.17268368861E+03 0.  0.
        -24    2    3    3    0    0 -0.18474572270E+02  0.82252908112E+02 -0.11723325417E+03  0.16387666092E+03  0.77492408646E+02 0.  0.
          6    2    1    2  501    0 -0.24130139309E+02 -0.36983874861E+02  0.76681497294E+02  0.19405129471E+03  0.17270142538E+03 0.  0.
         24    2    5    5    0    0 -0.32359387497E+02  0.34316388395E+02  0.80109742442E+02  0.12204233047E+03  0.79069685213E+02 0.  0.
          5    1    5    5  501    0  0.82292481878E+01 -0.71300263256E+02 -0.34282451479E+01  0.72008964240E+02  0.47000000000E+01 0. -1.
        -13    1    6    6    0    0 -0.59382294958E+01  0.45824207915E+02  0.80952217886E+02  0.93211491680E+02  0.00000000000E+00 0.  1.
         14    1    6    6    0    0 -0.26421158001E+02 -0.11507819520E+02 -0.84247544403E+00  0.28830838786E+02  0.00000000000E+00 0. -1.
         -5    1    3    3    0  503  0.42604711579E+02 -0.45269033251E+02 -0.89707649284E+02  0.10924284489E+03  0.47000000000E+01 0.  1.
         13    1    4    4    0    0 -0.19514441532E+01  0.46513150040E+02 -0.11542621664E+03  0.12446080809E+03  0.00000000000E+00 0. -1.
        -14    1    4    4    0    0 -0.16523128117E+02  0.35739758072E+02 -0.18070375237E+01  0.39415852832E+02  0.00000000000E+00 0.  1.
<mgrwt>
<rscale>  2 0.17825353E+03</rscale>
<asrwt>0</asrwt>
<pdfrwt beam="1">  1       21 0.25916261E-01 0.17825783E+03</pdfrwt>
<pdfrwt beam="2">  1       21 0.45956170E-01 0.17825783E+03</pdfrwt>
<totfact> 0.64569771E+04</totfact>
</mgrwt>
</event>
<event>
12    1  0.1050690E-001  0.2710118E+03  0.7546771E-02  0.1100849E+00
         21   -1    0    0  501  502  0.00000000000E+00  0.00000000000E+00  0.22217158160E+04  0.22217158160E+04  0.00000000000E+00 0.  1.
         21   -1    0    0  502  503 -0.00000000000E+00 -0.00000000000E+00 -0.37312864640E+02  0.37312864640E+02  0.00000000000E+00 0.  1.
         -6    2    1    2    0  503  0.20736014770E+03 -0.23263909633E+02  0.70341300244E+03  0.75344619268E+03  0.17132388311E+03 0.  0.
        -24    2    3    3    0    0  0.57390649133E+02 -0.21344053872E+02  0.16136981432E+03  0.19101624671E+03  0.81839686514E+02 0.  0.
          6    2    1    2  501    0 -0.20736014770E+03  0.23263909633E+02  0.14809899490E+04  0.15055824880E+04  0.17293917685E+03 0.  0.
         24    2    5    5    0    0 -0.13655797316E+03 -0.11391144015E+01  0.59008885512E+03  0.61152695028E+03  0.84326605376E+02 0.  0.
          5    1    5    5  501    0 -0.70802174542E+02  0.24403024034E+02  0.89090109385E+03  0.89405553772E+03  0.47000000000E+01 0. -1.
        -11    1    6    6    0    0 -0.12258649916E+03 -0.20234156699E+02  0.55796024672E+03  0.57162619586E+03  0.00000000000E+00 0.  1.
         12    1    6    6    0    0 -0.13971473995E+02  0.19095042298E+02  0.32128608398E+02  0.39900754423E+02  0.00000000000E+00 0. -1.
         -5    1    3    3    0  503  0.14996949857E+03 -0.19198557611E+01  0.54204318811E+03  0.56242994597E+03  0.47000000000E+01 0.  1.
         13    1    4    4    0    0 -0.16590198436E+02 -0.86723334623E+01  0.71575600748E+02  0.73983178320E+02  0.00000000000E+00 0. -1.
        -14    1    4    4    0    0  0.73980847569E+02 -0.12671720410E+02  0.89794213575E+02  0.11703306839E+03  0.00000000000E+00 0.  1.
<mgrwt>
<rscale>  2 0.27075447E+03</rscale>
<asrwt>0</asrwt>
<pdfrwt beam="1">  1       21 0.34180233E+00 0.27101181E+03</pdfrwt>
<pdfrwt beam="2">  1       21 0.57404424E-02 0.27101181E+03</pdfrwt>
<totfact> 0.38186129E+03</totfact>
</mgrwt>
</event>
<event>
12    1  0.1050690E-001  0.2792695E+03  0.7546771E-02  0.1096162E+00
         21   -1    0    0  503  502  0.00000000000E+00  0.00000000000E+00  0.61952994705E+03  0.61952994705E+03  0.00000000000E+00 0.  1.
         21   -1    0    0  501  503 -0.00000000000E+00 -0.00000000000E+00 -0.15533385358E+03  0.15533385358E+03  0.00000000000E+00 0.  1.
          6    2    1    2  501    0  0.10420547737E+03 -0.19218170232E+03  0.62902462770E+02  0.28626596246E+03  0.17377828755E+03 0.  0.
         24    2    3    3    0    0  0.11356001759E+03 -0.12130353654E+03  0.91370999527E+02  0.20917011697E+03  0.88278268598E+02 0.  0.
         -6    2    1    2    0  502 -0.10420547737E+03  0.19218170232E+03  0.40129363070E+03  0.48859783818E+03  0.17291235124E+03 0.  0.
        -24    2    5    5    0    0 -0.11705647335E+03  0.88659506310E+02  0.29864655701E+03  0.34217207234E+03  0.79556489755E+02 0.  0.
          5    1    3    3  501    0 -0.93545402239E+01 -0.70878165775E+02 -0.28468536757E+02  0.77095845488E+02  0.47000000000E+01 0. -1.
        -13    1    4    4    0    0  0.72170936370E+02 -0.15009098569E+02  0.29462972461E+02  0.79385035382E+02  0.00000000000E+00 0.  1.
         14    1    4    4    0    0  0.41389081222E+02 -0.10629443797E+03  0.61908027066E+02  0.12978508159E+03  0.00000000000E+00 0. -1.
         -5    1    5    5    0  502  0.12850995983E+02  0.10352219601E+03  0.10264707369E+03  0.14642576583E+03  0.47000000000E+01 0.  1.
         11    1    6    6    0    0 -0.71698250199E+02  0.94607072767E+01  0.98498841847E+02  0.12219724182E+03  0.00000000000E+00 0. -1.
        -12    1    6    6    0    0 -0.45358223153E+02  0.79198799033E+02  0.20014771517E+03  0.21997483052E+03  0.00000000000E+00 0.  1.
<mgrwt>
<rscale>  2 0.27913495E+03</rscale>
<asrwt>0</asrwt>
<pdfrwt beam="1">  1       21 0.95312298E-01 0.27926955E+03</pdfrwt>
<pdfrwt beam="2">  1       21 0.23897516E-01 0.27926955E+03</pdfrwt>
<totfact> 0.14453292E+04</totfact>
</mgrwt>
</event>
<event>
12    1  0.1050690E-001  0.2434595E+03  0.7546771E-02  0.1117794E+00
         21   -1    0    0  503  502  0.00000000000E+00  0.00000000000E+00  0.45250709956E+02  0.45250709956E+02  0.00000000000E+00 0. -1.
         21   -1    0    0  501  503 -0.00000000000E+00 -0.00000000000E+00 -0.13315727698E+04  0.13315727698E+04  0.00000000000E+00 0. -1.
          6    2    1    2  501    0  0.86667592334E+02  0.14715539040E+03 -0.75049361940E+03  0.78899504238E+03  0.17351231557E+03 0.  0.
         24    2    3    3    0    0  0.40796870660E+02  0.16898189709E+03 -0.61978769115E+03  0.64868592229E+03  0.80233269113E+02 0.  0.
         -6    2    1    2    0  502 -0.86667592334E+02 -0.14715539040E+03 -0.53582844041E+03  0.58782843735E+03  0.17106774597E+03 0.  0.
        -24    2    5    5    0    0 -0.10865279957E+02 -0.69045041072E+02 -0.39355979418E+03  0.40863671060E+03  0.84908054078E+02 0.  0.
          5    1    3    3  501    0  0.45870721674E+02 -0.21826506691E+02 -0.13070592825E+03  0.14030912009E+03  0.47000000000E+01 0. -1.
        -13    1    4    4    0    0 -0.69427304524E+01 -0.37492319813E+01 -0.69655482189E+02  0.70100958949E+02  0.00000000000E+00 0.  1.
         14    1    4    4    0    0  0.47739601113E+02  0.17273112907E+03 -0.55013220896E+03  0.57858496334E+03  0.00000000000E+00 0. -1.
         -5    1    5    5    0  502 -0.75802312377E+02 -0.78110349328E+02 -0.14226864623E+03  0.17919172675E+03  0.47000000000E+01 0.  1.
         13    1    6    6    0    0 -0.35183722825E+02 -0.73927271432E+02 -0.33829008870E+03  0.34805648956E+03  0.00000000000E+00 0. -1.
        -14    1    6    6    0    0  0.24318442868E+02  0.48822303600E+01 -0.55269705479E+02  0.60580221034E+02  0.00000000000E+00 0.  1.
<mgrwt>
<rscale>  2 0.24302425E+03</rscale>
<asrwt>0</asrwt>
<pdfrwt beam="1">  1       21 0.69616475E-02 0.24345945E+03</pdfrwt>
<pdfrwt beam="2">  1       21 0.20485735E+00 0.24345945E+03</pdfrwt>
<totfact> 0.18412426E+04</totfact>
</mgrwt>
</event>
<event>
12    1  0.1050690E-001  0.1869712E+03  0.7546771E-02  0.1163085E+00
         21   -1    0    0  503  502  0.00000000000E+00  0.00000000000E+00  0.49215338796E+03  0.49215338796E+03  0.00000000000E+00 0.  1.
         21   -1    0    0  501  503 -0.00000000000E+00 -0.00000000000E+00 -0.44645375560E+03  0.44645375560E+03  0.00000000000E+00 0.  1.
          6    2    1    2  501    0  0.83663133654E+01  0.69922380966E+02 -0.40911383301E+03  0.44981368308E+03  0.17320244390E+03 0.  0.
         24    2    3    3    0    0  0.67747255086E+01  0.77512284440E+02 -0.15260301614E+03  0.19314263104E+03  0.89231968744E+02 0.  0.
         -6    2    1    2    0  502 -0.83663133654E+01 -0.69922380966E+02  0.45481346537E+03  0.48879346048E+03  0.16463482064E+03 0.  0.
        -24    2    5    5    0    0  0.18995033239E+02  0.17684021524E+02  0.24600408781E+03  0.26065540753E+03  0.82156523494E+02 0.  0.
          5    1    3    3  501    0  0.15915878568E+01 -0.75899034739E+01 -0.25651081687E+03  0.25667105205E+03  0.47000000000E+01 0. -1.
        -11    1    4    4    0    0  0.15723262174E+02  0.16392810309E+02  0.55258326668E+01  0.23376912326E+02  0.00000000000E+00 0.  1.
         12    1    4    4    0    0 -0.89485366656E+01  0.61119474131E+02 -0.15812884880E+03  0.16976571871E+03  0.00000000000E+00 0. -1.
         -5    1    5    5    0  502 -0.27361346605E+02 -0.87606402489E+02  0.20880937756E+03  0.22813805295E+03  0.47000000000E+01 0.  1.
         13    1    6    6    0    0 -0.47705113155E+01  0.27466995099E+02  0.22905057012E+02  0.36080953905E+02  0.00000000000E+00 0. -1.
        -14    1    6    6    0    0  0.23765544555E+02 -0.97829735754E+01  0.22309903080E+03  0.22457445363E+03  0.00000000000E+00 0.  1.
<mgrwt>
<rscale>  2 0.18496212E+03</rscale>
<asrwt>0</asrwt>
<pdfrwt beam="1">  1       21 0.75715906E-01 0.18697118E+03</pdfrwt>
<pdfrwt beam="2">  1       21 0.68685193E-01 0.18697118E+03</pdfrwt>
<totfact> 0.30217025E+03</totfact>
</mgrwt>
</event>
<event>
12    1  0.1050690E-001  0.1838374E+03  0.7546771E-02  0.1164341E+00
         21   -1    0    0  503  502  0.00000000000E+00  0.00000000000E+00  0.17402748710E+03  0.17402748710E+03  0.00000000000E+00 0.  1.
         21   -1    0    0  501  503 -0.00000000000E+00 -0.00000000000E+00 -0.19856336936E+03  0.19856336936E+03  0.00000000000E+00 0.  1.
          6    2    1    2  501    0  0.52806852335E+01  0.60513458680E+02 -0.42562147391E+02  0.18787181509E+03  0.17261088667E+03 0.  0.
         24    2    3    3    0    0 -0.47913106917E+02  0.80112337775E+02 -0.14719616988E+02  0.12453942144E+03  0.81115645169E+02 0.  0.
         -6    2    1    2    0  502 -0.52806852335E+01 -0.60513458680E+02  0.18026265130E+02  0.18471904137E+03  0.17351199869E+03 0.  0.
        -24    2    5    5    0    0 -0.50706662478E+01  0.35162522443E+02  0.98713168941E+01  0.88580960189E+02  0.80542094399E+02 0.  0.
          5    1    3    3  501    0  0.53193792150E+02 -0.19598879096E+02 -0.27842530403E+02  0.63332393642E+02  0.47000000000E+01 0. -1.
        -11    1    4    4    0    0  0.10428667520E+02 -0.10527203695E+01  0.16737607949E+02  0.19748742904E+02  0.00000000000E+00 0.  1.
         12    1    4    4    0    0 -0.58341774437E+02  0.81165058145E+02 -0.31457224937E+02  0.10479067854E+03  0.00000000000E+00 0. -1.
         -5    1    5    5    0  502 -0.21001898569E+00 -0.95675981123E+02  0.81549482360E+01  0.96138081177E+02  0.47000000000E+01 0.  1.
         13    1    6    6    0    0 -0.16944110520E+02  0.50565381623E+02  0.29504115264E+02  0.60946316685E+02  0.00000000000E+00 0. -1.
        -14    1    6    6    0    0  0.11873444272E+02 -0.15402859180E+02 -0.19632798369E+02  0.27634643504E+02  0.00000000000E+00 0.  1.
<mgrwt>
<rscale>  2 0.18362443E+03</rscale>
<asrwt>0</asrwt>
<pdfrwt beam="1">  1       21 0.26773460E-01 0.18383737E+03</pdfrwt>
<pdfrwt beam="2">  1       21 0.30548211E-01 0.18383737E+03</pdfrwt>
<totfact> 0.13703095E+05</totfact>
</mgrwt>
</event>
<event>
12    1  0.1050690E-001  0.2044169E+03  0.7546771E-02  0.1146549E+00
         21   -1    0    0  501  502  0.00000000000E+00  0.00000000000E+00  0.19210406912E+04  0.19210406912E+04  0.00000000000E+00 0.  1.
         21   -1    0    0  502  503 -0.00000000000E+00 -0.00000000000E+00 -0.25219602398E+02  0.25219602398E+02  0.00000000000E+00 0. -1.
         -6    2    1    2    0  503  0.10325457870E+03  0.16975182199E+02  0.13168167139E+04  0.13322307175E+04  0.17286631171E+03 0.  0.
        -24    2    3    3    0    0  0.37446892373E+02  0.15790159176E+02  0.30985906363E+03  0.32311335298E+03  0.82085325665E+02 0.  0.
          6    2    1    2  501    0 -0.10325457870E+03 -0.16975182199E+02  0.57900437490E+03  0.61402957613E+03  0.17560350046E+03 0.  0.
         24    2    5    5    0    0 -0.62455896390E+01  0.41993428584E+02  0.33486726638E+03  0.34474708733E+03  0.70085752449E+02 0.  0.
          5    1    5    5  501    0 -0.97008989063E+02 -0.58968610784E+02  0.24413710853E+03  0.26928248880E+03  0.47000000000E+01 0. -1.
        -13    1    6    6    0    0  0.72725849681E+01 -0.41281389261E+01  0.22092361879E+03  0.22108183408E+03  0.00000000000E+00 0.  1.
         14    1    6    6    0    0 -0.13518174607E+02  0.46121567510E+02  0.11394364759E+03  0.12366525324E+03  0.00000000000E+00 0. -1.
         -5    1    3    3    0  503  0.65807686329E+02  0.11850230238E+01  0.10069576503E+04  0.10091173645E+04  0.47000000000E+01 0.  1.
         11    1    4    4    0    0 -0.21925560765E+02  0.10563539648E+02  0.15993825613E+03  0.16177936939E+03  0.00000000000E+00 0. -1.
        -12    1    4    4    0    0  0.59372453138E+02  0.52266195280E+01  0.14992080750E+03  0.16133398360E+03  0.00000000000E+00 0.  1.
<mgrwt>
<rscale>  2 0.20382769E+03</rscale>
<asrwt>0</asrwt>
<pdfrwt beam="1">  1       21 0.29554461E+00 0.20441686E+03</pdfrwt>
<pdfrwt beam="2">  1       21 0.38799403E-02 0.20441686E+03</pdfrwt>
<totfact> 0.14758376E+04</totfact>
</mgrwt>
</event>
<event>
12    1  0.1050690E-001  0.1971738E+03  0.7546771E-02  0.1152215E+00
         21   -1    0    0  501  502  0.00000000000E+00  0.00000000000E+00  0.27947849176E+03  0.27947849176E+03  0.00000000000E+00 0.  1.
         21   -1    0    0  502  503 -0.00000000000E+00 -0.00000000000E+00 -0.14435539411E+03  0.14435539411E+03  0.00000000000E+00 0.  1.
         -6    2    1    2    0  503 -0.33781079030E+02 -0.88267761186E+02  0.10889029372E+03  0.22524346268E+03  0.17304670598E+03 0.  0.
        -24    2    3    3    0    0 -0.68791754871E+02 -0.65981893551E+02  0.19600983377E+02  0.12666822106E+03  0.81084670948E+02 0.  0.
          6    2    1    2  501    0  0.33781079030E+02  0.88267761186E+02  0.26232803937E+02  0.19859042319E+03  0.17267784228E+03 0.  0.
         24    2    5    5    0    0  0.52904234573E+02  0.12008930461E+03  0.11556150212E+01  0.15354310243E+03  0.79711039004E+02 0.  0.
          5    1    5    5  501    0 -0.19123155543E+02 -0.31821543423E+02  0.25077188915E+02  0.45047320760E+02  0.47000000000E+01 0. -1.
        -13    1    6    6    0    0  0.26646667630E+02 -0.26253109848E+01 -0.73399100411E+01  0.27763491008E+02  0.00000000000E+00 0.  1.
         14    1    6    6    0    0  0.26257566943E+02  0.12271461559E+03  0.84955250623E+01  0.12577961142E+03  0.00000000000E+00 0. -1.
         -5    1    3    3    0  503  0.35010675841E+02 -0.22285867635E+02  0.89289310341E+02  0.98575241619E+02  0.47000000000E+01 0.  1.
         11    1    4    4    0    0  0.16740884890E+02 -0.24376156037E+02  0.92891345894E+01  0.30995842164E+02  0.00000000000E+00 0. -1.
        -12    1    4    4    0    0 -0.85532639760E+02 -0.41605737514E+02  0.10311848788E+02  0.95672378897E+02  0.00000000000E+00 0.  1.
<mgrwt>
<rscale>  2 0.19709287E+03</rscale>
<asrwt>0</asrwt>
<pdfrwt beam="1">  1       21 0.42996691E-01 0.19717384E+03</pdfrwt>
<pdfrwt beam="2">  1       21 0.22208522E-01 0.19717384E+03</pdfrwt>
<totfact> 0.98459261E+04</totfact>
</mgrwt>
</event>
<event>
12    1  0.1050690E-001  0.1808507E+03  0.7546771E-02  0.1167126E+00
         21   -1    0    0  503  502  0.00000000000E+00  0.00000000000E+00  0.37564505647E+03  0.37564505647E+03  0.00000000000E+00 0. -1.
         21   -1    0    0  501  503 -0.00000000000E+00 -0.00000000000E+00 -0.87995700381E+02  0.87995700381E+02  0.00000000000E+00 0. -1.
          6    2    1    2  501    0  0.49213644675E+02  0.11966688448E+02  0.17128855002E+03  0.24909184754E+03  0.17361392999E+03 0.  0.
         24    2    3    3    0    0  0.10080861586E+02  0.65535106506E+02  0.72837926316E+02  0.13028290245E+03  0.85274833360E+02 0.  0.
         -6    2    1    2    0  502 -0.49213644675E+02 -0.11966688448E+02  0.11636080606E+03  0.21454890931E+03  0.17299194445E+03 0.  0.
        -24    2    5    5    0    0 -0.18364374342E+02 -0.21645218191E+02 -0.95541671617E+01  0.84464237268E+02  0.78975689624E+02 0.  0.
          5    1    3    3  501    0  0.39132783089E+02 -0.53568418059E+02  0.98450623706E+02  0.11880894509E+03  0.47000000000E+01 0. -1.
        -13    1    4    4    0    0  0.18804432199E+02 -0.12629326206E+02 -0.62503853456E+00  0.22660477133E+02  0.00000000000E+00 0.  1.
         14    1    4    4    0    0 -0.87235706126E+01  0.78164432713E+02  0.73462964850E+02  0.10762242531E+03  0.00000000000E+00 0. -1.
         -5    1    5    5    0  502 -0.30849270333E+02  0.96785297433E+01  0.12591497322E+03  0.13008467204E+03  0.47000000000E+01 0.  1.
         11    1    6    6    0    0  0.12574350921E+02  0.19343332454E+02 -0.21722184096E+02  0.31688043383E+02  0.00000000000E+00 0. -1.
        -12    1    6    6    0    0 -0.30938725263E+02 -0.40988550645E+02  0.12168016935E+02  0.52776193885E+02  0.00000000000E+00 0.  1.
<mgrwt>
<rscale>  2 0.18070128E+03</rscale>
<asrwt>0</asrwt>
<pdfrwt beam="1">  1       21 0.57791546E-01 0.18085072E+03</pdfrwt>
<pdfrwt beam="2">  1       21 0.13537800E-01 0.18085072E+03</pdfrwt>
<totfact> 0.13320100E+05</totfact>
</mgrwt>
</event>
<event>
12    1  0.1050690E-001  0.2477813E+03  0.7546771E-02  0.1115175E+00
         21   -1    0    0  503  502  0.00000000000E+00  0.00000000000E+00  0.15079625507E+03  0.15079625507E+03  0.00000000000E+00 0. -1.
         21   -1    0    0  501  503 -0.00000000000E+00 -0.00000000000E+00 -0.40463401263E+03  0.40463401263E+03  0.00000000000E+00 0. -1.
          6    2    1    2  501    0  0.12690556348E+03  0.11866331784E+03 -0.14653658972E+03  0.28541342543E+03  0.17263211244E+03 0.  0.
         24    2    3    3    0    0  0.13107497396E+03  0.71145080275E+02 -0.16270330431E+03  0.23482864960E+03  0.80186396583E+02 0.  0.
         -6    2    1    2    0  502 -0.12690556348E+03 -0.11866331784E+03 -0.10730116784E+03  0.27001684227E+03  0.17666224681E+03 0.  0.
        -24    2    5    5    0    0 -0.10315142123E+03 -0.13368758413E+02 -0.96052892645E+02  0.16138987870E+03  0.77469964237E+02 0.  0.
          5    1    3    3  501    0 -0.41694104763E+01  0.47518237567E+02  0.16166714583E+02  0.50584775828E+02  0.47000000000E+01 0. -1.
        -11    1    4    4    0    0  0.90633757328E+02  0.72370479042E+01 -0.67486560482E+02  0.11323112945E+03  0.00000000000E+00 0.  1.
         12    1    4    4    0    0  0.40441216628E+02  0.63908032370E+02 -0.95216743824E+02  0.12159752016E+03  0.00000000000E+00 0. -1.
         -5    1    5    5    0  502 -0.23754142249E+02 -0.10529455943E+03 -0.11248275192E+02  0.10862696357E+03  0.47000000000E+01 0.  1.
         13    1    6    6    0    0 -0.24168438155E+02 -0.39250863705E+02 -0.27696800676E+02  0.53775984158E+02  0.00000000000E+00 0. -1.
        -14    1    6    6    0    0 -0.78982983075E+02  0.25882105292E+02 -0.68356091970E+02  0.10761389455E+03  0.00000000000E+00 0.  1.
<mgrwt>
<rscale>  2 0.24706388E+03</rscale>
<asrwt>0</asrwt>
<pdfrwt beam="1">  1       21 0.23199424E-01 0.24778126E+03</pdfrwt>
<pdfrwt beam="2">  1       21 0.62251386E-01 0.24778126E+03</pdfrwt>
<totfact> 0.40719044E+04</totfact>
</mgrwt>
</event>
<event>
12    1  0.1050690E-001  0.1794592E+03  0.7546771E-02  0.1168534E+00
         21   -1    0    0  503  502  0.00000000000E+00  0.00000000000E+00  0.40873774318E+03  0.40873774318E+03  0.00000000000E+00 0.  1.
         21   -1    0    0  501  503 -0.00000000000E+00 -0.00000000000E+00 -0.86736666434E+02  0.86736666434E+02  0.00000000000E+00 0.  1.
          6    2    1    2  501    0  0.65485741628E+01  0.43732117889E+02  0.83951053605E+02  0.19735797306E+03  0.17305203890E+03 0.  0.
         24    2    3    3    0    0  0.35243981394E+02  0.95737883868E+00  0.10975033516E+03  0.13955833962E+03  0.78665998320E+02 0.  0.
         -6    2    1    2    0  502 -0.65485741628E+01 -0.43732117889E+02  0.23805002314E+03  0.29811643655E+03  0.17392588729E+03 0.  0.
        -24    2    5    5    0    0 -0.33699254324E+01 -0.94151210352E+02  0.13887689151E+03  0.18671810295E+03  0.81859954595E+02 0.  0.
          5    1    3    3  501    0 -0.28695407231E+02  0.42774739051E+02 -0.25799281551E+02  0.57799633438E+02  0.47000000000E+01 0. -1.
        -11    1    4    4    0    0  0.70894278561E+01 -0.24793493669E+01 -0.12214548614E+02  0.14338840903E+02  0.00000000000E+00 0.  1.
         12    1    4    4    0    0  0.28154553538E+02  0.34367282056E+01  0.12196488377E+03  0.12521949872E+03  0.00000000000E+00 0. -1.
         -5    1    5    5    0  502 -0.31786487304E+01  0.50419092463E+02  0.99173131629E+02  0.11139833360E+03  0.47000000000E+01 0.  1.
         11    1    6    6    0    0  0.25050187272E+02 -0.53124456777E+02  0.11954806582E+03  0.13319707141E+03  0.00000000000E+00 0. -1.
        -12    1    6    6    0    0 -0.28420112704E+02 -0.41026753575E+02  0.19328825690E+02  0.53521031545E+02  0.00000000000E+00 0.  1.
<mgrwt>
<rscale>  2 0.17924711E+03</rscale>
<asrwt>0</asrwt>
<pdfrwt beam="1">  1       21 0.62882729E-01 0.17945918E+03</pdfrwt>
<pdfrwt beam="2">  1       21 0.13344103E-01 0.17945918E+03</pdfrwt>
<totfact> 0.11411707E+05</totfact>
</mgrwt>
</event>
<event>
12    1  0.1050690E-001  0.1805179E+03  0.7546771E-02  0.1168050E+00
         21   -1    0    0  503  502  0.00000000000E+00  0.00000000000E+00  0.51972071564E+02  0.51972071564E+02  0.00000000000E+00 0. -1.
         21   -1    0    0  501  503 -0.00000000000E+00 -0.00000000000E+00 -0.11649599794E+04  0.11649599794E+04  0.00000000000E+00 0. -1.
          6    2    1    2  501    0 -0.26644738581E+02 -0.41662689862E+02 -0.97150200442E+03  0.98757431546E+03  0.17041467702E+03 0.  0.
         24    2    3    3    0    0 -0.77307275101E+02 -0.23450132756E+02 -0.48223151722E+03  0.49532835104E+03  0.79225094724E+02 0.  0.
         -6    2    1    2    0  502  0.26644738581E+02  0.41662689862E+02 -0.14148590346E+03  0.22935773555E+03  0.17361160145E+03 0.  0.
        -24    2    5    5    0    0  0.38057371550E+02  0.27090685914E+02 -0.17121745541E+03  0.19402154063E+03  0.78400716822E+02 0.  0.
          5    1    3    3  501    0  0.50662536521E+02 -0.18212557106E+02 -0.48927048720E+03  0.49224596442E+03  0.47000000000E+01 0. -1.
        -11    1    4    4    0    0 -0.31535313536E+02  0.21870407647E+02 -0.89964415069E+02  0.97807907191E+02  0.00000000000E+00 0.  1.
         12    1    4    4    0    0 -0.45771961566E+02 -0.45320540403E+02 -0.39226710215E+03  0.39752044385E+03  0.00000000000E+00 0. -1.
         -5    1    5    5    0  502 -0.11412632969E+02  0.14572003948E+02  0.29731551948E+02  0.35336194922E+02  0.47000000000E+01 0.  1.
         13    1    6    6    0    0  0.40980961030E+01 -0.16816798226E+02 -0.39080033763E+01  0.17744621288E+02  0.00000000000E+00 0. -1.
        -14    1    6    6    0    0  0.33959275447E+02  0.43907484141E+02 -0.16730945203E+03  0.17627691934E+03  0.00000000000E+00 0.  1.
<mgrwt>
<rscale>  2 0.17974483E+03</rscale>
<asrwt>0</asrwt>
<pdfrwt beam="1">  1       21 0.79957035E-02 0.18051789E+03</pdfrwt>
<pdfrwt beam="2">  1       21 0.17922461E+00 0.18051789E+03</pdfrwt>
<totfact> 0.22316327E+04</totfact>
</mgrwt>
</event>
<event>
12    1  0.1050690E-001  0.1909495E+03  0.7546771E-02  0.1157829E+00
         21   -1    0    0  503  502  0.00000000000E+00  0.00000000000E+00  0.56972416720E+03  0.56972416720E+03  0.00000000000E+00 0. -1.
         21   -1    0    0  501  503 -0.00000000000E+00 -0.00000000000E+00 -0.71942571550E+02  0.71942571550E+02  0.00000000000E+00 0.  1.
          6    2    1    2  501    0 -0.63752577292E+02  0.52395770379E+02  0.14066011478E+03  0.23716444176E+03  0.17219755132E+03 0.  0.
         24    2    3    3    0    0 -0.54300329324E+02  0.85778125452E+02  0.52151898836E+02  0.14198292616E+03  0.84456605415E+02 0.  0.
         -6    2    1    2    0  502  0.63752577292E+02 -0.52395770379E+02  0.35712148088E+03  0.40450229700E+03  0.17110420307E+03 0.  0.
        -24    2    5    5    0    0  0.65779305566E+01  0.20037138674E+02  0.24875912739E+03  0.26209458584E+03  0.79797947164E+02 0.  0.
          5    1    3    3  501    0 -0.94522479684E+01 -0.33382355074E+02  0.88508215940E+02  0.95181515594E+02  0.47000000000E+01 0. -1.
        -13    1    4    4    0    0 -0.56728230093E+02  0.25059929430E+02  0.52439202670E+02  0.81215528867E+02  0.00000000000E+00 0.  1.
         14    1    4    4    0    0  0.24279007688E+01  0.60718196023E+02 -0.28730383397E+00  0.60767397294E+02  0.00000000000E+00 0. -1.
         -5    1    5    5    0  502  0.57174646736E+02 -0.72432909053E+02  0.10836235349E+03  0.14240771116E+03  0.47000000000E+01 0.  1.
         13    1    6    6    0    0  0.42777063200E+02  0.99829361389E+01  0.15453159303E+03  0.16065350726E+03  0.00000000000E+00 0. -1.
        -14    1    6    6    0    0 -0.36199132644E+02  0.10054202535E+02  0.94227534361E+02  0.10144107859E+03  0.00000000000E+00 0.  1.
<mgrwt>
<rscale>  2 0.19070266E+03</rscale>
<asrwt>0</asrwt>
<pdfrwt beam="1">  1       21 0.87649869E-01 0.19094948E+03</pdfrwt>
<pdfrwt beam="2">  1       21 0.11068088E-01 0.19094948E+03</pdfrwt>
<totfact> 0.75757407E+04</totfact>
</mgrwt>
</event>
<event>
12    1  0.1050690E-001  0.2719107E+03  0.7546771E-02  0.1101477E+00
         21   -1    0    0  503  502  0.00000000000E+00  0.00000000000E+00  0.82322758455E+02  0.82322758455E+02  0.00000000000E+00 0. -1.
         21   -1    0    0  501  503 -0.00000000000E+00 -0.00000000000E+00 -0.97302299174E+03  0.97302299174E+03  0.00000000000E+00 0.  1.
          6    2    1    2  501    0 -0.32216073120E+02  0.19529917897E+03 -0.62455263236E+03  0.68117650822E+03  0.18642907523E+03 0.  0.
         24    2    3    3    0    0 -0.89980417675E+02  0.16576454204E+03 -0.51427772042E+03  0.55314658795E+03  0.76910435464E+02 0.  0.
         -6    2    1    2    0  502  0.32216073120E+02 -0.19529917897E+03 -0.26614760092E+03  0.37416924197E+03  0.17317168211E+03 0.  0.
        -24    2    5    5    0    0  0.18800456101E+02 -0.20723258205E+03 -0.27428057493E+03  0.35390547739E+03  0.81978368661E+02 0.  0.
          5    1    3    3  501    0  0.57764344554E+02  0.29534636938E+02 -0.11027491194E+03  0.12802992027E+03  0.47000000000E+01 0. -1.
        -11    1    4    4    0    0 -0.31830282576E+02  0.11530088545E+02 -0.14251101095E+03  0.14647695407E+03  0.00000000000E+00 0.  1.
         12    1    4    4    0    0 -0.58150135098E+02  0.15423445349E+03 -0.37176670947E+03  0.40666963388E+03  0.00000000000E+00 0. -1.
         -5    1    5    5    0  502  0.13415617019E+02  0.11933403073E+02  0.81329740079E+01  0.20263764584E+02  0.47000000000E+01 0.  1.
         13    1    6    6    0    0 -0.10851368296E+02 -0.16732558225E+03 -0.17214089971E+03  0.24030832699E+03  0.00000000000E+00 0. -1.
        -14    1    6    6    0    0  0.29651824397E+02 -0.39906999793E+02 -0.10213967522E+03  0.11359715039E+03  0.00000000000E+00 0.  1.
<mgrwt>
<rscale>  2 0.26965469E+03</rscale>
<asrwt>0</asrwt>
<pdfrwt beam="1">  1       21 0.12665039E-01 0.27191073E+03</pdfrwt>
<pdfrwt beam="2">  1       21 0.14969586E+00 0.27191073E+03</pdfrwt>
<totfact> 0.15252581E+04</totfact>
</mgrwt>
</event>
<event>
12    1  0.1050690E-001  0.1764534E+03  0.7546771E-02  0.1171442E+00
         21   -1    0    0  503  502  0.00000000000E+00  0.00000000000E+00  0.29900728872E+03  0.29900728872E+03  0.00000000000E+00 0. -1.
         21   -1    0    0  501  503 -0.00000000000E+00 -0.00000000000E+00 -0.71815121870E+03  0.71815121870E+03  0.00000000000E+00 0. -1.
          6    2    1    2  501    0 -0.31654986483E+02 -0.21139419522E+01 -0.68003901072E+03  0.70255880228E+03  0.17357795838E+03 0.  0.
         24    2    3    3    0    0  0.28451888134E+02 -0.95727182416E+01 -0.18503636800E+03  0.20384227356E+03  0.80075390308E+02 0.  0.
         -6    2    1    2    0  502  0.31654986483E+02  0.21139419522E+01  0.26089508075E+03  0.31459970514E+03  0.17291681352E+03 0.  0.
        -24    2    5    5    0    0 -0.49191663182E+02  0.89708099403E+01  0.14559109178E+03  0.17353129169E+03  0.80100237424E+02 0.  0.
          5    1    3    3  501    0 -0.60106874617E+02  0.74587762894E+01 -0.49500264272E+03  0.49871652872E+03  0.47000000000E+01 0. -1.
        -13    1    4    4    0    0  0.25382058123E+02 -0.39699995319E+02 -0.15148902554E+03  0.15864823782E+03  0.00000000000E+00 0.  1.
         14    1    4    4    0    0  0.30698300119E+01  0.30127277077E+02 -0.33547342457E+02  0.45194035739E+02  0.00000000000E+00 0. -1.
         -5    1    5    5    0  502  0.80846649664E+02 -0.68568679882E+01  0.11530398897E+03  0.14106841345E+03  0.47000000000E+01 0.  1.
         11    1    6    6    0    0  0.26645640183E+01 -0.28988798620E+02  0.57973393944E+02  0.64871910348E+02  0.00000000000E+00 0. -1.
        -12    1    6    6    0    0 -0.51856227200E+02  0.37959608560E+02  0.87617697832E+02  0.10865938135E+03  0.00000000000E+00 0.  1.
<mgrwt>
<rscale>  2 0.17629063E+03</rscale>
<asrwt>0</asrwt>
<pdfrwt beam="1">  1       21 0.46001121E-01 0.17645343E+03</pdfrwt>
<pdfrwt beam="2">  1       21 0.11048480E+00 0.17645343E+03</pdfrwt>
<totfact> 0.29692427E+03</totfact>
</mgrwt>
</event>
<event>
12    1  0.1050690E-001  0.2312072E+03  0.7546771E-02  0.1126263E+00
         21   -1    0    0  503  502  0.00000000000E+00  0.00000000000E+00  0.70154451559E+03  0.70154451559E+03  0.00000000000E+00 0. -1.
         21   -1    0    0  501  503 -0.00000000000E+00 -0.00000000000E+00 -0.75404775012E+02  0.75404775012E+02  0.00000000000E+00 0. -1.
          6    2    1    2  501    0 -0.36487291830E+02  0.14920600330E+03  0.32419648233E+03  0.39665135210E+03  0.16921933129E+03 0.  0.
         24    2    3    3    0    0 -0.42966660040E+01  0.68008237361E+02  0.79227342590E+02  0.13653352686E+03  0.87868370047E+02 0.  0.
         -6    2    1    2    0  502  0.36487291830E+02 -0.14920600330E+03  0.30194325825E+03  0.38029793850E+03  0.17280925016E+03 0.  0.
        -24    2    5    5    0    0  0.83608440652E+02 -0.13475508043E+03  0.25906836144E+03  0.31480306378E+03  0.82675570869E+02 0.  0.
          5    1    3    3  501    0 -0.32190625826E+02  0.81197765936E+02  0.24496913973E+03  0.26011782524E+03  0.47000000000E+01 0. -1.
        -13    1    4    4    0    0  0.86981973985E+01 -0.10812870418E+02 -0.97476016621E+01  0.16958553677E+02  0.00000000000E+00 0.  1.
         14    1    4    4    0    0 -0.12994863403E+02  0.78821107780E+02  0.88974944253E+02  0.11957497318E+03  0.00000000000E+00 0. -1.
         -5    1    5    5    0  502 -0.47121148822E+02 -0.14450922868E+02  0.42874896815E+02  0.65494874723E+02  0.47000000000E+01 0.  1.
         13    1    6    6    0    0  0.36446207666E+02 -0.40446874979E+02  0.28919005599E+02  0.61648881853E+02  0.00000000000E+00 0. -1.
        -14    1    6    6    0    0  0.47162232986E+02 -0.94308205450E+02  0.23014935584E+03  0.25315418193E+03  0.00000000000E+00 0.  1.
<mgrwt>
<rscale>  2 0.23053665E+03</rscale>
<asrwt>0</asrwt>
<pdfrwt beam="1">  1       21 0.10792992E+00 0.23120725E+03</pdfrwt>
<pdfrwt beam="2">  1       21 0.11600735E-01 0.23120725E+03</pdfrwt>
<totfact> 0.41791055E+04</totfact>
</mgrwt>
</event>
<event>
12    1  0.1050690E-001  0.2280649E+03  0.7546771E-02  0.1128075E+00
         21   -1    0    0  503  502  0.00000000000E+00  0.00000000000E+00  0.30288899748E+03  0.30288899748E+03  0.00000000000E+00 0.  1.
         21   -1    0    0  501  503 -0.00000000000E+00 -0.00000000000E+00 -0.54584119519E+03  0.54584119519E+03  0.00000000000E+00 0.  1.
          6    2    1    2  501    0 -0.11364390842E+03  0.94925772859E+02 -0.47296252795E+03  0.52507824225E+03  0.17345825825E+03 0.  0.
         24    2    3    3    0    0  0.36563911479E+01  0.12657009069E+02 -0.21862608470E+03  0.23312511905E+03  0.79852283298E+02 0.  0.
         -6    2    1    2    0  502  0.11364390842E+03 -0.94925772859E+02  0.23001033024E+03  0.32365195043E+03  0.17297396545E+03 0.  0.
        -24    2    5    5    0    0  0.10005732431E+03 -0.65007824598E+02  0.71210967669E+02  0.16142061421E+03  0.82146986369E+02 0.  0.
          5    1    3    3  501    0 -0.11730029957E+03  0.82268763790E+02 -0.25433644326E+03  0.29195312319E+03  0.47000000000E+01 0. -1.
        -13    1    4    4    0    0  0.25764039949E+02  0.36567182106E+02 -0.15915944834E+03  0.16532596456E+03  0.00000000000E+00 0.  1.
         14    1    4    4    0    0 -0.22107648802E+02 -0.23910173037E+02 -0.59466636361E+02  0.67799154495E+02  0.00000000000E+00 0. -1.
         -5    1    5    5    0  502  0.13586584109E+02 -0.29917948261E+02  0.15879936258E+03  0.16223133622E+03  0.47000000000E+01 0.  1.
         13    1    6    6    0    0  0.48844293570E+01  0.40743715290E+01 -0.14543206726E+02  0.15873342917E+02  0.00000000000E+00 0. -1.
        -14    1    6    6    0    0  0.95172894951E+02 -0.69082196127E+02  0.85754174394E+02  0.14554727129E+03  0.00000000000E+00 0.  1.
<mgrwt>
<rscale>  2 0.22797283E+03</rscale>
<asrwt>0</asrwt>
<pdfrwt beam="1">  1       21 0.46598308E-01 0.22806492E+03</pdfrwt>
<pdfrwt beam="2">  1       21 0.83975568E-01 0.22806492E+03</pdfrwt>
<totfact> 0.52930675E+03</totfact>
</mgrwt>
</event>
<event>
12    1  0.1050690E-001  0.2793672E+03  0.7546771E-02  0.1096138E+00
         21   -1    0    0  503  502  0.00000000000E+00  0.00000000000E+00  0.11395454997E+03  0.11395454997E+03  0.00000000000E+00 0. -1.
         21   -1    0    0  501  503 -0.00000000000E+00 -0.00000000000E+00 -0.82148684934E+03  0.82148684934E+03  0.00000000000E+00 0. -1.
          6    2    1    2  501    0  0.14595759874E+03 -0.16410370470E+03 -0.54617173060E+03  0.61347338099E+03  0.17266262871E+03 0.  0.
         24    2    3    3    0    0  0.96404836695E+02 -0.46211936701E+02 -0.38518906152E+03  0.40782451780E+03  0.80751399818E+02 0.  0.
         -6    2    1    2    0  502 -0.14595759874E+03  0.16410370470E+03 -0.16136056876E+03  0.32196801832E+03  0.17144248347E+03 0.  0.
        -24    2    5    5    0    0 -0.17518045941E+03  0.14857162506E+03 -0.12867612859E+03  0.27521779144E+03  0.80159625264E+02 0.  0.
          5    1    3    3  501    0  0.49552762048E+02 -0.11789176800E+03 -0.16098266908E+03  0.20564886319E+03  0.47000000000E+01 0. -1.
        -11    1    4    4    0    0  0.68902629307E+02 -0.20329108276E+02 -0.11924922434E+03  0.13921645906E+03  0.00000000000E+00 0.  1.
         12    1    4    4    0    0  0.27502207388E+02 -0.25882828425E+02 -0.26593983718E+03  0.26860805874E+03  0.00000000000E+00 0. -1.
         -5    1    5    5    0  502  0.29222860670E+02  0.15532079645E+02 -0.32684440174E+02  0.46750226880E+02  0.47000000000E+01 0.  1.
         13    1    6    6    0    0 -0.21058216878E+02  0.51550072762E+02 -0.68398865231E+01  0.56103855014E+02  0.00000000000E+00 0. -1.
        -14    1    6    6    0    0 -0.15412224253E+03  0.97021552294E+02 -0.12183624207E+03  0.21911393642E+03  0.00000000000E+00 0.  1.
<mgrwt>
<rscale>  2 0.27917889E+03</rscale>
<asrwt>0</asrwt>
<pdfrwt beam="1">  1       21 0.17531470E-01 0.27936720E+03</pdfrwt>
<pdfrwt beam="2">  1       21 0.12638259E+00 0.27936720E+03</pdfrwt>
<totfact> 0.12992576E+04</totfact>
</mgrwt>
</event>
<event>
12    1  0.1050690E-001  0.1808554E+03  0.7546771E-02  0.1167169E+00
         21   -1    0    0  503  502  0.00000000000E+00  0.00000000000E+00  0.13627688281E+03  0.13627688281E+03  0.00000000000E+00 0. -1.
         21   -1    0    0  501  503 -0.00000000000E+00 -0.00000000000E+00 -0.25391090666E+03  0.25391090666E+03  0.00000000000E+00 0. -1.
          6    2    1    2  501    0 -0.37855924607E+02 -0.32042799579E+02 -0.10627219058E+03  0.20976762225E+03  0.17392200788E+03 0.  0.
         24    2    3    3    0    0  0.44342012279E+02 -0.15563970672E+01 -0.63508906566E+02  0.11211154192E+03  0.81036906372E+02 0.  0.
         -6    2    1    2    0  502  0.37855924607E+02  0.32042799579E+02 -0.11361833274E+02  0.18042016722E+03  0.17309689036E+03 0.  0.
        -24    2    5    5    0    0  0.49804402775E+02  0.70575143451E+02 -0.45258523513E+02  0.12751852959E+03  0.82166367993E+02 0.  0.
          5    1    3    3  501    0 -0.82197936885E+02 -0.30486402512E+02 -0.42763284011E+02  0.97656080331E+02  0.47000000000E+01 0. -1.
        -11    1    4    4    0    0  0.17325836290E+02 -0.27663185763E+02  0.59164019636E+01  0.33172884438E+02  0.00000000000E+00 0.  1.
         12    1    4    4    0    0  0.27016175988E+02  0.26106788696E+02 -0.69425308530E+02  0.78938657485E+02  0.00000000000E+00 0. -1.
         -5    1    5    5    0  502 -0.11948478168E+02 -0.38532343872E+02  0.33896690239E+02  0.52901637630E+02  0.47000000000E+01 0.  1.
         13    1    6    6    0    0  0.72790198948E+02  0.49733516147E+02 -0.34747498003E+02  0.94758769033E+02  0.00000000000E+00 0. -1.
        -14    1    6    6    0    0 -0.22985796173E+02  0.20841627304E+02 -0.10511025510E+02  0.32759760556E+02  0.00000000000E+00 0.  1.
<mgrwt>
<rscale>  2 0.18065674E+03</rscale>
<asrwt>0</asrwt>
<pdfrwt beam="1">  1       21 0.20965675E-01 0.18085540E+03</pdfrwt>
<pdfrwt beam="2">  1       21 0.39063216E-01 0.18085540E+03</pdfrwt>
<totfact> 0.13405654E+05</totfact>
</mgrwt>
</event>
<event>
12    1  0.1050690E-001  0.1801413E+03  0.7546771E-02  0.1168700E+00
         21   -1    0    0  501  502  0.00000000000E+00  0.00000000000E+00  0.17303544237E+03  0.17303544237E+03  0.00000000000E+00 0. -1.
         21   -1    0    0  502  503 -0.00000000000E+00 -0.00000000000E+00 -0.48924164685E+03  0.48924164685E+03  0.00000000000E+00 0. -1.
         -6    2    1    2    0  503  0.24968249470E+02  0.14608874563E+02 -0.41930972737E+03  0.45471694416E+03  0.17352238802E+03 0.  0.
        -24    2    3    3    0    0 -0.15899159467E+02  0.54407215006E+02 -0.14779188912E+03  0.17723166616E+03  0.79722598343E+02 0.  0.
          6    2    1    2  501    0 -0.24968249470E+02 -0.14608874563E+02  0.10310352288E+03  0.20756014507E+03  0.17780338774E+03 0.  0.
         24    2    5    5    0    0 -0.17065396161E+02  0.50765973140E+02  0.10337103080E+03  0.14154130410E+03  0.80498192415E+02 0.  0.
          5    1    5    5  501    0 -0.79028533086E+01 -0.65374847704E+02 -0.26750791383E+00  0.66018840971E+02  0.47000000000E+01 0. -1.
        -13    1    6    6    0    0 -0.47907298126E+02  0.38220314810E+02  0.52261536403E+02  0.80542969061E+02  0.00000000000E+00 0.  1.
         14    1    6    6    0    0  0.30841901965E+02  0.12545658330E+02  0.51109494394E+02  0.60998335034E+02  0.00000000000E+00 0. -1.
         -5    1    3    3    0  503  0.40867408936E+02 -0.39798340442E+02 -0.27151783825E+03  0.27748527799E+03  0.47000000000E+01 0.  1.
         11    1    4    4    0    0  0.24295226777E+02  0.34715575362E+02 -0.11255583054E+03  0.12026738629E+03  0.00000000000E+00 0. -1.
        -12    1    4    4    0    0 -0.40194386244E+02  0.19691639644E+02 -0.35236058574E+02  0.56964279871E+02  0.00000000000E+00 0.  1.
<mgrwt>
<rscale>  2 0.17907583E+03</rscale>
<asrwt>0</asrwt>
<pdfrwt beam="1">  1       21 0.26620838E-01 0.18014127E+03</pdfrwt>
<pdfrwt beam="2">  1       21 0.75267945E-01 0.18014127E+03</pdfrwt>
<totfact> 0.21340777E+04</totfact>
</mgrwt>
</event>
<event>
12    1  0.1050690E-001  0.1942034E+03  0.7546771E-02  0.1154754E+00
         21   -1    0    0  503  502  0.00000000000E+00  0.00000000000E+00  0.34216130161E+03  0.34216130161E+03  0.00000000000E+00 0.  1.
         21   -1    0    0  501  503 -0.00000000000E+00 -0.00000000000E+00 -0.11788612618E+03  0.11788612618E+03  0.00000000000E+00 0.  1.
          6    2    1    2  501    0 -0.45895352426E+02 -0.75528135181E+02  0.53163238923E+02  0.20121493571E+03  0.17277221362E+03 0.  0.
         24    2    3    3    0    0 -0.87267855528E+02 -0.92359891617E+02  0.38079442000E+02  0.15383769468E+03  0.77909975062E+02 0.  0.
         -6    2    1    2    0  502  0.45895352426E+02  0.75528135181E+02  0.17111193650E+03  0.25883249209E+03  0.17292796641E+03 0.  0.
        -24    2    5    5    0    0 -0.10565154944E+02  0.10064315273E+03  0.99210614563E+02  0.16390913829E+03  0.82357712956E+02 0.  0.
          5    1    3    3  501    0  0.41372503101E+02  0.16831756436E+02  0.15083796923E+02  0.47377241026E+02  0.47000000000E+01 0. -1.
        -11    1    4    4    0    0 -0.24947662595E+02 -0.24697486923E+02 -0.24298216173E+02  0.42693735354E+02  0.00000000000E+00 0.  1.
         12    1    4    4    0    0 -0.62320192932E+02 -0.67662404695E+02  0.62377658173E+02  0.11114395933E+03  0.00000000000E+00 0. -1.
         -5    1    5    5    0  502  0.56460507371E+02 -0.25115017547E+02  0.71901321941E+02  0.94923353796E+02  0.47000000000E+01 0.  1.
         11    1    6    6    0    0 -0.71384151505E+00 -0.10504474487E+02  0.31907396019E+02  0.33599635037E+02  0.00000000000E+00 0. -1.
        -12    1    6    6    0    0 -0.98513134293E+01  0.11114762722E+03  0.67303218544E+02  0.13030950325E+03  0.00000000000E+00 0.  1.
<mgrwt>
<rscale>  2 0.19416873E+03</rscale>
<asrwt>0</asrwt>
<pdfrwt beam="1">  1       21 0.52640200E-01 0.19420341E+03</pdfrwt>
<pdfrwt beam="2">  1       21 0.18136327E-01 0.19420341E+03</pdfrwt>
<totfact> 0.94670486E+04</totfact>
</mgrwt>
</event>
<event>
12    1  0.1050690E-001  0.2520230E+03  0.7546771E-02  0.1112195E+00
         21   -1    0    0  501  502  0.00000000000E+00  0.00000000000E+00  0.82682403858E+03  0.82682403858E+03  0.00000000000E+00 0.  1.
         21   -1    0    0  502  503 -0.00000000000E+00 -0.00000000000E+00 -0.10113197700E+03  0.10113197700E+03  0.00000000000E+00 0. -1.
         -6    2    1    2    0  503 -0.17457069746E+03  0.47174932254E+02  0.59237468485E+03  0.64375722807E+03  0.17554258400E+03 0.  0.
        -24    2    3    3    0    0 -0.17880041207E+03  0.99090498700E+01  0.37188365169E+03  0.42004978032E+03  0.77952491472E+02 0.  0.
          6    2    1    2  501    0  0.17457069746E+03 -0.47174932254E+02  0.13331737674E+03  0.28419878751E+03  0.17405466164E+03 0.  0.
         24    2    5    5    0    0  0.18372899615E+03 -0.12839999617E+02  0.14369430231E+03  0.24688213415E+03  0.79884454225E+02 0.  0.
          5    1    5    5  501    0 -0.91582986885E+01 -0.34334932637E+02 -0.10376925575E+02  0.37316653366E+02  0.47000000000E+01 0. -1.
        -11    1    6    6    0    0  0.16237337560E+02 -0.24912400156E+02  0.38809095854E+02  0.48891970032E+02  0.00000000000E+00 0.  1.
         12    1    6    6    0    0  0.16749165859E+03  0.12072400539E+02  0.10488520646E+03  0.19799016411E+03  0.00000000000E+00 0. -1.
         -5    1    3    3    0  503  0.42297146078E+01  0.37265882384E+02  0.22049103316E+03  0.22370744775E+03  0.47000000000E+01 0.  1.
         11    1    4    4    0    0 -0.71022228894E+02  0.21520750038E+02  0.82177199574E+02  0.11072665356E+03  0.00000000000E+00 0. -1.
        -12    1    4    4    0    0 -0.10777818318E+03 -0.11611700168E+02  0.28970645211E+03  0.30932312676E+03  0.00000000000E+00 0.  1.
<mgrwt>
<rscale>  2 0.25176409E+03</rscale>
<asrwt>0</asrwt>
<pdfrwt beam="1">  1       21 0.12720369E+00 0.25202302E+03</pdfrwt>
<pdfrwt beam="2">  1       21 0.15558766E-01 0.25202302E+03</pdfrwt>
<totfact> 0.16163417E+04</totfact>
</mgrwt>
</event>
<event>
12    1  0.1050690E-001  0.2294624E+03  0.7546771E-02  0.1127109E+00
         21   -1    0    0  503  502  0.00000000000E+00  0.00000000000E+00  0.13059709193E+03  0.13059709193E+03  0.00000000000E+00 0. -1.
         21   -1    0    0  501  503 -0.00000000000E+00 -0.00000000000E+00 -0.45403119867E+03  0.45403119867E+03  0.00000000000E+00 0. -1.
          6    2    1    2  501    0  0.13098970761E+03 -0.75901091326E+02 -0.26057225956E+03  0.34720440834E+03  0.17243468200E+03 0.  0.
         24    2    3    3    0    0  0.19167560501E+02  0.11349565963E+02 -0.82789699425E+02  0.11972781950E+03  0.83572773132E+02 0.  0.
         -6    2    1    2    0  502 -0.13098970761E+03  0.75901091326E+02 -0.62861847178E+02  0.23742388226E+03  0.17175333730E+03 0.  0.
        -24    2    5    5    0    0 -0.67457272348E+02  0.66779351856E+02  0.27107518430E+02  0.12680673527E+03  0.79593750549E+02 0.  0.
          5    1    3    3  501    0  0.11182214711E+03 -0.87250657289E+02 -0.17778256014E+03  0.22747658884E+03  0.47000000000E+01 0. -1.
        -11    1    4    4    0    0  0.46440688299E+02  0.27551895747E+02 -0.44264170303E+02  0.69822355028E+02  0.00000000000E+00 0.  1.
         12    1    4    4    0    0 -0.27273127799E+02 -0.16202329784E+02 -0.38525529122E+02  0.49905464475E+02  0.00000000000E+00 0. -1.
         -5    1    5    5    0  502 -0.63532435263E+02  0.91217394696E+01 -0.89969365608E+02  0.11061714699E+03  0.47000000000E+01 0.  1.
         11    1    6    6    0    0 -0.75274648773E+02  0.26952446180E+02  0.38914151127E+01  0.80049048805E+02  0.00000000000E+00 0. -1.
        -12    1    6    6    0    0  0.78173764256E+01  0.39826905676E+02  0.23216103317E+02  0.46757686461E+02  0.00000000000E+00 0.  1.
<mgrwt>
<rscale>  2 0.22933441E+03</rscale>
<asrwt>0</asrwt>
<pdfrwt beam="1">  1       21 0.20091860E-01 0.22946241E+03</pdfrwt>
<pdfrwt beam="2">  1       21 0.69850954E-01 0.22946241E+03</pdfrwt>
<totfact> 0.41842457E+04</totfact>
</mgrwt>
</event>
<event>
12    1  0.1050690E-001  0.2751750E+03  0.7546771E-02  0.1098359E+00
         21   -1    0    0  501  502  0.00000000000E+00  0.00000000000E+00  0.76500250262E+03  0.76500250262E+03  0.00000000000E+00 0. -1.
         21   -1    0    0  502  503 -0.00000000000E+00 -0.00000000000E+00 -0.12693581467E+03  0.12693581467E+03  0.00000000000E+00 0.  1.
         -6    2    1    2    0  503  0.61819139494E+02 -0.20474089887E+03  0.10971454852E+03  0.29624076357E+03  0.17314983733E+03 0.  0.
        -24    2    3    3    0    0  0.33276133217E+02 -0.21852765340E+03  0.11822152957E+03  0.26308602734E+03  0.79851683665E+02 0.  0.
          6    2    1    2  501    0 -0.61819139494E+02  0.20474089887E+03  0.52835213943E+03  0.59569755373E+03  0.17308711854E+03 0.  0.
         24    2    5    5    0    0  0.53357491241E+01  0.93258445632E+02  0.13234678249E+03  0.17882773092E+03  0.75750106339E+02 0.  0.
          5    1    5    5  501    0 -0.67154888618E+02  0.11148245323E+03  0.39600535694E+03  0.41686982281E+03  0.47000000000E+01 0. -1.
        -13    1    6    6    0    0 -0.25246677947E+02  0.95816739650E+01  0.13203821555E+02  0.30059010746E+02  0.00000000000E+00 0.  1.
         14    1    6    6    0    0  0.30582427071E+02  0.83676771667E+02  0.11914296093E+03  0.14876872017E+03  0.00000000000E+00 0. -1.
         -5    1    3    3    0  503  0.28543006276E+02  0.13786754536E+02 -0.85069810481E+01  0.33154736230E+02  0.47000000000E+01 0.  1.
         11    1    4    4    0    0 -0.20900485741E+02 -0.86009024942E+02  0.24036583245E+02  0.91717719170E+02  0.00000000000E+00 0. -1.
        -12    1    4    4    0    0  0.54176618958E+02 -0.13251862846E+03  0.94184946323E+02  0.17136830817E+03  0.00000000000E+00 0.  1.
<mgrwt>
<rscale>  2 0.27516518E+03</rscale>
<asrwt>0</asrwt>
<pdfrwt beam="1">  1       21 0.11769269E+00 0.27517505E+03</pdfrwt>
<pdfrwt beam="2">  1       21 0.19528587E-01 0.27517505E+03</pdfrwt>
<totfact> 0.12732043E+04</totfact>
</mgrwt>
</event>
<event>
12    1  0.1050690E-001  0.2272144E+03  0.7546771E-02  0.1128688E+00
         21   -1    0    0  503  502  0.00000000000E+00  0.00000000000E+00  0.14848624097E+03  0.14848624097E+03  0.00000000000E+00 0. -1.
         21   -1    0    0  501  503 -0.00000000000E+00 -0.00000000000E+00 -0.37937445150E+03  0.37937445150E+03  0.00000000000E+00 0. -1.
          6    2    1    2  501    0 -0.12497939821E+03 -0.76003373624E+02 -0.38325668943E+02  0.23002395687E+03  0.17333724660E+03 0.  0.
         24    2    3    3    0    0 -0.16458787287E+02 -0.77344430683E+02 -0.43839708614E+02  0.12125348265E+03  0.80792539057E+02 0.  0.
         -6    2    1    2    0  502  0.12497939821E+03  0.76003373624E+02 -0.19256254158E+03  0.29783673560E+03  0.17386784025E+03 0.  0.
        -24    2    5    5    0    0  0.15460264695E+03  0.63190816655E+02 -0.18843700119E+03  0.26496108252E+03  0.82467048458E+02 0.  0.
          5    1    3    3  501    0 -0.10852061092E+03  0.13410570591E+01  0.55140396701E+01  0.10877047422E+03  0.47000000000E+01 0. -1.
        -11    1    4    4    0    0 -0.12178843306E+02  0.15693252546E+02 -0.90941728071E+01  0.21847342603E+02  0.00000000000E+00 0.  1.
         12    1    4    4    0    0 -0.42799439804E+01 -0.93037683228E+02 -0.34745535806E+02  0.99406140049E+02  0.00000000000E+00 0. -1.
         -5    1    5    5    0  502 -0.29623248735E+02  0.12812556969E+02 -0.41255403892E+01  0.32875653076E+02  0.47000000000E+01 0.  1.
         13    1    6    6    0    0  0.77815612384E+02 -0.11063502766E+02 -0.67493932729E+02  0.10360068330E+03  0.00000000000E+00 0. -1.
        -14    1    6    6    0    0  0.76787034561E+02  0.74254319421E+02 -0.12094306846E+03  0.16136039923E+03  0.00000000000E+00 0.  1.
<mgrwt>
<rscale>  2 0.22711290E+03</rscale>
<asrwt>0</asrwt>
<pdfrwt beam="1">  1       21 0.22844038E-01 0.22721441E+03</pdfrwt>
<pdfrwt beam="2">  1       21 0.58365299E-01 0.22721441E+03</pdfrwt>
<totfact> 0.48625256E+04</totfact>
</mgrwt>
</event>
<event>
12    1  0.1050690E-001  0.1949416E+03  0.7546771E-02  0.1154708E+00
         21   -1    0    0  501  502  0.00000000000E+00  0.00000000000E+00  0.42259379359E+03  0.42259379359E+03  0.00000000000E+00 0.  1.
         21   -1    0    0  502  503 -0.00000000000E+00 -0.00000000000E+00 -0.12221845169E+03  0.12221845169E+03  0.00000000000E+00 0.  1.
         -6    2    1    2    0  503 -0.89654129512E+02 -0.12837316326E+02  0.81483203496E+01  0.19511177771E+03  0.17262546466E+03 0.  0.
        -24    2    3    3    0    0 -0.12868482308E+02  0.80913939205E+01 -0.40566263708E+02  0.10168133712E+03  0.91991326085E+02 0.  0.
          6    2    1    2  501    0  0.89654129512E+02  0.12837316326E+02  0.29222702155E+03  0.34970046757E+03  0.16938454850E+03 0.  0.
         24    2    5    5    0    0  0.48530003759E+02 -0.43393091197E+02  0.24313237488E+03  0.26434575604E+03  0.80791122000E+02 0.  0.
          5    1    5    5  501    0  0.41124125752E+02  0.56230407523E+02  0.49094646668E+02  0.85354711531E+02  0.47000000000E+01 0. -1.
        -13    1    6    6    0    0  0.68133069871E+01 -0.44407931068E+02  0.19735052265E+03  0.20239988707E+03  0.00000000000E+00 0.  1.
         14    1    6    6    0    0  0.41716696772E+02  0.10148398702E+01  0.45781852226E+02  0.61945868973E+02  0.00000000000E+00 0. -1.
         -5    1    3    3    0  503 -0.76785647204E+02 -0.20928710246E+02  0.48714584058E+02  0.93430440591E+02  0.47000000000E+01 0.  1.
         11    1    4    4    0    0 -0.71352538430E+01 -0.41988578444E+02 -0.22228765298E+02  0.48042383099E+02  0.00000000000E+00 0. -1.
        -12    1    4    4    0    0 -0.57332284648E+01  0.50079972364E+02 -0.18337498411E+02  0.53638954022E+02  0.00000000000E+00 0.  1.
<mgrwt>
<rscale>  2 0.19422158E+03</rscale>
<asrwt>0</asrwt>
<pdfrwt beam="1">  1       21 0.65014429E-01 0.19494156E+03</pdfrwt>
<pdfrwt beam="2">  1       21 0.18802839E-01 0.19494156E+03</pdfrwt>
<totfact> 0.56352413E+04</totfact>
</mgrwt>
</event>
<event>
12    1  0.1050690E-001  0.1810540E+03  0.7546771E-02  0.1166939E+00
         21   -1    0    0  503  502  0.00000000000E+00  0.00000000000E+00  0.15543356858E+03  0.15543356858E+03  0.00000000000E+00 0.  1.
         21   -1    0    0  501  503 -0.00000000000E+00 -0.00000000000E+00 -0.33046813625E+03  0.33046813625E+03  0.00000000000E+00 0.  1.
          6    2    1    2  501    0 -0.16723308064E+01 -0.54292277309E+02 -0.23400732364E+03  0.29548543784E+03  0.17205164455E+03 0.  0.
         24    2    3    3    0    0  0.22253959764E+02 -0.87032006891E+02 -0.10918257249E+03  0.16415506902E+03  0.83404098228E+02 0.  0.
         -6    2    1    2    0  502  0.16723308064E+01  0.54292277309E+02  0.58972755967E+02  0.19041626699E+03  0.17271398531E+03 0.  0.
        -24    2    5    5    0    0  0.54184690772E+02  0.94197940426E+01 -0.26822886554E+01  0.97709620893E+02  0.80717173568E+02 0.  0.
          5    1    3    3  501    0 -0.23926290571E+02  0.32739729582E+02 -0.12482475115E+03  0.13133036882E+03  0.47000000000E+01 0. -1.
        -13    1    4    4    0    0  0.17697704786E+02 -0.29202376895E+02 -0.99688420611E+02  0.10537442182E+03  0.00000000000E+00 0.  1.
         14    1    4    4    0    0  0.45562549782E+01 -0.57829629995E+02 -0.94941518770E+01  0.58780647195E+02  0.00000000000E+00 0. -1.
         -5    1    5    5    0  502 -0.52512359965E+02  0.44872483266E+02  0.61655044623E+02  0.92706646100E+02  0.47000000000E+01 0.  1.
         13    1    6    6    0    0  0.13231099011E+01 -0.28685588664E+02  0.11647730192E+02  0.30988437125E+02  0.00000000000E+00 0. -1.
        -14    1    6    6    0    0  0.52861580871E+02  0.38105382706E+02 -0.14330018848E+02  0.66721183769E+02  0.00000000000E+00 0.  1.
<mgrwt>
<rscale>  2 0.18089591E+03</rscale>
<asrwt>0</asrwt>
<pdfrwt beam="1">  1       21 0.23912857E-01 0.18105405E+03</pdfrwt>
<pdfrwt beam="2">  1       21 0.50841251E-01 0.18105405E+03</pdfrwt>
<totfact> 0.60979035E+04</totfact>
</mgrwt>
</event>
<event>
12    1  0.1050690E-001  0.1819146E+03  0.7546771E-02  0.1166123E+00
         21   -1    0    0  503  502  0.00000000000E+00  0.00000000000E+00  0.10205329202E+04  0.10205329202E+04  0.00000000000E+00 0.  1.
         21   -1    0    0  501  503 -0.00000000000E+00 -0.00000000000E+00 -0.24317332985E+03  0.24317332985E+03  0.00000000000E+00 0.  1.
          6    2    1    2  501    0 -0.16534817371E+02 -0.53755523560E+02 -0.19980013745E+03  0.26975753531E+03  0.17229618810E+03 0.  0.
         24    2    3    3    0    0 -0.38118539522E+02 -0.95766287212E+02 -0.16697422400E+03  0.21204798742E+03  0.80372586522E+02 0.  0.
         -6    2    1    2    0  502  0.16534817371E+02  0.53755523560E+02  0.97715972776E+03  0.99394871471E+03  0.17300247805E+03 0.  0.
        -24    2    5    5    0    0  0.19992125795E+02 -0.22230741937E+02  0.28794690601E+03  0.30053522393E+03  0.80710031353E+02 0.  0.
          5    1    3    3  501    0  0.21583722150E+02  0.42010763651E+02 -0.32825913448E+02  0.57709547894E+02  0.47000000000E+01 0. -1.
        -11    1    4    4    0    0 -0.23207675337E+02 -0.65595894168E+02 -0.16413528721E+03  0.17827453558E+03  0.00000000000E+00 0.  1.
         12    1    4    4    0    0 -0.14910864185E+02 -0.30170393044E+02 -0.28389367909E+01  0.33773451841E+02  0.00000000000E+00 0. -1.
         -5    1    5    5    0  502 -0.34573084235E+01  0.75986265497E+02  0.68921282176E+03  0.69341349078E+03  0.47000000000E+01 0.  1.
         11    1    6    6    0    0  0.49514886125E+02 -0.10194760535E+02  0.13171170989E+03  0.14108023112E+03  0.00000000000E+00 0. -1.
        -12    1    6    6    0    0 -0.29522760330E+02 -0.12035981401E+02  0.15623519612E+03  0.15945499281E+03  0.00000000000E+00 0.  1.
<mgrwt>
<rscale>  2 0.18174646E+03</rscale>
<asrwt>0</asrwt>
<pdfrwt beam="1">  1       21 0.15700506E+00 0.18191458E+03</pdfrwt>
<pdfrwt beam="2">  1       21 0.37411282E-01 0.18191458E+03</pdfrwt>
<totfact> 0.18445118E+03</totfact>
</mgrwt>
</event>
<event>
12    1  0.1050690E-001  0.2196817E+03  0.7546771E-02  0.1134633E+00
         21   -1    0    0  501  502  0.00000000000E+00  0.00000000000E+00  0.79829444291E+03  0.79829444291E+03  0.00000000000E+00 0.  1.
         21   -1    0    0  502  503 -0.00000000000E+00 -0.00000000000E+00 -0.71745640441E+02  0.71745640441E+02  0.00000000000E+00 0.  1.
         -6    2    1    2    0  503  0.85173243043E+02 -0.10411665490E+03  0.18696338425E+03  0.28847069313E+03  0.17368153208E+03 0.  0.
        -24    2    3    3    0    0 -0.11621386900E+02 -0.89640393572E+01  0.56866006334E+02  0.10039985974E+03  0.81430820484E+02 0.  0.
          6    2    1    2  501    0 -0.85173243043E+02  0.10411665490E+03  0.53958541822E+03  0.58156939022E+03  0.17022271568E+03 0.  0.
         24    2    5    5    0    0 -0.73757003051E+02  0.12700331912E+03  0.52197368980E+03  0.55016249746E+03  0.93017752078E+02 0.  0.
          5    1    5    5  501    0 -0.11416239992E+02 -0.22886664227E+02  0.17611728412E+02  0.31406892757E+02  0.47000000000E+01 0. -1.
        -11    1    6    6    0    0 -0.37091391579E+02  0.75464843155E+02  0.14254924215E+03  0.16550226681E+03  0.00000000000E+00 0.  1.
         12    1    6    6    0    0 -0.36665611472E+02  0.51538475969E+02  0.37942444766E+03  0.38466023066E+03  0.00000000000E+00 0. -1.
         -5    1    3    3    0  503  0.96794629944E+02 -0.95152615540E+02  0.13009737792E+03  0.18807083339E+03  0.47000000000E+01 0.  1.
         11    1    4    4    0    0 -0.39832991633E+02 -0.27839076292E+02  0.36908622088E+02  0.61023993443E+02  0.00000000000E+00 0. -1.
        -12    1    4    4    0    0  0.28211604732E+02  0.18875036935E+02  0.19957384246E+02  0.39375866299E+02  0.00000000000E+00 0.  1.
<mgrwt>
<rscale>  2 0.21899742E+03</rscale>
<asrwt>0</asrwt>
<pdfrwt beam="1">  1       21 0.12281452E+00 0.21968166E+03</pdfrwt>
<pdfrwt beam="2">  1       21 0.11037791E-01 0.21968166E+03</pdfrwt>
<totfact> 0.33443234E+04</totfact>
</mgrwt>
</event>
<event>
12    1  0.1050690E-001  0.2208665E+03  0.7546771E-02  0.1133498E+00
         21   -1    0    0  501  502  0.00000000000E+00  0.00000000000E+00  0.12994894579E+04  0.12994894579E+04  0.00000000000E+00 0. -1.
         21   -1    0    0  502  503 -0.00000000000E+00 -0.00000000000E+00 -0.55262417036E+02  0.55262417036E+02  0.00000000000E+00 0.  1.
         -6    2    1    2    0  503  0.13088165454E+03  0.35451511772E+02  0.23463302949E+03  0.32128099013E+03  0.17257461838E+03 0.  0.
        -24    2    3    3    0    0  0.92671098064E+02  0.27952263707E+02  0.24956928511E+03  0.27931115477E+03  0.79753568260E+02 0.  0.
          6    2    1    2  501    0 -0.13088165454E+03 -0.35451511772E+02  0.10095940114E+04  0.10334708848E+04  0.17434214856E+03 0.  0.
         24    2    5    5    0    0 -0.15957578877E+03 -0.20578542199E+02  0.72508467387E+03  0.74709314180E+03  0.80699872893E+02 0.  0.
          5    1    5    5  501    0  0.28694134233E+02 -0.14872969573E+02  0.28450933749E+03  0.28637774299E+03  0.47000000000E+01 0. -1.
        -13    1    6    6    0    0 -0.80684047254E+02  0.56125797116E+01  0.20448741880E+03  0.21990116184E+03  0.00000000000E+00 0.  1.
         14    1    6    6    0    0 -0.78891741517E+02 -0.26191121911E+02  0.52059725507E+03  0.52719197996E+03  0.00000000000E+00 0. -1.
         -5    1    3    3    0  503  0.38210556474E+02  0.74992480654E+01 -0.14936255617E+02  0.41969835351E+02  0.47000000000E+01 0.  1.
         13    1    4    4    0    0  0.30568071273E+01 -0.22217665144E+02  0.37810919842E+02  0.43961737609E+02  0.00000000000E+00 0. -1.
        -14    1    4    4    0    0  0.89614290937E+02  0.50169928850E+02  0.21175836526E+03  0.23534941717E+03  0.00000000000E+00 0.  1.
<mgrwt>
<rscale>  2 0.22051752E+03</rscale>
<asrwt>0</asrwt>
<pdfrwt beam="1">  1       21 0.19992143E+00 0.22086648E+03</pdfrwt>
<pdfrwt beam="2">  1       21 0.85019113E-02 0.22086648E+03</pdfrwt>
<totfact> 0.14195639E+04</totfact>
</mgrwt>
</event>
<event>
12    1  0.1050690E-001  0.2867046E+03  0.7546771E-02  0.1092164E+00
         21   -1    0    0  503  502  0.00000000000E+00  0.00000000000E+00  0.12250891404E+03  0.12250891404E+03  0.00000000000E+00 0.  1.
         21   -1    0    0  501  503 -0.00000000000E+00 -0.00000000000E+00 -0.70989750365E+03  0.70989750365E+03  0.00000000000E+00 0. -1.
          6    2    1    2  501    0  0.15010638137E+02  0.22690952869E+03 -0.19413908474E+03  0.34573949908E+03  0.17358733691E+03 0.  0.
         24    2    3    3    0    0 -0.20066841058E+02  0.86021259193E+02 -0.24659131793E+02  0.12252328444E+03  0.81249906497E+02 0.  0.
         -6    2    1    2    0  502 -0.15010638137E+02 -0.22690952869E+03 -0.39324950487E+03  0.48666691860E+03  0.17460315895E+03 0.  0.
        -24    2    5    5    0    0 -0.53345819161E+02 -0.12345753810E+03 -0.31325199895E+03  0.35030859867E+03  0.80633487600E+02 0.  0.
          5    1    3    3  501    0  0.35077479195E+02  0.14088826950E+03 -0.16947995295E+03  0.22321621464E+03  0.47000000000E+01 0. -1.
        -13    1    4    4    0    0 -0.12475328627E+02  0.93180817086E+02  0.18540371169E+01  0.94030505426E+02  0.00000000000E+00 0.  1.
         14    1    4    4    0    0 -0.75915124310E+01 -0.71595578929E+01 -0.26513168910E+02  0.28492779012E+02  0.00000000000E+00 0. -1.
         -5    1    5    5    0  502  0.38335181023E+02 -0.10345199059E+03 -0.79997505921E+02  0.13635831993E+03  0.47000000000E+01 0.  1.
         11    1    6    6    0    0 -0.38382396643E+02 -0.94200053659E+01 -0.10835972301E+03  0.11534198908E+03  0.00000000000E+00 0. -1.
        -12    1    6    6    0    0 -0.14963422517E+02 -0.11403753274E+03 -0.20489227594E+03  0.23496660959E+03  0.00000000000E+00 0.  1.
<mgrwt>
<rscale>  2 0.28655008E+03</rscale>
<asrwt>0</asrwt>
<pdfrwt beam="1">  1       21 0.18847526E-01 0.28670458E+03</pdfrwt>
<pdfrwt beam="2">  1       21 0.10921500E+00 0.28670458E+03</pdfrwt>
<totfact> 0.16268981E+04</totfact>
</mgrwt>
</event>
<event>
12    1  0.1050690E-001  0.1867762E+03  0.7546771E-02  0.1162205E+00
         21   -1    0    0  501  502  0.00000000000E+00  0.00000000000E+00  0.14688332716E+03  0.14688332716E+03  0.00000000000E+00 0.  1.
         21   -1    0    0  502  503 -0.00000000000E+00 -0.00000000000E+00 -0.49194561538E+03  0.49194561538E+03  0.00000000000E+00 0.  1.
         -6    2    1    2    0  503 -0.58913813833E+02 -0.17998915181E+02 -0.40344199327E+03  0.44314163444E+03  0.17266808575E+03 0.  0.
        -24    2    3    3    0    0 -0.96927632597E+02 -0.32683440821E+02 -0.20989379065E+03  0.24529401013E+03  0.75170305221E+02 0.  0.
          6    2    1    2  501    0  0.58913813833E+02  0.17998915181E+02  0.58379705053E+02  0.19568730810E+03  0.17632508097E+03 0.  0.
         24    2    5    5    0    0 -0.14244701897E+02 -0.37430768223E+02  0.46749859720E+02  0.10304843112E+03  0.82640521717E+02 0.  0.
          5    1    5    5  501    0  0.73158515730E+02  0.55429683404E+02  0.11629845334E+02  0.92638876982E+02  0.47000000000E+01 0. -1.
        -13    1    6    6    0    0 -0.35932678274E+02  0.10653180171E+02  0.29017220417E+02  0.47398804799E+02  0.00000000000E+00 0.  1.
         14    1    6    6    0    0  0.21687976377E+02 -0.48083948394E+02  0.17732639303E+02  0.55649626316E+02  0.00000000000E+00 0. -1.
         -5    1    3    3    0  503  0.38013818764E+02  0.14684525640E+02 -0.19354820261E+03  0.19784762431E+03  0.47000000000E+01 0.  1.
         11    1    4    4    0    0 -0.45918690372E+02 -0.29597824807E+02 -0.39534789288E+02  0.67435576092E+02  0.00000000000E+00 0. -1.
        -12    1    4    4    0    0 -0.51008942225E+02 -0.30856160143E+01 -0.17035900136E+03  0.17785843404E+03  0.00000000000E+00 0.  1.
<mgrwt>
<rscale>  2 0.18590802E+03</rscale>
<asrwt>0</asrwt>
<pdfrwt beam="1">  1       21 0.22597435E-01 0.18677616E+03</pdfrwt>
<pdfrwt beam="2">  1       21 0.75683940E-01 0.18677616E+03</pdfrwt>
<totfact> 0.28683909E+04</totfact>
</mgrwt>
</event>
<event>
12    1  0.1050690E-001  0.4739723E+03  0.7546771E-02  0.1020828E+00
         21   -1    0    0  503  502  0.00000000000E+00  0.00000000000E+00  0.13719928952E+04  0.13719928952E+04  0.00000000000E+00 0.  1.
         21   -1    0    0  501  503 -0.00000000000E+00 -0.00000000000E+00 -0.19174890268E+03  0.19174890268E+03  0.00000000000E+00 0. -1.
          6    2    1    2  501    0 -0.44092710149E+03 -0.12150491836E+02  0.29052014907E+03  0.55564544264E+03  0.17255595510E+03 0.  0.
         24    2    3    3    0    0 -0.33808887128E+03 -0.71713256736E+02  0.21738276428E+03  0.41602240870E+03  0.79827954124E+02 0.  0.
         -6    2    1    2    0  502  0.44092710149E+03  0.12150491836E+02  0.88972384345E+03  0.10080963552E+04  0.17345143573E+03 0.  0.
        -24    2    5    5    0    0  0.28426126444E+03  0.22168469979E+02  0.42507487093E+03  0.51762178704E+03  0.77121728441E+02 0.  0.
          5    1    3    3  501    0 -0.10283823020E+03  0.59562764900E+02  0.73137384785E+02  0.13962303394E+03  0.47000000000E+01 0. -1.
        -13    1    4    4    0    0 -0.59117226691E+02 -0.24992104586E+02  0.92578452018E+01  0.64847201027E+02  0.00000000000E+00 0.  1.
         14    1    4    4    0    0 -0.27897164459E+03 -0.46721152150E+02  0.20812491908E+03  0.35117520768E+03  0.00000000000E+00 0. -1.
         -5    1    5    5    0  502  0.15666583704E+03 -0.10017978142E+02  0.46464897253E+03  0.49047456820E+03  0.47000000000E+01 0.  1.
         11    1    6    6    0    0  0.11625193330E+03  0.47196403002E+02  0.17638839860E+03  0.21645987991E+03  0.00000000000E+00 0. -1.
        -12    1    6    6    0    0  0.16800933114E+03 -0.25027933024E+02  0.24868647233E+03  0.30116190712E+03  0.00000000000E+00 0.  1.
<mgrwt>
<rscale>  2 0.47389054E+03</rscale>
<asrwt>0</asrwt>
<pdfrwt beam="1">  1       21 0.21107582E+00 0.47397230E+03</pdfrwt>
<pdfrwt beam="2">  1       21 0.29499832E-01 0.47397230E+03</pdfrwt>
<totfact> 0.10359839E+03</totfact>
</mgrwt>
</event>
<event>
12    1  0.1050690E-001  0.3566646E+03  0.7546771E-02  0.1060105E+00
         21   -1    0    0  503  502  0.00000000000E+00  0.00000000000E+00  0.35623152080E+03  0.35623152080E+03  0.00000000000E+00 0. -1.
         21   -1    0    0  501  503 -0.00000000000E+00 -0.00000000000E+00 -0.36933488627E+03  0.36933488627E+03  0.00000000000E+00 0. -1.
          6    2    1    2  501    0 -0.28130687230E+03 -0.12928655424E+03  0.64489350776E+02  0.36055923468E+03  0.17319213561E+03 0.  0.
         24    2    3    3    0    0 -0.12085466682E+03 -0.11613593540E+03  0.74105505129E+02  0.19921361359E+03  0.78109102967E+02 0.  0.
         -6    2    1    2    0  502  0.28130687230E+03  0.12928655424E+03 -0.77592716245E+02  0.36500717239E+03  0.17709047624E+03 0.  0.
        -24    2    5    5    0    0  0.11890935153E+03  0.94751891638E+02  0.18197602296E+02  0.17326914070E+03  0.81078280309E+02 0.  0.
          5    1    3    3  501    0 -0.16045220548E+03 -0.13150618844E+02 -0.96161543530E+01  0.16134562109E+03  0.47000000000E+01 0. -1.
        -11    1    4    4    0    0  0.74856105325E+01 -0.54535841603E+01 -0.67287917753E+01  0.11447820054E+02  0.00000000000E+00 0.  1.
         12    1    4    4    0    0 -0.12834027735E+03 -0.11068235124E+03  0.80834296905E+02  0.18776579353E+03  0.00000000000E+00 0. -1.
         -5    1    5    5    0  502  0.16239752077E+03  0.34534662602E+02 -0.95790318541E+02  0.19173803169E+03  0.47000000000E+01 0.  1.
         13    1    6    6    0    0  0.71671476035E+02  0.42320570153E+02  0.48647873585E+02  0.96407710996E+02  0.00000000000E+00 0. -1.
        -14    1    6    6    0    0  0.47237875497E+02  0.52431321486E+02 -0.30450271289E+02  0.76861429701E+02  0.00000000000E+00 0.  1.
<mgrwt>
<rscale>  2 0.35618372E+03</rscale>
<asrwt>0</asrwt>
<pdfrwt beam="1">  1       21 0.54804850E-01 0.35666456E+03</pdfrwt>
<pdfrwt beam="2">  1       21 0.56820751E-01 0.35666456E+03</pdfrwt>
<totfact> 0.83952376E+03</totfact>
</mgrwt>
</event>
<event>
12    1  0.1050690E-001  0.2463631E+03  0.7546771E-02  0.1115919E+00
         21   -1    0    0  501  502  0.00000000000E+00  0.00000000000E+00  0.82033951676E+02  0.82033951676E+02  0.00000000000E+00 0.  1.
         21   -1    0    0  502  503 -0.00000000000E+00 -0.00000000000E+00 -0.10301314189E+04  0.10301314189E+04  0.00000000000E+00 0.  1.
         -6    2    1    2    0  503  0.16552810399E+03  0.53667758644E+02 -0.77324002991E+03  0.81153860328E+03  0.17439890834E+03 0.  0.
        -24    2    3    3    0    0  0.37791446986E+01  0.15207507636E+02 -0.28126366306E+03  0.29220754097E+03  0.77655963196E+02 0.  0.
          6    2    1    2  501    0 -0.16552810399E+03 -0.53667758644E+02 -0.17485743734E+03  0.30062676732E+03  0.17181835847E+03 0.  0.
         24    2    5    5    0    0 -0.18903899727E+03 -0.25653161749E+02 -0.13824361382E+03  0.24866291628E+03  0.79549493859E+02 0.  0.
          5    1    5    5  501    0  0.23510893281E+02 -0.28014596895E+02 -0.36613823521E+02  0.51963851040E+02  0.47000000000E+01 0. -1.
        -11    1    6    6    0    0 -0.31834698511E+02 -0.37134893818E+02 -0.36918039352E+02  0.61281236915E+02  0.00000000000E+00 0.  1.
         12    1    6    6    0    0 -0.15720429876E+03  0.11481732070E+02 -0.10132557447E+03  0.18738167937E+03  0.00000000000E+00 0. -1.
         -5    1    3    3    0  503  0.16174895930E+03  0.38460251008E+02 -0.49197636684E+03  0.51933106230E+03  0.47000000000E+01 0.  1.
         13    1    4    4    0    0 -0.17235715715E+02  0.66193927250E+01 -0.26137347760E+03  0.26202477182E+03  0.00000000000E+00 0. -1.
        -14    1    4    4    0    0  0.21014860414E+02  0.85881149113E+01 -0.19890185463E+02  0.30182769152E+02  0.00000000000E+00 0.  1.
<mgrwt>
<rscale>  2 0.24590681E+03</rscale>
<asrwt>0</asrwt>
<pdfrwt beam="1">  1       21 0.12620607E-01 0.24636307E+03</pdfrwt>
<pdfrwt beam="2">  1       21 0.15848177E+00 0.24636307E+03</pdfrwt>
<totfact> 0.13355711E+04</totfact>
</mgrwt>
</event>
<event>
12    1  0.1050690E-001  0.2148072E+03  0.7546771E-02  0.1137852E+00
         21   -1    0    0  503  502  0.00000000000E+00  0.00000000000E+00  0.90631560209E+03  0.90631560209E+03  0.00000000000E+00 0.  1.
         21   -1    0    0  501  503 -0.00000000000E+00 -0.00000000000E+00 -0.74381602008E+02  0.74381602008E+02  0.00000000000E+00 0. -1.
          6    2    1    2  501    0  0.52445190197E+02  0.11622256533E+03  0.14038786591E+03  0.25661426450E+03  0.17286973472E+03 0.  0.
         24    2    3    3    0    0  0.22330563258E+02  0.94427476578E+02  0.18013895262E+02  0.12863225271E+03  0.82501840142E+02 0.  0.
         -6    2    1    2    0  502 -0.52445190197E+02 -0.11622256533E+03  0.69154613418E+03  0.72408293961E+03  0.17263216694E+03 0.  0.
        -24    2    5    5    0    0 -0.94914680009E+02 -0.10312395301E+03  0.60895431487E+03  0.63017484716E+03  0.81557551646E+02 0.  0.
          5    1    3    3  501    0  0.30114626939E+02  0.21795088753E+02  0.12237397064E+03  0.12798201178E+03  0.47000000000E+01 0. -1.
        -13    1    4    4    0    0  0.32522658429E+02  0.37609884718E+00  0.80554673770E+01  0.33507541185E+02  0.00000000000E+00 0.  1.
         14    1    4    4    0    0 -0.10192095170E+02  0.94051377730E+02  0.99584278852E+01  0.95124711526E+02  0.00000000000E+00 0. -1.
         -5    1    5    5    0  502  0.42469489812E+02 -0.13098612321E+02  0.82591819310E+02  0.93908092444E+02  0.47000000000E+01 0.  1.
         11    1    6    6    0    0 -0.52117865162E+02 -0.23463415163E+02  0.11984851962E+03  0.13277978527E+03  0.00000000000E+00 0. -1.
        -12    1    6    6    0    0 -0.42796814847E+02 -0.79660537847E+02  0.48910579525E+03  0.49739506189E+03  0.00000000000E+00 0.  1.
<mgrwt>
<rscale>  2 0.21475939E+03</rscale>
<asrwt>0</asrwt>
<pdfrwt beam="1">  1       21 0.13943316E+00 0.21480719E+03</pdfrwt>
<pdfrwt beam="2">  1       21 0.11443324E-01 0.21480719E+03</pdfrwt>
<totfact> 0.22777268E+04</totfact>
</mgrwt>
</event>
<event>
12    1  0.1050690E-001  0.2657377E+03  0.7546771E-02  0.1103781E+00
         21   -1    0    0  501  502  0.00000000000E+00  0.00000000000E+00  0.91696680259E+03  0.91696680259E+03  0.00000000000E+00 0.  1.
         21   -1    0    0  502  503 -0.00000000000E+00 -0.00000000000E+00 -0.81217571765E+02  0.81217571765E+02  0.00000000000E+00 0.  1.
         -6    2    1    2    0  503 -0.19544555216E+03  0.50022128308E+02  0.30349387758E+03  0.40339191257E+03  0.17296047010E+03 0.  0.
        -24    2    3    3    0    0 -0.15244668554E+03 -0.24940035771E+02  0.16347495585E+03  0.23878444914E+03  0.80199467852E+02 0.  0.
          6    2    1    2  501    0  0.19544555216E+03 -0.50022128308E+02  0.53225535325E+03  0.59479246179E+03  0.17257211351E+03 0.  0.
         24    2    5    5    0    0  0.16622657423E+03 -0.11668426710E+02  0.50773165580E+03  0.54049460885E+03  0.81089837436E+02 0.  0.
          5    1    5    5  501    0  0.29218977926E+02 -0.38353701598E+02  0.24523697455E+02  0.54297852942E+02  0.47000000000E+01 0. -1.
        -11    1    6    6    0    0  0.58131676828E+02 -0.25441068650E+02  0.29186744728E+03  0.29868569869E+03  0.00000000000E+00 0.  1.
         12    1    6    6    0    0  0.10809489740E+03  0.13772641940E+02  0.21586420852E+03  0.24180891015E+03  0.00000000000E+00 0. -1.
         -5    1    3    3    0  503 -0.42998866612E+02  0.74962164079E+02  0.14001892173E+03  0.16460746343E+03  0.47000000000E+01 0.  1.
         13    1    4    4    0    0 -0.63722443273E+01 -0.22196229280E+02  0.57652361785E+01  0.23801597430E+02  0.00000000000E+00 0. -1.
        -14    1    4    4    0    0 -0.14607444122E+03 -0.27438064910E+01  0.15770971967E+03  0.21498285171E+03  0.00000000000E+00 0.  1.
<mgrwt>
<rscale>  2 0.26567448E+03</rscale>
<asrwt>0</asrwt>
<pdfrwt beam="1">  1       21 0.14107181E+00 0.26573766E+03</pdfrwt>
<pdfrwt beam="2">  1       21 0.12495012E-01 0.26573766E+03</pdfrwt>
<totfact> 0.18341771E+04</totfact>
</mgrwt>
</event>
<event>
12    1  0.1050690E-001  0.1909430E+03  0.7546771E-02  0.1157835E+00
         21   -1    0    0  501  502  0.00000000000E+00  0.00000000000E+00  0.23511274671E+03  0.23511274671E+03  0.00000000000E+00 0. -1.
         21   -1    0    0  502  503 -0.00000000000E+00 -0.00000000000E+00 -0.17768251770E+03  0.17768251770E+03  0.00000000000E+00 0. -1.
         -6    2    1    2    0  503 -0.64182547396E+02  0.47347111274E+02 -0.46137620751E+02  0.19643804106E+03  0.17348796959E+03 0.  0.
        -24    2    3    3    0    0 -0.67439913097E+02  0.89327302713E+02 -0.61980652354E+02  0.15120488337E+03  0.80584158489E+02 0.  0.
          6    2    1    2  501    0  0.64182547396E+02 -0.47347111274E+02  0.10356784976E+03  0.21635722336E+03  0.17240359700E+03 0.  0.
         24    2    5    5    0    0  0.48919491427E+02  0.22613810225E+01  0.12738677590E+03  0.15905631038E+03  0.81690199617E+02 0.  0.
          5    1    5    5  501    0  0.15263055968E+02 -0.49608492297E+02 -0.23818926137E+02  0.57300912975E+02  0.47000000000E+01 0. -1.
        -11    1    6    6    0    0  0.48592995813E+01  0.36429173549E+02  0.32803361822E+02  0.49262135812E+02  0.00000000000E+00 0.  1.
         12    1    6    6    0    0  0.44060191846E+02 -0.34167792527E+02  0.94583414076E+02  0.10979417457E+03  0.00000000000E+00 0. -1.
         -5    1    3    3    0  503  0.32573657017E+01 -0.41980191439E+02  0.15843031603E+02  0.45233157693E+02  0.47000000000E+01 0.  1.
         13    1    4    4    0    0 -0.18636560475E+02  0.34696522381E+01  0.16443823490E+02  0.25095003566E+02  0.00000000000E+00 0. -1.
        -14    1    4    4    0    0 -0.48803352622E+02  0.85857650475E+02 -0.78424475843E+02  0.12610987980E+03  0.00000000000E+00 0.  1.
<mgrwt>
<rscale>  2 0.19069633E+03</rscale>
<asrwt>0</asrwt>
<pdfrwt beam="1">  1       21 0.36171192E-01 0.19094299E+03</pdfrwt>
<pdfrwt beam="2">  1       21 0.27335772E-01 0.19094299E+03</pdfrwt>
<totfact> 0.94128460E+04</totfact>
</mgrwt>
</event>
<event>
12    1  0.1050690E-001  0.3421695E+03  0.7546771E-02  0.1065976E+00
         21   -1    0    0  501  502  0.00000000000E+00  0.00000000000E+00  0.68168120443E+03  0.68168120443E+03  0.00000000000E+00 0. -1.
         21   -1    0    0  502  503 -0.00000000000E+00 -0.00000000000E+00 -0.32996976175E+03  0.32996976175E+03  0.00000000000E+00 0.  1.
         -6    2    1    2    0  503  0.29443804767E+03  0.18738658535E+02 -0.17505935551E+03  0.38350495104E+03  0.17142160972E+03 0.  0.
        -24    2    3    3    0    0  0.23452465279E+03  0.74335829517E+02 -0.12355102148E+03  0.28677926271E+03  0.80311034719E+02 0.  0.
          6    2    1    2  501    0 -0.29443804767E+03 -0.18738658535E+02  0.52677079819E+03  0.62814601514E+03  0.17330620666E+03 0.  0.
         24    2    5    5    0    0 -0.27969529042E+03 -0.35406704624E+02  0.52962059866E+03  0.60522475831E+03  0.79472884278E+02 0.  0.
          5    1    5    5  501    0 -0.14742757257E+02  0.16668046089E+02 -0.28498004653E+01  0.22921256830E+02  0.47000000000E+01 0. -1.
        -13    1    6    6    0    0 -0.25054217256E+02 -0.21254954895E+02  0.31023979506E+02  0.45188208797E+02  0.00000000000E+00 0.  1.
         14    1    6    6    0    0 -0.25464107316E+03 -0.14151749728E+02  0.49859661915E+03  0.56003654951E+03  0.00000000000E+00 0. -1.
         -5    1    3    3    0  503  0.59913394886E+02 -0.55597170982E+02 -0.51508334025E+02  0.96725688325E+02  0.47000000000E+01 0.  1.
         11    1    4    4    0    0  0.50491019143E+02  0.26843510024E+01 -0.61824507177E+02  0.79867505545E+02  0.00000000000E+00 0. -1.
        -12    1    4    4    0    0  0.18403363365E+03  0.71651478514E+02 -0.61726514307E+02  0.20691175717E+03  0.00000000000E+00 0.  1.
<mgrwt>
<rscale>  2 0.34193155E+03</rscale>
<asrwt>0</asrwt>
<pdfrwt beam="1">  1       21 0.10487403E+00 0.34216946E+03</pdfrwt>
<pdfrwt beam="2">  1       21 0.50764579E-01 0.34216946E+03</pdfrwt>
<totfact> 0.24494264E+03</totfact>
</mgrwt>
</event>
<event>
12    1  0.1050690E-001  0.2225325E+03  0.7546771E-02  0.1132871E+00
         21   -1    0    0  503  502  0.00000000000E+00  0.00000000000E+00  0.97981255646E+03  0.97981255646E+03  0.00000000000E+00 0. -1.
         21   -1    0    0  501  503 -0.00000000000E+00 -0.00000000000E+00 -0.50944214969E+02  0.50944214969E+02  0.00000000000E+00 0.  1.
          6    2    1    2  501    0 -0.88565440935E+02 -0.10863372295E+03  0.54666534943E+03  0.58849007891E+03  0.16683058957E+03 0.  0.
         24    2    3    3    0    0 -0.13652063815E+01 -0.51324663465E+02  0.14537225332E+03  0.17382581930E+03  0.80288470869E+02 0.  0.
         -6    2    1    2    0  502  0.88565440935E+02  0.10863372295E+03  0.38220299207E+03  0.44226669253E+03  0.17284552954E+03 0.  0.
        -24    2    5    5    0    0  0.94756633132E+02  0.14139827393E+03  0.31289165203E+03  0.36520828273E+03  0.80644977984E+02 0.  0.
          5    1    3    3  501    0 -0.87200234553E+02 -0.57309059487E+02  0.40129309611E+03  0.41466425960E+03  0.47000000000E+01 0. -1.
        -13    1    4    4    0    0  0.22661879550E+02  0.92385042774E+01  0.16791611257E+02  0.29679436562E+02  0.00000000000E+00 0.  1.
         14    1    4    4    0    0 -0.24027085932E+02 -0.60563167742E+02  0.12858064206E+03  0.14414638274E+03  0.00000000000E+00 0. -1.
         -5    1    5    5    0  502 -0.61911921970E+01 -0.32764550981E+02  0.69311340038E+02  0.77058409792E+02  0.47000000000E+01 0.  1.
         13    1    6    6    0    0  0.33674160358E+02  0.11448505296E+03  0.22672169596E+03  0.25620988242E+03  0.00000000000E+00 0. -1.
        -14    1    6    6    0    0  0.61082472773E+02  0.26913220969E+02  0.86169956065E+02  0.10899840032E+03  0.00000000000E+00 0.  1.
<mgrwt>
<rscale>  2 0.22136354E+03</rscale>
<asrwt>0</asrwt>
<pdfrwt beam="1">  1       21 0.15074038E+00 0.22253247E+03</pdfrwt>
<pdfrwt beam="2">  1       21 0.78375722E-02 0.22253247E+03</pdfrwt>
<totfact> 0.36056122E+04</totfact>
</mgrwt>
</event>
<event>
12    1  0.1050690E-001  0.2122950E+03  0.7546771E-02  0.1140056E+00
         21   -1    0    0  503  502  0.00000000000E+00  0.00000000000E+00  0.64630907770E+03  0.64630907770E+03  0.00000000000E+00 0. -1.
         21   -1    0    0  501  503 -0.00000000000E+00 -0.00000000000E+00 -0.70348523831E+02  0.70348523831E+02  0.00000000000E+00 0.  1.
          6    2    1    2  501    0  0.43005347381E+02  0.11546197296E+03  0.24198703470E+03  0.32092095701E+03  0.17103101643E+03 0.  0.
         24    2    3    3    0    0  0.21258385188E+02  0.26302569391E+02  0.20409933011E+03  0.22152328215E+03  0.79197751761E+02 0.  0.
         -6    2    1    2    0  502 -0.43005347381E+02 -0.11546197296E+03  0.33397351917E+03  0.39573664452E+03  0.17288219459E+03 0.  0.
        -24    2    5    5    0    0 -0.75574817341E+02 -0.13458489676E+03  0.25454726058E+03  0.30766237392E+03  0.77699298629E+02 0.  0.
          5    1    3    3  501    0  0.21746962193E+02  0.89159403569E+02  0.37887704589E+02  0.99397674864E+02  0.47000000000E+01 0. -1.
        -11    1    4    4    0    0 -0.10241869620E+02 -0.21965147285E+02  0.32765920424E+02  0.40754989017E+02  0.00000000000E+00 0.  1.
         12    1    4    4    0    0  0.31500254808E+02  0.48267716676E+02  0.17133340969E+03  0.18076829313E+03  0.00000000000E+00 0. -1.
         -5    1    5    5    0  502  0.32569469960E+02  0.19122923796E+02  0.79426258587E+02  0.88074270597E+02  0.47000000000E+01 0.  1.
         11    1    6    6    0    0 -0.74861796732E+02 -0.54270801896E+02  0.13879728667E+03  0.16677618336E+03  0.00000000000E+00 0. -1.
        -12    1    6    6    0    0 -0.71302060925E+00 -0.80314094860E+02  0.11574997390E+03  0.14088619056E+03  0.00000000000E+00 0.  1.
<mgrwt>
<rscale>  2 0.21191784E+03</rscale>
<asrwt>0</asrwt>
<pdfrwt beam="1">  1       21 0.99432162E-01 0.21229503E+03</pdfrwt>
<pdfrwt beam="2">  1       21 0.10822850E-01 0.21229503E+03</pdfrwt>
<totfact> 0.58136010E+04</totfact>
</mgrwt>
</event>
<event>
12    1  0.1050690E-001  0.2593695E+03  0.7546771E-02  0.1107583E+00
         21   -1    0    0  501  502  0.00000000000E+00  0.00000000000E+00  0.42997281771E+03  0.42997281771E+03  0.00000000000E+00 0.  1.
         21   -1    0    0  502  503 -0.00000000000E+00 -0.00000000000E+00 -0.37876536906E+03  0.37876536906E+03  0.00000000000E+00 0.  1.
         -6    2    1    2    0  503 -0.16749191852E+03 -0.97314365903E+02 -0.28436299559E+03  0.38461548946E+03  0.17188115921E+03 0.  0.
        -24    2    3    3    0    0 -0.16792727070E+03 -0.78561518546E+02 -0.16042358731E+03  0.25917655714E+03  0.84055219756E+02 0.  0.
          6    2    1    2  501    0  0.16749191852E+03  0.97314365903E+02  0.33557044424E+03  0.42412269731E+03  0.17247872549E+03 0.  0.
         24    2    5    5    0    0  0.16929658653E+03  0.30089469659E+02  0.27391194401E+03  0.33276458791E+03  0.78344160620E+02 0.  0.
          5    1    5    5  501    0 -0.18046680111E+01  0.67224896244E+02  0.61658500226E+02  0.91358109392E+02  0.47000000000E+01 0. -1.
        -11    1    6    6    0    0  0.17473927966E+03  0.38232138649E+02  0.26342601935E+03  0.31841604851E+03  0.00000000000E+00 0.  1.
         12    1    6    6    0    0 -0.54426931337E+01 -0.81426689908E+01  0.10485924663E+02  0.14348539399E+02  0.00000000000E+00 0. -1.
         -5    1    3    3    0  503  0.43535218018E+00 -0.18752847356E+02 -0.12393940828E+03  0.12543893232E+03  0.47000000000E+01 0.  1.
         13    1    4    4    0    0 -0.73760761018E+02 -0.52599501052E+02 -0.28390842745E+02  0.94938913669E+02  0.00000000000E+00 0. -1.
        -14    1    4    4    0    0 -0.94166509680E+02 -0.25962017494E+02 -0.13203274456E+03  0.16423764347E+03  0.00000000000E+00 0.  1.
<mgrwt>
<rscale>  2 0.25927020E+03</rscale>
<asrwt>0</asrwt>
<pdfrwt beam="1">  1       21 0.66149664E-01 0.25936950E+03</pdfrwt>
<pdfrwt beam="2">  1       21 0.58271595E-01 0.25936950E+03</pdfrwt>
<totfact> 0.55316998E+03</totfact>
</mgrwt>
</event>
<event>
12    1  0.1050690E-001  0.4750467E+03  0.7546771E-02  0.1020530E+00
         21   -1    0    0  503  502  0.00000000000E+00  0.00000000000E+00  0.24096930997E+03  0.24096930997E+03  0.00000000000E+00 0. -1.
         21   -1    0    0  501  503 -0.00000000000E+00 -0.00000000000E+00 -0.11651250756E+04  0.11651250756E+04  0.00000000000E+00 0. -1.
          6    2    1    2  501    0 -0.41679937658E+03 -0.14612358247E+03 -0.77384129541E+03  0.90783358454E+03  0.17394724796E+03 0.  0.
         24    2    3    3    0    0 -0.19245283208E+03 -0.16366288427E+02 -0.42127703007E+03  0.47023561999E+03  0.79631992754E+02 0.  0.
         -6    2    1    2    0  502  0.41679937658E+03  0.14612358247E+03 -0.15031447021E+03  0.49826080101E+03  0.17491587749E+03 0.  0.
        -24    2    5    5    0    0  0.97794790688E+02  0.71576370590E+02 -0.39101311367E+02  0.15226705928E+03  0.83482614226E+02 0.  0.
          5    1    3    3  501    0 -0.22434654450E+03 -0.12975729404E+03 -0.35256426534E+03  0.43759796455E+03  0.47000000000E+01 0. -1.
        -11    1    4    4    0    0 -0.35114216345E+02  0.20890383722E+02 -0.45521939813E+02  0.61169137037E+02  0.00000000000E+00 0.  1.
         12    1    4    4    0    0 -0.15733861574E+03 -0.37256672149E+02 -0.37575509026E+03  0.40906648295E+03  0.00000000000E+00 0. -1.
         -5    1    5    5    0  502  0.31900458589E+03  0.74547211881E+02 -0.11121315884E+03  0.34599374173E+03  0.47000000000E+01 0.  1.
         11    1    6    6    0    0  0.81862086191E+02  0.21369713168E+02  0.32663830765E+01  0.84668382852E+02  0.00000000000E+00 0. -1.
        -12    1    6    6    0    0  0.15932704497E+02  0.50206657422E+02 -0.42367694444E+02  0.67598676426E+02  0.00000000000E+00 0.  1.
<mgrwt>
<rscale>  2 0.47495774E+03</rscale>
<asrwt>0</asrwt>
<pdfrwt beam="1">  1       21 0.37072201E-01 0.47504672E+03</pdfrwt>
<pdfrwt beam="2">  1       21 0.17925001E+00 0.47504672E+03</pdfrwt>
<totfact> 0.10742431E+03</totfact>
</mgrwt>
</event>
<event>
12    1  0.1050690E-001  0.2383186E+03  0.7546771E-02  0.1120934E+00
         21   -1    0    0  503  502  0.00000000000E+00  0.00000000000E+00  0.79953342529E+02  0.79953342529E+02  0.00000000000E+00 0.  1.
         21   -1    0    0  501  503 -0.00000000000E+00 -0.00000000000E+00 -0.94398675625E+03  0.94398675625E+03  0.00000000000E+00 0.  1.
          6    2    1    2  501    0  0.15428194584E+03  0.56521918770E+02 -0.68693757558E+03  0.72710313286E+03  0.17262122394E+03 0.  0.
         24    2    3    3    0    0  0.13347357502E+03  0.38044159301E+02 -0.67960606154E+03  0.69794396638E+03  0.77452101652E+02 0.  0.
         -6    2    1    2    0  502 -0.15428194584E+03 -0.56521918770E+02 -0.17709583815E+03  0.29683696593E+03  0.17248652799E+03 0.  0.
        -24    2    5    5    0    0 -0.90888587064E+02 -0.46610788737E+02 -0.24891003288E+02  0.13159365989E+03  0.79145615124E+02 0.  0.
          5    1    3    3  501    0  0.20808370821E+02  0.18477759468E+02 -0.73315140422E+01  0.29159166472E+02  0.47000000000E+01 0. -1.
        -11    1    4    4    0    0  0.24432451353E+02  0.33491162479E+02 -0.30367861630E+03  0.30649519513E+03  0.00000000000E+00 0.  1.
         12    1    4    4    0    0  0.10904112367E+03  0.45529968226E+01 -0.37592744524E+03  0.39144877125E+03  0.00000000000E+00 0. -1.
         -5    1    5    5    0  502 -0.63393358777E+02 -0.99111300322E+01 -0.15220483486E+03  0.16524330604E+03  0.47000000000E+01 0.  1.
         11    1    6    6    0    0  0.93834896912E+01 -0.22472424154E+02 -0.13461474173E+02  0.27825725742E+02  0.00000000000E+00 0. -1.
        -12    1    6    6    0    0 -0.10027207676E+03 -0.24138364583E+02 -0.11429529115E+02  0.10376793415E+03  0.00000000000E+00 0.  1.
<mgrwt>
<rscale>  2 0.23829416E+03</rscale>
<asrwt>0</asrwt>
<pdfrwt beam="1">  1       21 0.12300514E-01 0.23831855E+03</pdfrwt>
<pdfrwt beam="2">  1       21 0.14522873E+00 0.23831855E+03</pdfrwt>
<totfact> 0.17741916E+04</totfact>
</mgrwt>
</event>
<event>
12    1  0.1050690E-001  0.2575982E+03  0.7546771E-02  0.1108957E+00
         21   -1    0    0  501  502  0.00000000000E+00  0.00000000000E+00  0.64023311431E+03  0.64023311431E+03  0.00000000000E+00 0. -1.
         21   -1    0    0  502  503 -0.00000000000E+00 -0.00000000000E+00 -0.10280382359E+03  0.10280382359E+03  0.00000000000E+00 0. -1.
         -6    2    1    2    0  503 -0.77079647692E+02  0.17137073887E+03  0.25523181882E+03  0.36094764557E+03  0.17271571809E+03 0.  0.
        -24    2    3    3    0    0 -0.10110237733E+03  0.17713296551E+03  0.25432624264E+03  0.33578408335E+03  0.80444606830E+02 0.  0.
          6    2    1    2  501    0  0.77079647692E+02 -0.17137073887E+03  0.28219747190E+03  0.38208929234E+03  0.17620332557E+03 0.  0.
         24    2    5    5    0    0  0.10201207246E+03 -0.65673468619E+02  0.12622559555E+03  0.19197654959E+03  0.78756759778E+02 0.  0.
          5    1    5    5  501    0 -0.24932424771E+02 -0.10569727025E+03  0.15597187636E+03  0.19011274275E+03  0.47000000000E+01 0. -1.
        -13    1    6    6    0    0  0.27222514824E+02  0.92251088492E+01  0.61562392095E+02  0.67941857990E+02  0.00000000000E+00 0.  1.
         14    1    6    6    0    0  0.74789557638E+02 -0.74898577468E+02  0.64663203454E+02  0.12403469160E+03  0.00000000000E+00 0. -1.
         -5    1    3    3    0  503  0.24022729634E+02 -0.57622266412E+01  0.90557617528E+00  0.25163562211E+02  0.47000000000E+01 0.  1.
         11    1    4    4    0    0 -0.98848548468E+02  0.13048668568E+03  0.15236067676E+03  0.22363270444E+03  0.00000000000E+00 0. -1.
        -12    1    4    4    0    0 -0.22538288582E+01  0.46646279830E+02  0.10196556588E+03  0.11215137891E+03  0.00000000000E+00 0.  1.
<mgrwt>
<rscale>  2 0.25700287E+03</rscale>
<asrwt>0</asrwt>
<pdfrwt beam="1">  1       21 0.98497400E-01 0.25759816E+03</pdfrwt>
<pdfrwt beam="2">  1       21 0.15815973E-01 0.25759816E+03</pdfrwt>
<totfact> 0.29308256E+04</totfact>
</mgrwt>
</event>
<event>
12    1  0.1050690E-001  0.1806966E+03  0.7546771E-02  0.1167544E+00
         21   -1    0    0  503  502  0.00000000000E+00  0.00000000000E+00  0.95126263292E+02  0.95126263292E+02  0.00000000000E+00 0. -1.
         21   -1    0    0  501  503 -0.00000000000E+00 -0.00000000000E+00 -0.58263598952E+03  0.58263598952E+03  0.00000000000E+00 0. -1.
          6    2    1    2  501    0 -0.51364211544E+02  0.92697253397E+01 -0.46176495965E+03  0.49524091137E+03  0.17120885579E+03 0.  0.
         24    2    3    3    0    0  0.75867383286E+01 -0.35778958197E+02 -0.35138685065E+03  0.36216192984E+03  0.79692234045E+02 0.  0.
         -6    2    1    2    0  502  0.51364211544E+02 -0.92697253397E+01 -0.25744766573E+02  0.18252134144E+03  0.17299432661E+03 0.  0.
        -24    2    5    5    0    0  0.36187801018E+02 -0.73189074814E+02 -0.92321609158E+01  0.11461874341E+03  0.79912614335E+02 0.  0.
          5    1    3    3  501    0 -0.58950949872E+02  0.45048683537E+02 -0.11037810901E+03  0.13307898154E+03  0.47000000000E+01 0. -1.
        -11    1    4    4    0    0  0.33334820224E+02 -0.11653782380E+02 -0.68341820011E+02  0.76926102498E+02  0.00000000000E+00 0.  1.
         12    1    4    4    0    0 -0.25748081896E+02 -0.24125175818E+02 -0.28304503064E+03  0.28523582734E+03  0.00000000000E+00 0. -1.
         -5    1    5    5    0  502  0.15176410526E+02  0.63919349475E+02 -0.16512605658E+02  0.67902598031E+02  0.47000000000E+01 0.  1.
         11    1    6    6    0    0  0.50069251808E+02 -0.64640227234E+02 -0.30982502147E+02  0.87436859463E+02  0.00000000000E+00 0. -1.
        -12    1    6    6    0    0 -0.13881450790E+02 -0.85488475808E+01  0.21750341231E+02  0.27181883942E+02  0.00000000000E+00 0.  1.
<mgrwt>
<rscale>  2 0.18026788E+03</rscale>
<asrwt>0</asrwt>
<pdfrwt beam="1">  1       21 0.14634810E-01 0.18069656E+03</pdfrwt>
<pdfrwt beam="2">  1       21 0.89636305E-01 0.18069656E+03</pdfrwt>
<totfact> 0.43772953E+04</totfact>
</mgrwt>
</event>
<event>
12    1  0.1050690E-001  0.3168769E+03  0.7546771E-02  0.1077166E+00
         21   -1    0    0  501  502  0.00000000000E+00  0.00000000000E+00  0.12324262702E+04  0.12324262702E+04  0.00000000000E+00 0.  1.
         21   -1    0    0  502  503 -0.00000000000E+00 -0.00000000000E+00 -0.34456811105E+03  0.34456811105E+03  0.00000000000E+00 0. -1.
         -6    2    1    2    0  503  0.25467006975E+03  0.74068161699E+02 -0.24537235779E+03  0.40029459347E+03  0.17229402367E+03 0.  0.
        -24    2    3    3    0    0  0.23056047262E+03  0.11083058553E+03 -0.23155905971E+03  0.35397347860E+03  0.78968824194E+02 0.  0.
          6    2    1    2  501    0 -0.25467006975E+03 -0.74068161699E+02  0.11332305170E+04  0.11766997878E+04  0.17340141011E+03 0.  0.
         24    2    5    5    0    0 -0.22721320908E+03 -0.33948527929E+01  0.85483062004E+03  0.88812191547E+03  0.79923590874E+02 0.  0.
          5    1    5    5  501    0 -0.27456860663E+02 -0.70673308906E+02  0.27839989696E+03  0.28857787236E+03  0.47000000000E+01 0. -1.
        -11    1    6    6    0    0 -0.66084533413E+02  0.33259615325E+02  0.21848158069E+03  0.23066765848E+03  0.00000000000E+00 0.  1.
         12    1    6    6    0    0 -0.16112867567E+03 -0.36654468118E+02  0.63634903935E+03  0.65745425699E+03  0.00000000000E+00 0. -1.
         -5    1    3    3    0  503  0.24109597126E+02 -0.36762423826E+02 -0.13813298082E+02  0.46321114873E+02  0.47000000000E+01 0.  1.
         13    1    4    4    0    0  0.12758989634E+03  0.17609055511E+02 -0.10887561771E+03  0.16865100242E+03  0.00000000000E+00 0. -1.
        -14    1    4    4    0    0  0.10297057628E+03  0.93221530015E+02 -0.12268344200E+03  0.18532247618E+03  0.00000000000E+00 0.  1.
<mgrwt>
<rscale>  2 0.31672566E+03</rscale>
<asrwt>0</asrwt>
<pdfrwt beam="1">  1       21 0.18960404E+00 0.31687693E+03</pdfrwt>
<pdfrwt beam="2">  1       21 0.53010479E-01 0.31687693E+03</pdfrwt>
<totfact> 0.47129850E+02</totfact>
</mgrwt>
</event>
<event>
12    1  0.1050690E-001  0.2146888E+03  0.7546771E-02  0.1137934E+00
         21   -1    0    0  503  502  0.00000000000E+00  0.00000000000E+00  0.33895543919E+03  0.33895543919E+03  0.00000000000E+00 0.  1.
         21   -1    0    0  501  503 -0.00000000000E+00 -0.00000000000E+00 -0.18333873940E+03  0.18333873940E+03  0.00000000000E+00 0. -1.
          6    2    1    2  501    0  0.12096257919E+03  0.37402020125E+02 -0.55067614066E+02  0.22149661311E+03  0.17319772178E+03 0.  0.
         24    2    3    3    0    0  0.87207462750E+02  0.88396388346E+02 -0.16117976139E+02  0.14883990131E+03  0.80464054297E+02 0.  0.
         -6    2    1    2    0  502 -0.12096257919E+03 -0.37402020125E+02  0.21068431386E+03  0.30079756548E+03  0.17337946423E+03 0.  0.
        -24    2    5    5    0    0 -0.11982499579E+03 -0.37460066921E+02  0.78194214521E+02  0.16821923433E+03  0.80137939733E+02 0.  0.
          5    1    3    3  501    0  0.33755116439E+02 -0.50994368222E+02 -0.38949637927E+02  0.72656711808E+02  0.47000000000E+01 0. -1.
        -13    1    4    4    0    0  0.10270644082E+03  0.78710529796E+02 -0.11026770271E+02  0.12986743298E+03  0.00000000000E+00 0.  1.
         14    1    4    4    0    0 -0.15498978071E+02  0.96858585506E+01 -0.50912058685E+01  0.18972468324E+02  0.00000000000E+00 0. -1.
         -5    1    5    5    0  502 -0.11375833960E+01  0.58046796177E-01  0.13249009934E+03  0.13257833114E+03  0.47000000000E+01 0.  1.
         11    1    6    6    0    0 -0.24072769940E+02  0.24154731578E+02  0.10180736757E+02  0.35589278036E+02  0.00000000000E+00 0. -1.
        -12    1    6    6    0    0 -0.95752225853E+02 -0.61614798499E+02  0.68013477764E+02  0.13262995630E+03  0.00000000000E+00 0.  1.
<mgrwt>
<rscale>  2 0.21465214E+03</rscale>
<asrwt>0</asrwt>
<pdfrwt beam="1">  1       21 0.52146991E-01 0.21468883E+03</pdfrwt>
<pdfrwt beam="2">  1       21 0.28205960E-01 0.21468883E+03</pdfrwt>
<totfact> 0.41456254E+04</totfact>
</mgrwt>
</event>
<event>
12    1  0.1050690E-001  0.1741125E+03  0.7546771E-02  0.1173712E+00
         21   -1    0    0  503  502  0.00000000000E+00  0.00000000000E+00  0.10382120685E+04  0.10382120685E+04  0.00000000000E+00 0.  1.
         21   -1    0    0  501  503 -0.00000000000E+00 -0.00000000000E+00 -0.31368697171E+02  0.31368697171E+02  0.00000000000E+00 0.  1.
          6    2    1    2  501    0 -0.15908000131E+02  0.41619751743E+01  0.36049936387E+03  0.40019616296E+03  0.17299361547E+03 0.  0.
         24    2    3    3    0    0  0.34526397106E+02 -0.36906595647E+02  0.11491127276E+03  0.14609803933E+03  0.74738661961E+02 0.  0.
         -6    2    1    2    0  502  0.15908000131E+02 -0.41619751743E+01  0.64634400744E+03  0.66938460269E+03  0.17333431241E+03 0.  0.
        -24    2    5    5    0    0  0.38068631911E+02 -0.39065107747E+02  0.59585408274E+03  0.60395796622E+03  0.82145198622E+02 0.  0.
          5    1    3    3  501    0 -0.50434397237E+02  0.41068570821E+02  0.24558809111E+03  0.25409812362E+03  0.47000000000E+01 0. -1.
        -13    1    4    4    0    0 -0.99330572766E+01 -0.20245768461E+02  0.86982743545E+00  0.22567972156E+02  0.00000000000E+00 0.  1.
         14    1    4    4    0    0  0.44459454383E+02 -0.16660827185E+02  0.11404144532E+03  0.12353006718E+03  0.00000000000E+00 0. -1.
         -5    1    5    5    0  502 -0.22160631780E+02  0.34903132573E+02  0.50489924699E+02  0.65426636475E+02  0.47000000000E+01 0.  1.
         11    1    6    6    0    0  0.17217516955E+02 -0.63706808142E+02  0.42277145146E+03  0.42789099133E+03  0.00000000000E+00 0. -1.
        -12    1    6    6    0    0  0.20851114955E+02  0.24641700395E+02  0.17308263128E+03  0.17606697489E+03  0.00000000000E+00 0.  1.
<mgrwt>
<rscale>  2 0.17402767E+03</rscale>
<asrwt>0</asrwt>
<pdfrwt beam="1">  1       21 0.15972491E+00 0.17411252E+03</pdfrwt>
<pdfrwt beam="2">  1       21 0.48259542E-02 0.17411252E+03</pdfrwt>
<totfact> 0.72949944E+04</totfact>
</mgrwt>
</event>
<event>
12    1  0.1050690E-001  0.2454679E+03  0.7546771E-02  0.1116474E+00
         21   -1    0    0  501  502  0.00000000000E+00  0.00000000000E+00  0.78651285978E+03  0.78651285978E+03  0.00000000000E+00 0.  1.
         21   -1    0    0  502  503 -0.00000000000E+00 -0.00000000000E+00 -0.77376962139E+02  0.77376962139E+02  0.00000000000E+00 0.  1.
         -6    2    1    2    0  503  0.17264898397E+03  0.15210518188E+02  0.41145083953E+03  0.47910986403E+03  0.17382588106E+03 0.  0.
        -24    2    3    3    0    0  0.93629167650E+02 -0.54445664267E+02  0.28276904083E+03  0.31274517293E+03  0.78233377456E+02 0.  0.
          6    2    1    2  501    0 -0.17264898397E+03 -0.15210518188E+02  0.29768505811E+03  0.38477995790E+03  0.17146483794E+03 0.  0.
         24    2    5    5    0    0 -0.18741250260E+03 -0.42957746661E+02  0.22819394890E+03  0.30836677559E+03  0.77773876380E+02 0.  0.
          5    1    5    5  501    0  0.14763518632E+02  0.27747228473E+02  0.69491109214E+02  0.76413182305E+02  0.47000000000E+01 0. -1.
        -13    1    6    6    0    0 -0.53373607311E+02  0.22264330291E+02  0.73743358968E+02  0.93715128728E+02  0.00000000000E+00 0.  1.
         14    1    6    6    0    0 -0.13403889529E+03 -0.65222076951E+02  0.15445058993E+03  0.21465164686E+03  0.00000000000E+00 0. -1.
         -5    1    3    3    0  503  0.79019816316E+02  0.69656182455E+02  0.12868179870E+03  0.16636469109E+03  0.47000000000E+01 0.  1.
         11    1    4    4    0    0  0.30655566486E+02 -0.41306395654E+02  0.20726424411E+03  0.21355198188E+03  0.00000000000E+00 0. -1.
        -12    1    4    4    0    0  0.62973601164E+02 -0.13139268613E+02  0.75504796717E+02  0.99193191049E+02  0.00000000000E+00 0.  1.
<mgrwt>
<rscale>  2 0.24505023E+03</rscale>
<asrwt>0</asrwt>
<pdfrwt beam="1">  1       21 0.12100197E+00 0.24546786E+03</pdfrwt>
<pdfrwt beam="2">  1       21 0.11904149E-01 0.24546786E+03</pdfrwt>
<totfact> 0.29924031E+04</totfact>
</mgrwt>
</event>
<event>
12    1  0.1050690E-001  0.2022884E+03  0.7546771E-02  0.1148438E+00
         21   -1    0    0  503  502  0.00000000000E+00  0.00000000000E+00  0.11744971460E+03  0.11744971460E+03  0.00000000000E+00 0. -1.
         21   -1    0    0  501  503 -0.00000000000E+00 -0.00000000000E+00 -0.53364787201E+03  0.53364787201E+03  0.00000000000E+00 0. -1.
          6    2    1    2  501    0  0.44029527627E+02 -0.93250274753E+02 -0.40347230319E+03  0.45134299541E+03  0.17402984520E+03 0.  0.
         24    2    3    3    0    0  0.50165710886E+02 -0.66328139441E+01 -0.30723096010E+03  0.32163284399E+03  0.80599198005E+02 0.  0.
         -6    2    1    2    0  502 -0.44029527627E+02  0.93250274753E+02 -0.12725854213E+02  0.19975459120E+03  0.17060403365E+03 0.  0.
        -24    2    5    5    0    0 -0.17552077603E+02  0.12779274561E+03 -0.24954177983E+02  0.15430286346E+03  0.80917250412E+02 0.  0.
          5    1    3    3  501    0 -0.61361832589E+01 -0.86617460809E+02 -0.96241343094E+02  0.12971015142E+03  0.47000000000E+01 0. -1.
        -13    1    4    4    0    0 -0.80846597271E+01  0.17587967159E+02 -0.21116954500E+02  0.28646536947E+02  0.00000000000E+00 0.  1.
         14    1    4    4    0    0  0.58250370613E+02 -0.24220781103E+02 -0.28611400560E+03  0.29298630704E+03  0.00000000000E+00 0. -1.
         -5    1    5    5    0  502 -0.26477450023E+02 -0.34542470857E+02  0.12228323769E+02  0.45451727744E+02  0.47000000000E+01 0.  1.
         13    1    6    6    0    0  0.18061941879E+02  0.30172920040E+02  0.20696355053E+02  0.40804141464E+02  0.00000000000E+00 0. -1.
        -14    1    6    6    0    0 -0.35614019482E+02  0.97619825571E+02 -0.45650533035E+02  0.11349872200E+03  0.00000000000E+00 0.  1.
<mgrwt>
<rscale>  2 0.20154947E+03</rscale>
<asrwt>0</asrwt>
<pdfrwt beam="1">  1       21 0.18069187E-01 0.20228841E+03</pdfrwt>
<pdfrwt beam="2">  1       21 0.82099671E-01 0.20228841E+03</pdfrwt>
<totfact> 0.35967407E+04</totfact>
</mgrwt>
</event>
<event>
11    1  0.1050690E-001  0.2407592E+03  0.7546771E-02  0.1119769E+00
         21   -1    0    0  501  502  0.00000000000E+00  0.00000000000E+00  0.14267572926E+03  0.14267572926E+03  0.00000000000E+00 0.  1.
         21   -1    0    0  502  503 -0.00000000000E+00 -0.00000000000E+00 -0.42432584100E+03  0.42432584100E+03  0.00000000000E+00 0. -1.
         -6    2    1    2    0  503  0.19585449366E+02 -0.16182988602E+03 -0.20748844183E+03  0.31783082010E+03  0.17717921683E+03 0.  0.
        -24    2    3    3    0    0 -0.16384774495E+02 -0.53041719760E+02 -0.27472908091E+02  0.10439135676E+03  0.84029220022E+02 0.  0.
          6    2    1    2  501    0 -0.19585449366E+02  0.16182988602E+03 -0.74161669911E+02  0.24917075016E+03  0.17324435810E+03 0.  0.
          5    1    5    5  501    0 -0.19732825878E+02 -0.23141441469E+01 -0.79930009589E+02  0.82496279389E+02  0.47000000000E+01 0. -1.
        -13    1    5    5    0    0  0.10873765688E+02  0.48000607948E+02 -0.53563926654E+01  0.49507454853E+02  0.00000000000E+00 0.  1.
         14    1    5    5    0    0 -0.10726389175E+02  0.11614342221E+03  0.11124732343E+02  0.11716701591E+03  0.00000000000E+00 0. -1.
         -5    1    3    3    0  503  0.35970223861E+02 -0.10878816626E+03 -0.18001553374E+03  0.21343946334E+03  0.47000000000E+01 0.  1.
         13    1    4    4    0    0  0.29619486406E+02 -0.11958967679E+02 -0.28347213728E+02  0.42707088510E+02  0.00000000000E+00 0. -1.
        -14    1    4    4    0    0 -0.46004260901E+02 -0.41082752082E+02  0.87430563697E+00  0.61684268253E+02  0.00000000000E+00 0.  1.
<mgrwt>
<rscale>  2 0.24003571E+03</rscale>
<asrwt>0</asrwt>
<pdfrwt beam="1">  1       21 0.21950113E-01 0.24075917E+03</pdfrwt>
<pdfrwt beam="2">  1       21 0.65280898E-01 0.24075917E+03</pdfrwt>
<totfact> 0.40901109E+04</totfact>
</mgrwt>
</event>
<event>
12    1  0.1050690E-001  0.1805830E+03  0.7546771E-02  0.1167841E+00
         21   -1    0    0  501  502  0.00000000000E+00  0.00000000000E+00  0.10993719374E+03  0.10993719374E+03  0.00000000000E+00 0. -1.
         21   -1    0    0  502  503 -0.00000000000E+00 -0.00000000000E+00 -0.31096879611E+03  0.31096879611E+03  0.00000000000E+00 0. -1.
         -6    2    1    2    0  503 -0.51366014636E+02  0.43818602763E+01 -0.15104656556E+03  0.23353277749E+03  0.17048409026E+03 0.  0.
        -24    2    3    3    0    0  0.10299842112E+02 -0.26581354747E+02 -0.13991807948E+03  0.16348042724E+03  0.79599786159E+02 0.  0.
          6    2    1    2  501    0  0.51366014636E+02 -0.43818602763E+01 -0.49985036808E+02  0.18737321236E+03  0.17306804629E+03 0.  0.
         24    2    5    5    0    0  0.17999804431E+02  0.54425655481E+02 -0.64527439834E+02  0.11805366693E+03  0.80540256080E+02 0.  0.
          5    1    5    5  501    0  0.33366210204E+02 -0.58807515757E+02  0.14542403026E+02  0.69319545430E+02  0.47000000000E+01 0. -1.
        -13    1    6    6    0    0  0.15129561243E+02 -0.11569981882E+02 -0.45475619585E+02  0.49303144736E+02  0.00000000000E+00 0.  1.
         14    1    6    6    0    0  0.28702431880E+01  0.65995637363E+02 -0.19051820249E+02  0.68750522192E+02  0.00000000000E+00 0. -1.
         -5    1    3    3    0  503 -0.61665856748E+02  0.30963215023E+02 -0.11128486083E+02  0.70052350250E+02  0.47000000000E+01 0.  1.
         11    1    4    4    0    0  0.36054076757E+02 -0.21939272012E+01 -0.11390527943E+03  0.11949528212E+03  0.00000000000E+00 0. -1.
        -12    1    4    4    0    0 -0.25754234645E+02 -0.24387427545E+02 -0.26012800051E+02  0.43985145116E+02  0.00000000000E+00 0.  1.
<mgrwt>
<rscale>  2 0.17996106E+03</rscale>
<asrwt>0</asrwt>
<pdfrwt beam="1">  1       21 0.16913414E-01 0.18058299E+03</pdfrwt>
<pdfrwt beam="2">  1       21 0.47841353E-01 0.18058299E+03</pdfrwt>
<totfact> 0.13206537E+05</totfact>
</mgrwt>
</event>
<event>
12    1  0.1050690E-001  0.2051262E+03  0.7546771E-02  0.1145970E+00
         21   -1    0    0  501  502  0.00000000000E+00  0.00000000000E+00  0.14690956555E+03  0.14690956555E+03  0.00000000000E+00 0.  1.
         21   -1    0    0  502  503 -0.00000000000E+00 -0.00000000000E+00 -0.47055998278E+03  0.47055998278E+03  0.00000000000E+00 0. -1.
         -6    2    1    2    0  503  0.79004725426E+02  0.76048777186E+02 -0.35723968831E+03  0.41194291809E+03  0.17335400113E+03 0.  0.
        -24    2    3    3    0    0  0.46339125340E+02 -0.91079543500E+01 -0.26265922057E+03  0.28046567583E+03  0.86260418485E+02 0.  0.
          6    2    1    2  501    0 -0.79004725426E+02 -0.76048777186E+02  0.33589271079E+02  0.20552663025E+03  0.17055143933E+03 0.  0.
         24    2    5    5    0    0 -0.79240597100E+02 -0.11485340621E+03  0.32131751598E+02  0.16641053085E+03  0.84791734090E+02 0.  0.
          5    1    5    5  501    0  0.23587167340E+00  0.38804629024E+02  0.14575194810E+01  0.39116099399E+02  0.47000000000E+01 0. -1.
        -11    1    6    6    0    0 -0.53083972909E+02 -0.84390967170E+02  0.61071676314E+02  0.11691660775E+03  0.00000000000E+00 0.  1.
         12    1    6    6    0    0 -0.26156624190E+02 -0.30462439040E+02 -0.28939924716E+02  0.49493923100E+02  0.00000000000E+00 0. -1.
         -5    1    3    3    0  503  0.32665600086E+02  0.85156731536E+02 -0.94580467739E+02  0.13147724226E+03  0.47000000000E+01 0.  1.
         13    1    4    4    0    0  0.71557909139E+02 -0.78503734622E+01 -0.21148362829E+03  0.22339983831E+03  0.00000000000E+00 0. -1.
        -14    1    4    4    0    0 -0.25218783798E+02 -0.12575808878E+01 -0.51175592280E+02  0.57065837514E+02  0.00000000000E+00 0.  1.
<mgrwt>
<rscale>  2 0.20453293E+03</rscale>
<asrwt>0</asrwt>
<pdfrwt beam="1">  1       21 0.22601471E-01 0.20512624E+03</pdfrwt>
<pdfrwt beam="2">  1       21 0.72393845E-01 0.20512624E+03</pdfrwt>
<totfact> 0.31339690E+04</totfact>
</mgrwt>
</event>
<event>
12    1  0.1050690E-001  0.1918896E+03  0.7546771E-02  0.1156872E+00
         21   -1    0    0  501  502  0.00000000000E+00  0.00000000000E+00  0.10995969401E+03  0.10995969401E+03  0.00000000000E+00 0.  1.
         21   -1    0    0  502  503 -0.00000000000E+00 -0.00000000000E+00 -0.33529963029E+03  0.33529963029E+03  0.00000000000E+00 0. -1.
         -6    2    1    2    0  503 -0.39412647685E+01 -0.80816412967E+02 -0.99204091202E+02  0.21601639315E+03  0.17399656384E+03 0.  0.
        -24    2    3    3    0    0  0.23291773181E+02  0.18003795947E+02 -0.25624785223E+02  0.89750497862E+02  0.80820040103E+02 0.  0.
          6    2    1    2  501    0  0.39412647685E+01  0.80816412967E+02 -0.12613584508E+03  0.22924293115E+03  0.17347980833E+03 0.  0.
         24    2    5    5    0    0  0.50975830270E+02  0.78868196604E+02 -0.37014506828E+02  0.12834323427E+03  0.79266539983E+02 0.  0.
          5    1    5    5  501    0 -0.47034565501E+02  0.19482163622E+01 -0.89121338250E+02  0.10089969688E+03  0.47000000000E+01 0. -1.
        -13    1    6    6    0    0  0.17731277012E+02  0.68893611409E+02  0.79049049023E+01  0.71576640037E+02  0.00000000000E+00 0.  1.
         14    1    6    6    0    0  0.33244553258E+02  0.99745851953E+01 -0.44919411730E+02  0.56766594237E+02  0.00000000000E+00 0. -1.
         -5    1    3    3    0  503 -0.27233037950E+02 -0.98820208913E+02 -0.73579305979E+02  0.12626589529E+03  0.47000000000E+01 0.  1.
         13    1    4    4    0    0 -0.25642233554E+01  0.37663615374E+02 -0.39312235972E+02  0.54502982135E+02  0.00000000000E+00 0. -1.
        -14    1    4    4    0    0  0.25855996537E+02 -0.19659819428E+02  0.13687450750E+02  0.35247515726E+02  0.00000000000E+00 0.  1.
<mgrwt>
<rscale>  2 0.19177241E+03</rscale>
<asrwt>0</asrwt>
<pdfrwt beam="1">  1       21 0.16916876E-01 0.19188963E+03</pdfrwt>
<pdfrwt beam="2">  1       21 0.51584558E-01 0.19188963E+03</pdfrwt>
<totfact> 0.11241533E+05</totfact>
</mgrwt>
</event>
<event>
12    1  0.1050690E-001  0.2155582E+03  0.7546771E-02  0.1137300E+00
         21   -1    0    0  501  502  0.00000000000E+00  0.00000000000E+00  0.63395114909E+03  0.63395114909E+03  0.00000000000E+00 0. -1.
         21   -1    0    0  502  503 -0.00000000000E+00 -0.00000000000E+00 -0.17241969693E+03  0.17241969693E+03  0.00000000000E+00 0. -1.
         -6    2    1    2    0  503 -0.35798337082E+02 -0.12422055161E+03 -0.75034517710E+02  0.22824445063E+03  0.17249082299E+03 0.  0.
        -24    2    3    3    0    0 -0.78761063235E+02 -0.52043331810E+02 -0.20858776191E+02  0.12818223066E+03  0.84165208047E+02 0.  0.
          6    2    1    2  501    0  0.35798337082E+02  0.12422055161E+03  0.53656596987E+03  0.57812639539E+03  0.17208957737E+03 0.  0.
         24    2    5    5    0    0 -0.17045120413E+02  0.88765404931E+02  0.16314067490E+03  0.19928864733E+03  0.70222873101E+02 0.  0.
          5    1    5    5  501    0  0.52843457495E+02  0.35455146674E+02  0.37342529498E+03  0.37883774806E+03  0.47000000000E+01 0. -1.
        -13    1    6    6    0    0 -0.34846020002E+02  0.41915826167E+02  0.12480947586E+03  0.13619319681E+03  0.00000000000E+00 0.  1.
         14    1    6    6    0    0  0.17800899589E+02  0.46849578764E+02  0.38331199036E+02  0.63095450518E+02  0.00000000000E+00 0. -1.
         -5    1    3    3    0  503  0.42962726153E+02 -0.72177219795E+02 -0.54175741520E+02  0.10006221997E+03  0.47000000000E+01 0.  1.
         11    1    4    4    0    0  0.17469308101E+02 -0.14104668008E+02 -0.84994380890E+01  0.24007474523E+02  0.00000000000E+00 0. -1.
        -12    1    4    4    0    0 -0.96230371336E+02 -0.37938663803E+02 -0.12359338102E+02  0.10417475614E+03  0.00000000000E+00 0.  1.
<mgrwt>
<rscale>  2 0.21547795E+03</rscale>
<asrwt>0</asrwt>
<pdfrwt beam="1">  1       21 0.97530945E-01 0.21555823E+03</pdfrwt>
<pdfrwt beam="2">  1       21 0.26526108E-01 0.21555823E+03</pdfrwt>
<totfact> 0.11596893E+04</totfact>
</mgrwt>
</event>
<event>
12    1  0.1050690E-001  0.1965594E+03  0.7546771E-02  0.1152725E+00
         21   -1    0    0  501  502  0.00000000000E+00  0.00000000000E+00  0.20585444529E+02  0.20585444529E+02  0.00000000000E+00 0.  1.
         21   -1    0    0  502  503 -0.00000000000E+00 -0.00000000000E+00 -0.18746220846E+04  0.18746220846E+04  0.00000000000E+00 0.  1.
         -6    2    1    2    0  503  0.64690428620E+02 -0.65614735504E+02 -0.92581987495E+03  0.94640725668E+03  0.17336121129E+03 0.  0.
        -24    2    3    3    0    0  0.69260234664E+02  0.22345975607E+02 -0.47414508231E+03  0.48620058775E+03  0.79253578569E+02 0.  0.
          6    2    1    2  501    0 -0.64690428620E+02  0.65614735504E+02 -0.92821676517E+03  0.94880027249E+03  0.17362444780E+03 0.  0.
         24    2    5    5    0    0 -0.76419152328E+02  0.29598809284E+02 -0.87854737361E+03  0.88615964383E+03  0.81960053229E+02 0.  0.
          5    1    5    5  501    0  0.11728723708E+02  0.36015926220E+02 -0.49669391556E+02  0.62640628659E+02  0.47000000000E+01 0. -1.
        -11    1    6    6    0    0 -0.59042507455E+02  0.23744737857E+02 -0.27239470300E+03  0.27972969897E+03  0.00000000000E+00 0.  1.
         12    1    6    6    0    0 -0.17376644873E+02  0.58540714271E+01 -0.60615267061E+03  0.60642994486E+03  0.00000000000E+00 0. -1.
         -5    1    3    3    0  503 -0.45698060439E+01 -0.87960711112E+02 -0.45167479264E+03  0.46020666893E+03  0.47000000000E+01 0.  1.
         13    1    4    4    0    0  0.45895048570E+02  0.85713823271E+01 -0.92711624478E+02  0.10380399507E+03  0.00000000000E+00 0. -1.
        -14    1    4    4    0    0  0.23365186094E+02  0.13774593280E+02 -0.38143345783E+03  0.38239659268E+03  0.00000000000E+00 0.  1.
<mgrwt>
<rscale>  2 0.19650124E+03</rscale>
<asrwt>0</asrwt>
<pdfrwt beam="1">  1       21 0.31669920E-02 0.19655939E+03</pdfrwt>
<pdfrwt beam="2">  1       21 0.28840335E+00 0.19655939E+03</pdfrwt>
<totfact> 0.22939343E+04</totfact>
</mgrwt>
</event>
<event>
12    1  0.1050690E-001  0.2293196E+03  0.7546771E-02  0.1127121E+00
         21   -1    0    0  501  502  0.00000000000E+00  0.00000000000E+00  0.51989858142E+03  0.51989858142E+03  0.00000000000E+00 0. -1.
         21   -1    0    0  502  503 -0.00000000000E+00 -0.00000000000E+00 -0.24647489881E+03  0.24647489881E+03  0.00000000000E+00 0.  1.
         -6    2    1    2    0  503 -0.93322731651E+01  0.15002690983E+03  0.43094949371E+03  0.48816156469E+03  0.17317356067E+03 0.  0.
        -24    2    3    3    0    0  0.13415438080E+02  0.21698995946E+02  0.25146773412E+03  0.26630281712E+03  0.83847174647E+02 0.  0.
          6    2    1    2  501    0  0.93322731651E+01 -0.15002690983E+03 -0.15752581110E+03  0.27821191553E+03  0.17318292001E+03 0.  0.
         24    2    5    5    0    0  0.33198799920E+02 -0.19220361348E+02 -0.44115232268E+02  0.10338624917E+03  0.85270042768E+02 0.  0.
          5    1    5    5  501    0 -0.23866526755E+02 -0.13080654848E+03 -0.11341057884E+03  0.17482566636E+03  0.47000000000E+01 0. -1.
        -11    1    6    6    0    0 -0.29119998150E+02 -0.70007742392E+01 -0.12624947855E+02  0.32501914413E+02  0.00000000000E+00 0.  1.
         12    1    6    6    0    0  0.62318798070E+02 -0.12219587109E+02 -0.31490284413E+02  0.70884334760E+02  0.00000000000E+00 0. -1.
         -5    1    3    3    0  503 -0.22747711245E+02  0.12832791389E+03  0.17948175959E+03  0.22185874757E+03  0.47000000000E+01 0.  1.
         13    1    4    4    0    0  0.85681690887E+01  0.31850604936E+02  0.25282893779E+03  0.25497126572E+03  0.00000000000E+00 0. -1.
        -14    1    4    4    0    0  0.48472689915E+01 -0.10151608990E+02 -0.13612036682E+01  0.11331551402E+02  0.00000000000E+00 0.  1.
<mgrwt>
<rscale>  2 0.22931785E+03</rscale>
<asrwt>0</asrwt>
<pdfrwt beam="1">  1       21 0.79984397E-01 0.22931962E+03</pdfrwt>
<pdfrwt beam="2">  1       21 0.37919215E-01 0.22931962E+03</pdfrwt>
<totfact> 0.90046353E+03</totfact>
</mgrwt>
</event>
<event>
11    1  0.1050690E-001  0.1989320E+03  0.7546771E-02  0.1154552E+00
         21   -1    0    0  503  502  0.00000000000E+00  0.00000000000E+00  0.56969189296E+03  0.56969189296E+03  0.00000000000E+00 0.  1.
         21   -1    0    0  501  503 -0.00000000000E+00 -0.00000000000E+00 -0.16317182113E+03  0.16317182113E+03  0.00000000000E+00 0.  1.
          6    2    1    2  501    0 -0.38507916495E+02  0.38031799192E+02 -0.86679448217E+02  0.20105576746E+03  0.17314969680E+03 0.  0.
         24    2    3    3    0    0 -0.19337681554E+02 -0.21468823814E+02 -0.10707632306E+03  0.13513198913E+03  0.77204010271E+02 0.  0.
         -6    2    1    2    0  502  0.38507916495E+02 -0.38031799192E+02  0.49319952005E+03  0.53180794663E+03  0.19142791892E+03 0.  0.
          5    1    3    3  501    0 -0.19170234941E+02  0.59500623006E+02  0.20396874846E+02  0.65923778330E+02  0.47000000000E+01 0. -1.
        -13    1    4    4    0    0 -0.18208730586E+02  0.85375745719E+01 -0.10286262824E+03  0.10481015379E+03  0.00000000000E+00 0.  1.
         14    1    4    4    0    0 -0.11289509676E+01 -0.30006398386E+02 -0.42136948239E+01  0.30321835341E+02  0.00000000000E+00 0. -1.
         -5    1    5    5    0  502 -0.29247044649E+02  0.17899955520E+02  0.52358318309E+02  0.62763695912E+02  0.47000000000E+01 0.  1.
         11    1    5    5    0    0  0.33793094386E+02 -0.84851619239E+02  0.15630859888E+03  0.18103631845E+03  0.00000000000E+00 0. -1.
        -12    1    5    5    0    0  0.33961866758E+02  0.28919864527E+02  0.28453260286E+03  0.28800793227E+03  0.00000000000E+00 0.  1.
<mgrwt>
<rscale>  2 0.19439924E+03</rscale>
<asrwt>0</asrwt>
<pdfrwt beam="1">  1       21 0.87644906E-01 0.19893196E+03</pdfrwt>
<pdfrwt beam="2">  1       21 0.25103357E-01 0.19893196E+03</pdfrwt>
<totfact> 0.16717617E+04</totfact>
</mgrwt>
</event>
<event>
12    1  0.1050690E-001  0.2016715E+03  0.7546771E-02  0.1148438E+00
         21   -1    0    0  503  502  0.00000000000E+00  0.00000000000E+00  0.67635523399E+02  0.67635523399E+02  0.00000000000E+00 0.  1.
         21   -1    0    0  501  503 -0.00000000000E+00 -0.00000000000E+00 -0.60382894916E+03  0.60382894916E+03  0.00000000000E+00 0.  1.
          6    2    1    2  501    0  0.42492582499E+02  0.93631220215E+02 -0.29553742441E+03  0.35779009027E+03  0.17349050263E+03 0.  0.
         24    2    3    3    0    0  0.88106689064E+02  0.32109439211E+02 -0.20431565799E+03  0.23858825755E+03  0.79910348486E+02 0.  0.
         -6    2    1    2    0  502 -0.42492582499E+02 -0.93631220215E+02 -0.24065600135E+03  0.31367438229E+03  0.17292738982E+03 0.  0.
        -24    2    5    5    0    0 -0.49319227472E+02 -0.46805464036E+02 -0.47820156311E+02  0.11506167460E+03  0.79556797008E+02 0.  0.
          5    1    3    3  501    0 -0.45614106566E+02  0.61521781004E+02 -0.91221766418E+02  0.11920183272E+03  0.47000000000E+01 0. -1.
        -13    1    4    4    0    0  0.22583772230E+02  0.50017714457E+02 -0.81836200495E+02  0.98534066389E+02  0.00000000000E+00 0.  1.
         14    1    4    4    0    0  0.65522916834E+02 -0.17908275246E+02 -0.12247945750E+03  0.14005419116E+03  0.00000000000E+00 0. -1.
         -5    1    5    5    0  502  0.68266449730E+01 -0.46825756179E+02 -0.19283584504E+03  0.19861270769E+03  0.47000000000E+01 0.  1.
         11    1    6    6    0    0 -0.54657464637E+02  0.43981367520E+00 -0.13153584066E+02  0.56219646480E+02  0.00000000000E+00 0. -1.
        -12    1    6    6    0    0  0.53382371653E+01 -0.47245277711E+02 -0.34666572245E+02  0.58842028120E+02  0.00000000000E+00 0.  1.
<mgrwt>
<rscale>  2 0.20155030E+03</rscale>
<asrwt>0</asrwt>
<pdfrwt beam="1">  1       21 0.10405465E-01 0.20167146E+03</pdfrwt>
<pdfrwt beam="2">  1       21 0.92896759E-01 0.20167146E+03</pdfrwt>
<totfact> 0.73518028E+04</totfact>
</mgrwt>
</event>
<event>
12    1  0.1050690E-001  0.2238107E+03  0.7546771E-02  0.1131776E+00
         21   -1    0    0  503  502  0.00000000000E+00  0.00000000000E+00  0.96983506688E+02  0.96983506688E+02  0.00000000000E+00 0. -1.
         21   -1    0    0  501  503 -0.00000000000E+00 -0.00000000000E+00 -0.93358043670E+03  0.93358043670E+03  0.00000000000E+00 0. -1.
          6    2    1    2  501    0  0.13168686374E+03  0.32379654150E+02 -0.68327322532E+02  0.23035808767E+03  0.17322342066E+03 0.  0.
         24    2    3    3    0    0  0.15316560653E+03  0.42511594027E+02 -0.24153966425E+02  0.17998579382E+03  0.80898289445E+02 0.  0.
         -6    2    1    2    0  502 -0.13168686374E+03 -0.32379654150E+02 -0.76826960748E+03  0.80020585572E+03  0.17804872834E+03 0.  0.
        -24    2    5    5    0    0 -0.50216915407E+02  0.49571142730E+02 -0.42996246457E+03  0.44267669812E+03  0.78204228363E+02 0.  0.
          5    1    3    3  501    0 -0.21478742790E+02 -0.10131939877E+02 -0.44173356107E+02  0.50372293845E+02  0.47000000000E+01 0. -1.
        -11    1    4    4    0    0  0.31898514891E+02  0.31304211030E+02  0.21918399464E+02  0.49778359912E+02  0.00000000000E+00 0.  1.
         12    1    4    4    0    0  0.12126709164E+03  0.11207382997E+02 -0.46072365889E+02  0.13020743391E+03  0.00000000000E+00 0. -1.
         -5    1    5    5    0  502 -0.81469948329E+02 -0.81950796880E+02 -0.33830714292E+03  0.35752915761E+03  0.47000000000E+01 0.  1.
         11    1    6    6    0    0 -0.58666693485E+02  0.88518385678E+01 -0.31218189795E+03  0.31776984341E+03  0.00000000000E+00 0. -1.
        -12    1    6    6    0    0  0.84497780779E+01  0.40719304162E+02 -0.11778056662E+03  0.12490685471E+03  0.00000000000E+00 0.  1.
<mgrwt>
<rscale>  2 0.22284970E+03</rscale>
<asrwt>0</asrwt>
<pdfrwt beam="1">  1       21 0.14920539E-01 0.22381068E+03</pdfrwt>
<pdfrwt beam="2">  1       21 0.14362776E+00 0.22381068E+03</pdfrwt>
<totfact> 0.12982327E+04</totfact>
</mgrwt>
</event>
<event>
12    1  0.1050690E-001  0.1753334E+03  0.7546771E-02  0.1173244E+00
         21   -1    0    0  503  502  0.00000000000E+00  0.00000000000E+00  0.14024412063E+04  0.14024412063E+04  0.00000000000E+00 0.  1.
         21   -1    0    0  501  503 -0.00000000000E+00 -0.00000000000E+00 -0.51393708202E+02  0.51393708202E+02  0.00000000000E+00 0.  1.
          6    2    1    2  501    0  0.29839014709E+02  0.45098850906E+01  0.12389694477E+03  0.21469106038E+03  0.17271679889E+03 0.  0.
         24    2    3    3    0    0  0.45010818092E+00  0.61073592677E+02  0.36410829751E+02  0.10634406612E+03  0.79076706786E+02 0.  0.
         -6    2    1    2    0  502 -0.29839014709E+02 -0.45098850906E+01  0.12271505533E+04  0.12391438541E+04  0.16931717227E+03 0.  0.
        -24    2    5    5    0    0 -0.76789523571E+02 -0.31537513773E+02  0.88440500959E+03  0.89211152027E+03  0.82459067985E+02 0.  0.
          5    1    3    3  501    0  0.29388906528E+02 -0.56563707586E+02  0.87486115022E+02  0.10834699426E+03  0.47000000000E+01 0. -1.
        -11    1    4    4    0    0  0.21731078859E+02  0.60664093928E+02  0.31469444663E+00  0.64439670336E+02  0.00000000000E+00 0.  1.
         12    1    4    4    0    0 -0.21280970678E+02  0.40949874912E+00  0.36096135304E+02  0.41904395785E+02  0.00000000000E+00 0. -1.
         -5    1    5    5    0  502  0.46950508862E+02  0.27027628682E+02  0.34274554369E+03  0.34703233381E+03  0.47000000000E+01 0.  1.
         11    1    6    6    0    0 -0.46716504766E+02 -0.45326537229E+01  0.16428842062E+03  0.17086152849E+03  0.00000000000E+00 0. -1.
        -12    1    6    6    0    0 -0.30073018805E+02 -0.27004860050E+02  0.72011658897E+03  0.72124999178E+03  0.00000000000E+00 0.  1.
<mgrwt>
<rscale>  2 0.17449036E+03</rscale>
<asrwt>0</asrwt>
<pdfrwt beam="1">  1       21 0.21576016E+00 0.17533339E+03</pdfrwt>
<pdfrwt beam="2">  1       21 0.79067254E-02 0.17533339E+03</pdfrwt>
<totfact> 0.13283281E+04</totfact>
</mgrwt>
</event>
<event>
12    1  0.1050690E-001  0.1876938E+03  0.7546771E-02  0.1161102E+00
         21   -1    0    0  503  502  0.00000000000E+00  0.00000000000E+00  0.62411962886E+02  0.62411962886E+02  0.00000000000E+00 0. -1.
         21   -1    0    0  501  503 -0.00000000000E+00 -0.00000000000E+00 -0.59620010214E+03  0.59620010214E+03  0.00000000000E+00 0. -1.
          6    2    1    2  501    0  0.23826090170E+02 -0.61597872569E+02 -0.34934047738E+03  0.39545830099E+03  0.17316615780E+03 0.  0.
         24    2    3    3    0    0  0.82628328265E+02 -0.41731303289E+02 -0.24642436877E+03  0.27518278731E+03  0.80197597229E+02 0.  0.
         -6    2    1    2    0  502 -0.23826090170E+02  0.61597872569E+02 -0.18444766188E+03  0.26315376404E+03  0.17569001986E+03 0.  0.
        -24    2    5    5    0    0 -0.24275043094E+02  0.81335945959E+02 -0.47689499999E+02  0.12489792170E+03  0.78232912595E+02 0.  0.
          5    1    3    3  501    0 -0.58802238094E+02 -0.19866569280E+02 -0.10291610861E+03  0.12027551368E+03  0.47000000000E+01 0. -1.
        -13    1    4    4    0    0  0.61243392557E+02 -0.67194976866E+01 -0.66556842917E+02  0.90695744774E+02  0.00000000000E+00 0.  1.
         14    1    4    4    0    0  0.21384935708E+02 -0.35011805602E+02 -0.17986752585E+03  0.18448704253E+03  0.00000000000E+00 0. -1.
         -5    1    5    5    0  502  0.44895292311E+00 -0.19738073390E+02 -0.13675816188E+03  0.13825584234E+03  0.47000000000E+01 0.  1.
         11    1    6    6    0    0  0.58791775153E+01  0.84835407119E+02 -0.36572405788E+02  0.92569713700E+02  0.00000000000E+00 0. -1.
        -12    1    6    6    0    0 -0.30154220609E+02 -0.34994611600E+01 -0.11117094211E+02  0.32328208002E+02  0.00000000000E+00 0.  1.
<mgrwt>
<rscale>  2 0.18710092E+03</rscale>
<asrwt>0</asrwt>
<pdfrwt beam="1">  1       21 0.96018399E-02 0.18769380E+03</pdfrwt>
<pdfrwt beam="2">  1       21 0.91723098E-01 0.18769380E+03</pdfrwt>
<totfact> 0.87826480E+04</totfact>
</mgrwt>
</event>
<event>
12    1  0.1050690E-001  0.1741936E+03  0.7546771E-02  0.1173715E+00
         21   -1    0    0  503  502  0.00000000000E+00  0.00000000000E+00  0.11588473705E+03  0.11588473705E+03  0.00000000000E+00 0. -1.
         21   -1    0    0  501  503 -0.00000000000E+00 -0.00000000000E+00 -0.31585838209E+03  0.31585838209E+03  0.00000000000E+00 0. -1.
          6    2    1    2  501    0  0.12720868163E+02  0.81579941920E+01 -0.18993402445E+03  0.25726047328E+03  0.17285729407E+03 0.  0.
         24    2    3    3    0    0  0.56258584660E+02 -0.39174013796E+02 -0.91590536486E+02  0.13966207464E+03  0.80106410574E+02 0.  0.
         -6    2    1    2    0  502 -0.12720868163E+02 -0.81579941920E+01 -0.10039620591E+02  0.17448264585E+03  0.17353681559E+03 0.  0.
        -24    2    5    5    0    0 -0.19501223245E+01 -0.64486185696E+02  0.26115230370E+02  0.10652576708E+03  0.80644049204E+02 0.  0.
          5    1    3    3  501    0 -0.43537716498E+02  0.47332007988E+02 -0.98343487962E+02  0.11759839864E+03  0.47000000000E+01 0. -1.
        -11    1    4    4    0    0  0.16066089588E+02 -0.17990105915E+02  0.11709762346E+02  0.26811968963E+02  0.00000000000E+00 0.  1.
         12    1    4    4    0    0  0.40192495073E+02 -0.21183907881E+02 -0.10330029883E+03  0.11285010568E+03  0.00000000000E+00 0. -1.
         -5    1    5    5    0  502 -0.10770745838E+02  0.56328191504E+02 -0.36154850962E+02  0.67956878769E+02  0.47000000000E+01 0.  1.
         13    1    6    6    0    0 -0.62788192708E+01 -0.91812806433E+01  0.46205817539E+02  0.47525751547E+02  0.00000000000E+00 0. -1.
        -14    1    6    6    0    0  0.43286969463E+01 -0.55304905053E+02 -0.20090587169E+02  0.59000015533E+02  0.00000000000E+00 0.  1.
<mgrwt>
<rscale>  2 0.17402409E+03</rscale>
<asrwt>0</asrwt>
<pdfrwt beam="1">  1       21 0.17828421E-01 0.17419357E+03</pdfrwt>
<pdfrwt beam="2">  1       21 0.48593598E-01 0.17419357E+03</pdfrwt>
<totfact> 0.11632707E+05</totfact>
</mgrwt>
</event>
<event>
12    1  0.1050690E-001  0.2695796E+03  0.7546771E-02  0.1101618E+00
         21   -1    0    0  501  502  0.00000000000E+00  0.00000000000E+00  0.40071160596E+03  0.40071160596E+03  0.00000000000E+00 0.  1.
         21   -1    0    0  502  503 -0.00000000000E+00 -0.00000000000E+00 -0.38155232099E+03  0.38155232099E+03  0.00000000000E+00 0.  1.
         -6    2    1    2    0  503 -0.20406977486E+03  0.83120662099E+01 -0.27405249974E+03  0.38441893394E+03  0.17595334810E+03 0.  0.
        -24    2    3    3    0    0 -0.27308180674E+02 -0.13670408957E+02 -0.12573479565E+03  0.15258252235E+03  0.80867610813E+02 0.  0.
          6    2    1    2  501    0  0.20406977486E+03 -0.83120662099E+01  0.29321178471E+03  0.39784499301E+03  0.17491118979E+03 0.  0.
         24    2    5    5    0    0  0.17152583118E+03 -0.53204680961E+02  0.27765483418E+03  0.34006468634E+03  0.79372130582E+02 0.  0.
          5    1    5    5  501    0  0.32543943678E+02  0.44892614751E+02  0.15556950530E+02  0.57780306672E+02  0.47000000000E+01 0. -1.
        -13    1    6    6    0    0  0.56616533569E+02  0.10274210974E+02  0.13190733696E+03  0.14391155905E+03  0.00000000000E+00 0.  1.
         14    1    6    6    0    0  0.11490929761E+03 -0.63478891935E+02  0.14574749721E+03  0.19615312728E+03  0.00000000000E+00 0. -1.
         -5    1    3    3    0  503 -0.17676159418E+03  0.21982475167E+02 -0.14831770409E+03  0.23183641159E+03  0.47000000000E+01 0.  1.
         11    1    4    4    0    0  0.13629701583E+02 -0.33001717287E+02 -0.29820150931E+02  0.46520140914E+02  0.00000000000E+00 0. -1.
        -12    1    4    4    0    0 -0.40937882257E+02  0.19331308330E+02 -0.95914644717E+02  0.10606238144E+03  0.00000000000E+00 0.  1.
<mgrwt>
<rscale>  2 0.26940965E+03</rscale>
<asrwt>0</asrwt>
<pdfrwt beam="1">  1       21 0.61647940E-01 0.26957957E+03</pdfrwt>
<pdfrwt beam="2">  1       21 0.58700357E-01 0.26957957E+03</pdfrwt>
<totfact> 0.63159708E+03</totfact>
</mgrwt>
</event>
<event>
12    1  0.1050690E-001  0.2434232E+03  0.7546771E-02  0.1117732E+00
         21   -1    0    0  503  502  0.00000000000E+00  0.00000000000E+00  0.23743063068E+03  0.23743063068E+03  0.00000000000E+00 0.  1.
         21   -1    0    0  501  503 -0.00000000000E+00 -0.00000000000E+00 -0.30637009847E+03  0.30637009847E+03  0.00000000000E+00 0.  1.
          6    2    1    2  501    0  0.16705818288E+03 -0.22473781493E+01 -0.15275078056E+03  0.28635323842E+03  0.17536216530E+03 0.  0.
         24    2    3    3    0    0  0.13857260038E+03 -0.12458481778E+02 -0.18046850642E+03  0.24504879103E+03  0.90124629427E+02 0.  0.
         -6    2    1    2    0  502 -0.16705818288E+03  0.22473781493E+01  0.83811312768E+02  0.25744749072E+03  0.17703498851E+03 0.  0.
        -24    2    5    5    0    0 -0.15071480455E+03 -0.20319047544E+02  0.12116015860E+03  0.21061399983E+03  0.80936128464E+02 0.  0.
          5    1    3    3  501    0  0.28485582496E+02  0.10211103629E+02  0.27717725864E+02  0.41304447394E+02  0.47000000000E+01 0. -1.
        -11    1    4    4    0    0  0.11680654503E+03  0.11182891510E+02 -0.86613769380E+02  0.14584502416E+03  0.00000000000E+00 0.  1.
         12    1    4    4    0    0  0.21766055351E+02 -0.23641373289E+02 -0.93854737042E+02  0.99203766873E+02  0.00000000000E+00 0. -1.
         -5    1    5    5    0  502 -0.16343378333E+02  0.22566425694E+02 -0.37348845833E+02  0.46833490890E+02  0.47000000000E+01 0.  1.
         13    1    6    6    0    0 -0.65481582960E+02 -0.14476057628E+02  0.61494644360E+01  0.67343966799E+02  0.00000000000E+00 0. -1.
        -14    1    6    6    0    0 -0.85233221588E+02 -0.58429899162E+01  0.11501069416E+03  0.14327003303E+03  0.00000000000E+00 0.  1.
<mgrwt>
<rscale>  2 0.24311920E+03</rscale>
<asrwt>0</asrwt>
<pdfrwt beam="1">  1       21 0.36527789E-01 0.24342324E+03</pdfrwt>
<pdfrwt beam="2">  1       21 0.47133861E-01 0.24342324E+03</pdfrwt>
<totfact> 0.30342772E+04</totfact>
</mgrwt>
</event>
<event>
11    1  0.1050690E-001  0.1937978E+03  0.7546771E-02  0.1155309E+00
         21   -1    0    0  503  502  0.00000000000E+00  0.00000000000E+00  0.88026566849E+02  0.88026566849E+02  0.00000000000E+00 0.  1.
         21   -1    0    0  501  503 -0.00000000000E+00 -0.00000000000E+00 -0.50459483326E+03  0.50459483326E+03  0.00000000000E+00 0.  1.
          6    2    1    2  501    0  0.56899565114E+02 -0.66165062157E+02 -0.32595744936E+03  0.37868706540E+03  0.17187279817E+03 0.  0.
         24    2    3    3    0    0  0.19238540065E+02  0.28340220137E+02 -0.19102572571E+03  0.20963600437E+03  0.79266240882E+02 0.  0.
         -6    2    1    2    0  502 -0.56899565114E+02  0.66165062157E+02 -0.90610817051E+02  0.21393433471E+03  0.17303815602E+03 0.  0.
          5    1    3    3  501    0  0.37661025049E+02 -0.94505282294E+02 -0.13493172365E+03  0.16905106104E+03  0.47000000000E+01 0. -1.
        -13    1    4    4    0    0  0.12107187480E+01 -0.18205661632E+02 -0.12773014804E+03  0.12902675178E+03  0.00000000000E+00 0.  1.
         14    1    4    4    0    0  0.18027821317E+02  0.46545881769E+02 -0.63295577666E+02  0.80609252591E+02  0.00000000000E+00 0. -1.
         -5    1    5    5    0  502 -0.19970808132E+02  0.29004267021E+02  0.62949908986E+01  0.36080432277E+02  0.47000000000E+01 0.  1.
         13    1    5    5    0    0  0.50027875333E+02  0.70264109284E+00 -0.13139996879E+02  0.51729503505E+02  0.00000000000E+00 0. -1.
        -14    1    5    5    0    0 -0.86956632315E+02  0.36458154043E+02 -0.83765811070E+02  0.12612439892E+03  0.00000000000E+00 0.  1.
<mgrwt>
<rscale>  2 0.19353730E+03</rscale>
<asrwt>0</asrwt>
<pdfrwt beam="1">  1       21 0.13542549E-01 0.19379778E+03</pdfrwt>
<pdfrwt beam="2">  1       21 0.77629976E-01 0.19379778E+03</pdfrwt>
<totfact> 0.69462636E+04</totfact>
</mgrwt>
</event>
<event>
12    1  0.1050690E-001  0.2129591E+03  0.7546771E-02  0.1139643E+00
         21   -1    0    0  501  502  0.00000000000E+00  0.00000000000E+00  0.27548482310E+03  0.27548482310E+03  0.00000000000E+00 0.  1.
         21   -1    0    0  502  503 -0.00000000000E+00 -0.00000000000E+00 -0.36653794477E+03  0.36653794477E+03  0.00000000000E+00 0.  1.
         -6    2    1    2    0  503  0.23490451523E+02 -0.11760672571E+03 -0.28480633108E+03  0.35562088934E+03  0.17597848582E+03 0.  0.
        -24    2    3    3    0    0  0.62591070065E+02 -0.14820123859E+02 -0.11282284616E+03  0.15142893805E+03  0.77874582108E+02 0.  0.
          6    2    1    2  501    0 -0.23490451523E+02  0.11760672571E+03  0.19375320940E+03  0.28640187853E+03  0.17350097011E+03 0.  0.
         24    2    5    5    0    0  0.51463608745E+02  0.73775814490E+02  0.86656262152E+02  0.14844860369E+03  0.80226593715E+02 0.  0.
          5    1    5    5  501    0 -0.74954060268E+02  0.43830911222E+02  0.10709694725E+03  0.13795327484E+03  0.47000000000E+01 0. -1.
        -13    1    6    6    0    0  0.51871048969E+02  0.16254130092E+02  0.69873073998E+02  0.88527108481E+02  0.00000000000E+00 0.  1.
         14    1    6    6    0    0 -0.40744022448E+00  0.57521684398E+02  0.16783188154E+02  0.59921495210E+02  0.00000000000E+00 0. -1.
         -5    1    3    3    0  503 -0.39100618542E+02 -0.10278660185E+03 -0.17198348492E+03  0.20419195130E+03  0.47000000000E+01 0.  1.
         11    1    4    4    0    0  0.76301443822E+02 -0.28486193004E+02 -0.94775416382E+02  0.12496300681E+03  0.00000000000E+00 0. -1.
        -12    1    4    4    0    0 -0.13710373756E+02  0.13666069145E+02 -0.18047429779E+02  0.26465931233E+02  0.00000000000E+00 0.  1.
<mgrwt>
<rscale>  2 0.21244657E+03</rscale>
<asrwt>0</asrwt>
<pdfrwt beam="1">  1       21 0.42382280E-01 0.21295908E+03</pdfrwt>
<pdfrwt beam="2">  1       21 0.56390453E-01 0.21295908E+03</pdfrwt>
<totfact> 0.15648095E+04</totfact>
</mgrwt>
</event>
<event>
12    1  0.1050690E-001  0.2182111E+03  0.7546771E-02  0.1135445E+00
         21   -1    0    0  503  502  0.00000000000E+00  0.00000000000E+00  0.14418095633E+03  0.14418095633E+03  0.00000000000E+00 0. -1.
         21   -1    0    0  501  503 -0.00000000000E+00 -0.00000000000E+00 -0.36504776589E+03  0.36504776589E+03  0.00000000000E+00 0.  1.
          6    2    1    2  501    0  0.45957459100E+02 -0.12485077235E+03 -0.19075227906E+03  0.28894941352E+03  0.17148040180E+03 0.  0.
         24    2    3    3    0    0 -0.13957189984E+02 -0.11425314325E+02 -0.11082910787E+03  0.13773796224E+03  0.79770383803E+02 0.  0.
         -6    2    1    2    0  502 -0.45957459100E+02  0.12485077235E+03 -0.30114530492E+02  0.22027930870E+03  0.17296324897E+03 0.  0.
        -24    2    5    5    0    0 -0.70812945643E+02  0.48903152007E+02 -0.67758128199E+02  0.13182046689E+03  0.73344938525E+02 0.  0.
          5    1    3    3  501    0  0.59914649084E+02 -0.11342545802E+03 -0.79923171196E+02  0.15121145127E+03  0.47000000000E+01 0. -1.
        -11    1    4    4    0    0 -0.11296513834E+02 -0.44513874927E+02 -0.46537109112E+02  0.65381945599E+02  0.00000000000E+00 0.  1.
         12    1    4    4    0    0 -0.26606761500E+01  0.33088560602E+02 -0.64291998755E+02  0.72356016642E+02  0.00000000000E+00 0. -1.
         -5    1    5    5    0  502  0.24855486542E+02  0.75947620341E+02  0.37643597707E+02  0.88458841814E+02  0.47000000000E+01 0.  1.
         13    1    6    6    0    0 -0.55143427695E+01  0.24550159477E+02  0.10290759896E+02  0.27184886348E+02  0.00000000000E+00 0. -1.
        -14    1    6    6    0    0 -0.65298602873E+02  0.24352992530E+02 -0.78048888096E+02  0.10463558054E+03  0.00000000000E+00 0.  1.
<mgrwt>
<rscale>  2 0.21791715E+03</rscale>
<asrwt>0</asrwt>
<pdfrwt beam="1">  1       21 0.22181686E-01 0.21821111E+03</pdfrwt>
<pdfrwt beam="2">  1       21 0.56161193E-01 0.21821111E+03</pdfrwt>
<totfact> 0.56046751E+04</totfact>
</mgrwt>
</event>
<event>
12    1  0.1050690E-001  0.2864132E+03  0.7546771E-02  0.1092342E+00
         21   -1    0    0  501  502  0.00000000000E+00  0.00000000000E+00  0.22374053825E+03  0.22374053825E+03  0.00000000000E+00 0.  1.
         21   -1    0    0  502  503 -0.00000000000E+00 -0.00000000000E+00 -0.48019336094E+03  0.48019336094E+03  0.00000000000E+00 0. -1.
         -6    2    1    2    0  503  0.16070987259E+03  0.16081732306E+03 -0.30001014309E+03  0.41422755755E+03  0.17288293419E+03 0.  0.
        -24    2    3    3    0    0  0.11404295106E+03  0.16385120759E+03 -0.29732480270E+03  0.36714988690E+03  0.80894920976E+02 0.  0.
          6    2    1    2  501    0 -0.16070987259E+03 -0.16081732306E+03  0.43557320387E+02  0.28970634164E+03  0.17419141680E+03 0.  0.
         24    2    5    5    0    0 -0.14254095546E+03 -0.64641291950E+02  0.66484704233E+02  0.18906989974E+03  0.82648596366E+02 0.  0.
          5    1    5    5  501    0 -0.18168917129E+02 -0.96176031109E+02 -0.22927383846E+02  0.10063644191E+03  0.47000000000E+01 0. -1.
        -11    1    6    6    0    0 -0.10179087799E+03 -0.39633485601E+02  0.25877184833E+01  0.10926523835E+03  0.00000000000E+00 0.  1.
         12    1    6    6    0    0 -0.40750077464E+02 -0.25007806349E+02  0.63896985750E+02  0.79804661390E+02  0.00000000000E+00 0. -1.
         -5    1    3    3    0  503  0.46666921530E+02 -0.30338845327E+01 -0.26853403912E+01  0.47077670646E+02  0.47000000000E+01 0.  1.
         11    1    4    4    0    0  0.70287579427E+02  0.33426711264E+02 -0.10749493478E+03  0.13271341248E+03  0.00000000000E+00 0. -1.
        -12    1    4    4    0    0  0.43755371630E+02  0.13042449633E+03 -0.18982986792E+03  0.23443647443E+03  0.00000000000E+00 0.  1.
<mgrwt>
<rscale>  2 0.28621452E+03</rscale>
<asrwt>0</asrwt>
<pdfrwt beam="1">  1       21 0.34421621E-01 0.28641321E+03</pdfrwt>
<pdfrwt beam="2">  1       21 0.73875902E-01 0.28641321E+03</pdfrwt>
<totfact> 0.12695153E+04</totfact>
</mgrwt>
</event>
<event>
12    1  0.1050690E-001  0.2815072E+03  0.7546771E-02  0.1094870E+00
         21   -1    0    0  501  502  0.00000000000E+00  0.00000000000E+00  0.34938901211E+03  0.34938901211E+03  0.00000000000E+00 0. -1.
         21   -1    0    0  502  503 -0.00000000000E+00 -0.00000000000E+00 -0.39498188614E+03  0.39498188614E+03  0.00000000000E+00 0. -1.
         -6    2    1    2    0  503 -0.12031660460E+03 -0.18592571322E+03 -0.26565529253E+03  0.38706461309E+03  0.17378672008E+03 0.  0.
        -24    2    3    3    0    0 -0.71720847052E+02 -0.68936386061E+02 -0.50320615348E+02  0.13718631568E+03  0.79948831479E+02 0.  0.
          6    2    1    2  501    0  0.12031660460E+03  0.18592571322E+03  0.22006241849E+03  0.35730628516E+03  0.17376955199E+03 0.  0.
         24    2    5    5    0    0  0.23970863498E+02  0.11335084049E+03  0.51633466765E+02  0.15008655694E+03  0.80230569907E+02 0.  0.
          5    1    5    5  501    0  0.96345741100E+02  0.72574872730E+02  0.16842895173E+03  0.20721972821E+03  0.47000000000E+01 0. -1.
        -13    1    6    6    0    0 -0.29637834881E+02  0.35507116796E+02  0.20311109095E+02  0.50514332147E+02  0.00000000000E+00 0.  1.
         14    1    6    6    0    0  0.53608698379E+02  0.77843723698E+02  0.31322357670E+02  0.99572224797E+02  0.00000000000E+00 0. -1.
         -5    1    3    3    0  503 -0.48595757546E+02 -0.11698932716E+03 -0.21533467718E+03  0.24987829741E+03  0.47000000000E+01 0.  1.
         11    1    4    4    0    0 -0.24960473152E+02 -0.44112132422E+02 -0.64831559837E+02  0.82292384810E+02  0.00000000000E+00 0. -1.
        -12    1    4    4    0    0 -0.46760373900E+02 -0.24824253639E+02  0.14510944489E+02  0.54893930866E+02  0.00000000000E+00 0.  1.
<mgrwt>
<rscale>  2 0.28150451E+03</rscale>
<asrwt>0</asrwt>
<pdfrwt beam="1">  1       21 0.53752156E-01 0.28150716E+03</pdfrwt>
<pdfrwt beam="2">  1       21 0.60766444E-01 0.28150716E+03</pdfrwt>
<totfact> 0.78203419E+03</totfact>
</mgrwt>
</event>
<event>
12    1  0.1050690E-001  0.2860069E+03  0.7546771E-02  0.1092540E+00
         21   -1    0    0  501  502  0.00000000000E+00  0.00000000000E+00  0.32070761932E+03  0.32070761932E+03  0.00000000000E+00 0. -1.
         21   -1    0    0  502  503 -0.00000000000E+00 -0.00000000000E+00 -0.58640132824E+03  0.58640132824E+03  0.00000000000E+00 0.  1.
         -6    2    1    2    0  503  0.52193931967E+02 -0.21952820064E+03 -0.47401575839E+03  0.55327559518E+03  0.17465997712E+03 0.  0.
        -24    2    3    3    0    0  0.83553672377E+02 -0.21929825846E+03 -0.37900151840E+03  0.45310932345E+03  0.81197079452E+02 0.  0.
          6    2    1    2  501    0 -0.52193931967E+02  0.21952820064E+03  0.20832204948E+03  0.35383335238E+03  0.17573595973E+03 0.  0.
         24    2    5    5    0    0 -0.69071526276E+02  0.88439387585E+02  0.48092508432E+02  0.14607212904E+03  0.80198357193E+02 0.  0.
          5    1    5    5  501    0  0.16877594309E+02  0.13108881306E+03  0.16022954105E+03  0.20776122334E+03  0.47000000000E+01 0. -1.
        -13    1    6    6    0    0 -0.46482807241E+02  0.65703185629E+02 -0.86061178451E+01  0.80942110394E+02  0.00000000000E+00 0.  1.
         14    1    6    6    0    0 -0.22588719035E+02  0.22736201956E+02  0.56698626277E+02  0.65130018645E+02  0.00000000000E+00 0. -1.
         -5    1    3    3    0  503 -0.31359740410E+02 -0.22994217952E+00 -0.95014239989E+02  0.10016627173E+03  0.47000000000E+01 0.  1.
         11    1    4    4    0    0  0.71377638523E+01 -0.54185933558E+01 -0.64793191635E+02  0.65409987838E+02  0.00000000000E+00 0. -1.
        -12    1    4    4    0    0  0.76415908525E+02 -0.21387966511E+03 -0.31420832677E+03  0.38769933561E+03  0.00000000000E+00 0.  1.
<mgrwt>
<rscale>  2 0.28584182E+03</rscale>
<asrwt>0</asrwt>
<pdfrwt beam="1">  1       21 0.49339634E-01 0.28600693E+03</pdfrwt>
<pdfrwt beam="2">  1       21 0.90215588E-01 0.28600693E+03</pdfrwt>
<totfact> 0.38396167E+03</totfact>
</mgrwt>
</event>
<event>
12    1  0.1050690E-001  0.1786937E+03  0.7546771E-02  0.1169514E+00
         21   -1    0    0  503  502  0.00000000000E+00  0.00000000000E+00  0.46250239849E+03  0.46250239849E+03  0.00000000000E+00 0.  1.
         21   -1    0    0  501  503 -0.00000000000E+00 -0.00000000000E+00 -0.71281450711E+02  0.71281450711E+02  0.00000000000E+00 0.  1.
          6    2    1    2  501    0 -0.26512488104E+01 -0.37763319515E+02  0.14242495451E+03  0.22850886390E+03  0.17463772729E+03 0.  0.
         24    2    3    3    0    0  0.46294810177E+02 -0.11210629218E+02  0.14596301843E+03  0.17251448964E+03  0.78658494323E+02 0.  0.
         -6    2    1    2    0  502  0.26512488104E+01  0.37763319515E+02  0.24879599327E+03  0.30527498530E+03  0.17280125278E+03 0.  0.
        -24    2    5    5    0    0  0.56903828812E+02  0.11038003974E+02  0.21422755119E+03  0.23545627638E+03  0.78653233450E+02 0.  0.
          5    1    3    3  501    0 -0.48946058987E+02 -0.26552690297E+02 -0.35380639258E+01  0.55994374259E+02  0.47000000000E+01 0. -1.
        -13    1    4    4    0    0  0.59311267477E+01 -0.32514457311E+02  0.10863969663E+03  0.11355594165E+03  0.00000000000E+00 0.  1.
         14    1    4    4    0    0  0.40363683429E+02  0.21303828093E+02  0.37323321800E+02  0.58958547994E+02  0.00000000000E+00 0. -1.
         -5    1    5    5    0  502 -0.54252580002E+02  0.26725315540E+02  0.34568442078E+02  0.69818708920E+02  0.47000000000E+01 0.  1.
         13    1    6    6    0    0 -0.32015292434E+01 -0.18705239316E+02  0.10925451911E+03  0.11089042210E+03  0.00000000000E+00 0. -1.
        -14    1    6    6    0    0  0.60105358055E+02  0.29743243290E+02  0.10497303208E+03  0.12456585428E+03  0.00000000000E+00 0.  1.
<mgrwt>
<rscale>  2 0.17824340E+03</rscale>
<asrwt>0</asrwt>
<pdfrwt beam="1">  1       21 0.71154213E-01 0.17869369E+03</pdfrwt>
<pdfrwt beam="2">  1       21 0.10966377E-01 0.17869369E+03</pdfrwt>
<totfact> 0.12377439E+05</totfact>
</mgrwt>
</event>
<event>
12    1  0.1050690E-001  0.2146087E+03  0.7546771E-02  0.1139764E+00
         21   -1    0    0  503  502  0.00000000000E+00  0.00000000000E+00  0.33244580110E+02  0.33244580110E+02  0.00000000000E+00 0. -1.
         21   -1    0    0  501  503 -0.00000000000E+00 -0.00000000000E+00 -0.15283856763E+04  0.15283856763E+04  0.00000000000E+00 0. -1.
          6    2    1    2  501    0  0.79050083792E+02 -0.80542927433E+02 -0.10449222147E+04  0.10667330105E+04  0.18253986370E+03 0.  0.
         24    2    3    3    0    0  0.26469211783E+02  0.16005764535E+00 -0.78320606185E+03  0.78781518280E+03  0.80872629128E+02 0.  0.
         -6    2    1    2    0  502 -0.79050083792E+02  0.80542927433E+02 -0.45021888148E+03  0.49489724598E+03  0.17172700409E+03 0.  0.
        -24    2    5    5    0    0 -0.11535108260E+03  0.80025396248E+02 -0.31293307168E+03  0.35281447459E+03  0.82710397359E+02 0.  0.
          5    1    3    3  501    0  0.52580872008E+02 -0.80702985079E+02 -0.26171615288E+03  0.27891782765E+03  0.47000000000E+01 0. -1.
        -11    1    4    4    0    0  0.63682320476E+01  0.32093806713E+02 -0.15197331819E+03  0.15545564078E+03  0.00000000000E+00 0.  1.
         12    1    4    4    0    0  0.20100979736E+02 -0.31933749068E+02 -0.63123274366E+03  0.63235954202E+03  0.00000000000E+00 0. -1.
         -5    1    5    5    0  502  0.36300998804E+02  0.51753118552E+00 -0.13728580981E+03  0.14208277140E+03  0.47000000000E+01 0.  1.
         13    1    6    6    0    0 -0.20164799988E+02  0.33535656071E+02 -0.26078699776E+02  0.47025078083E+02  0.00000000000E+00 0. -1.
        -14    1    6    6    0    0 -0.95186282607E+02  0.46489740177E+02 -0.28685437190E+03  0.30578939651E+03  0.00000000000E+00 0.  1.
<mgrwt>
<rscale>  2 0.21229182E+03</rscale>
<asrwt>0</asrwt>
<pdfrwt beam="1">  1       21 0.51145499E-02 0.21460867E+03</pdfrwt>
<pdfrwt beam="2">  1       21 0.23513630E+00 0.21460867E+03</pdfrwt>
<totfact> 0.20713005E+04</totfact>
</mgrwt>
</event>
<event>
12    1  0.1050690E-001  0.1855714E+03  0.7546771E-02  0.1162533E+00
         21   -1    0    0  501  502  0.00000000000E+00  0.00000000000E+00  0.16580858015E+03  0.16580858015E+03  0.00000000000E+00 0. -1.
         21   -1    0    0  502  503 -0.00000000000E+00 -0.00000000000E+00 -0.24317359637E+03  0.24317359637E+03  0.00000000000E+00 0. -1.
         -6    2    1    2    0  503 -0.41809158910E+02 -0.53728636046E+02  0.39507088943E+02  0.18973022398E+03  0.17263248743E+03 0.  0.
        -24    2    3    3    0    0 -0.50265965336E+02 -0.26044649857E+02 -0.39181624718E+02  0.10575448746E+03  0.80273413066E+02 0.  0.
          6    2    1    2  501    0  0.41809158910E+02  0.53728636046E+02 -0.11687210516E+03  0.21925195254E+03  0.17256175019E+03 0.  0.
         24    2    5    5    0    0 -0.39679499655E+02  0.32595712284E+02 -0.90176951744E+02  0.13081144622E+03  0.79641752147E+02 0.  0.
          5    1    5    5  501    0  0.81488658565E+02  0.21132923762E+02 -0.26695153418E+02  0.88440506316E+02  0.47000000000E+01 0. -1.
        -13    1    6    6    0    0 -0.23283375127E+02 -0.93023675982E+01 -0.81133777764E+02  0.84919606067E+02  0.00000000000E+00 0.  1.
         14    1    6    6    0    0 -0.16396124528E+02  0.41898079882E+02 -0.90431739799E+01  0.45891840157E+02  0.00000000000E+00 0. -1.
         -5    1    3    3    0  503  0.84568064260E+01 -0.27683986189E+02  0.78688713661E+02  0.83975736519E+02  0.47000000000E+01 0.  1.
         13    1    4    4    0    0 -0.47331007321E+01  0.24277110630E+02 -0.27334782694E+02  0.36864219617E+02  0.00000000000E+00 0. -1.
        -14    1    4    4    0    0 -0.45532864604E+02 -0.50321760487E+02 -0.11846842024E+02  0.68890267844E+02  0.00000000000E+00 0.  1.
<mgrwt>
<rscale>  2 0.18555496E+03</rscale>
<asrwt>0</asrwt>
<pdfrwt beam="1">  1       21 0.25509012E-01 0.18557141E+03</pdfrwt>
<pdfrwt beam="2">  1       21 0.37411322E-01 0.18557141E+03</pdfrwt>
<totfact> 0.10069507E+05</totfact>
</mgrwt>
</event>
<event>
12    1  0.1050690E-001  0.2067998E+03  0.7546771E-02  0.1146396E+00
         21   -1    0    0  503  502  0.00000000000E+00  0.00000000000E+00  0.90989140133E+03  0.90989140133E+03  0.00000000000E+00 0.  1.
         21   -1    0    0  501  503 -0.00000000000E+00 -0.00000000000E+00 -0.50835143640E+02  0.50835143640E+02  0.00000000000E+00 0.  1.
          6    2    1    2  501    0 -0.72825477263E+02  0.63542641646E+02  0.27091238834E+03  0.34082204345E+03  0.18282484978E+03 0.  0.
         24    2    3    3    0    0 -0.80809776902E+02  0.11035618107E+03  0.19634973563E+03  0.25229557456E+03  0.79944552777E+02 0.  0.
         -6    2    1    2    0  502  0.72825477263E+02 -0.63542641646E+02  0.58814386936E+03  0.61990450153E+03  0.17037359686E+03 0.  0.
        -24    2    5    5    0    0  0.66917014501E+02 -0.37005444101E+02  0.18972869912E+03  0.22053516036E+03  0.82410484553E+02 0.  0.
          5    1    3    3  501    0  0.79842996384E+01 -0.46813539425E+02  0.74562652710E+02  0.88526468886E+02  0.47000000000E+01 0. -1.
        -13    1    4    4    0    0 -0.37221145395E+02  0.97828610117E+02  0.17057737671E+03  0.20013118714E+03  0.00000000000E+00 0.  1.
         14    1    4    4    0    0 -0.43588631506E+02  0.12527570954E+02  0.25772358919E+02  0.52164387419E+02  0.00000000000E+00 0. -1.
         -5    1    5    5    0  502  0.59084627619E+01 -0.26537197545E+02  0.39841517024E+03  0.39936934117E+03  0.47000000000E+01 0.  1.
         13    1    6    6    0    0  0.82383858181E+01  0.92863565526E+01  0.11206116544E+03  0.11274667276E+03  0.00000000000E+00 0. -1.
        -14    1    6    6    0    0  0.58678628683E+02 -0.46291800653E+02  0.77667533679E+02  0.10778848760E+03  0.00000000000E+00 0.  1.
<mgrwt>
<rscale>  2 0.20401364E+03</rscale>
<asrwt>0</asrwt>
<pdfrwt beam="1">  1       21 0.13998328E+00 0.20679977E+03</pdfrwt>
<pdfrwt beam="2">  1       21 0.78207920E-02 0.20679977E+03</pdfrwt>
<totfact> 0.44324282E+04</totfact>
</mgrwt>
</event>
<event>
12    1  0.1050690E-001  0.2309026E+03  0.7546771E-02  0.1126153E+00
         21   -1    0    0  503  502  0.00000000000E+00  0.00000000000E+00  0.58630911641E+03  0.58630911641E+03  0.00000000000E+00 0.  1.
         21   -1    0    0  501  503 -0.00000000000E+00 -0.00000000000E+00 -0.91144257700E+02  0.91144257700E+02  0.00000000000E+00 0.  1.
          6    2    1    2  501    0  0.16054879424E+02 -0.15010779291E+03  0.27315986915E+03  0.35713756596E+03  0.17361111214E+03 0.  0.
         24    2    3    3    0    0 -0.67018432279E+01 -0.15457028565E+03  0.28234279106E+03  0.33175650368E+03  0.80050222749E+02 0.  0.
         -6    2    1    2    0  502 -0.16054879424E+02  0.15010779291E+03  0.22200498957E+03  0.32031580816E+03  0.17471660744E+03 0.  0.
        -24    2    5    5    0    0  0.58052202683E+02  0.84625701997E+02  0.10773548428E+03  0.16912264135E+03  0.80398790850E+02 0.  0.
          5    1    3    3  501    0  0.22756722652E+02  0.44624927357E+01 -0.91829219167E+01  0.25381062275E+02  0.47000000000E+01 0. -1.
        -11    1    4    4    0    0  0.27910543061E+02 -0.27201647954E+02  0.40281610913E+02  0.56049408945E+02  0.00000000000E+00 0.  1.
         12    1    4    4    0    0 -0.34612386289E+02 -0.12736863770E+03  0.24206118015E+03  0.27570709474E+03  0.00000000000E+00 0. -1.
         -5    1    5    5    0  502 -0.74107082107E+02  0.65482090917E+02  0.11426950529E+03  0.15119316680E+03  0.47000000000E+01 0.  1.
         13    1    6    6    0    0  0.52782197751E+02  0.86714789382E+02  0.11905719267E+03  0.15646095431E+03  0.00000000000E+00 0. -1.
        -14    1    6    6    0    0  0.52700049317E+01 -0.20890873855E+01 -0.11321708386E+02  0.12661687046E+02  0.00000000000E+00 0.  1.
<mgrwt>
<rscale>  2 0.23069346E+03</rscale>
<asrwt>0</asrwt>
<pdfrwt beam="1">  1       21 0.90201400E-01 0.23090258E+03</pdfrwt>
<pdfrwt beam="2">  1       21 0.14022194E-01 0.23090258E+03</pdfrwt>
<totfact> 0.45476547E+04</totfact>
</mgrwt>
</event>
<event>
12    1  0.1050690E-001  0.1765172E+03  0.7546771E-02  0.1171441E+00
         21   -1    0    0  503  502  0.00000000000E+00  0.00000000000E+00  0.62925394208E+03  0.62925394208E+03  0.00000000000E+00 0.  1.
         21   -1    0    0  501  503 -0.00000000000E+00 -0.00000000000E+00 -0.51050722417E+02  0.51050722417E+02  0.00000000000E+00 0.  1.
          6    2    1    2  501    0 -0.17220546063E+02  0.19577557673E+02  0.22475042022E+03  0.28522595545E+03  0.17366999253E+03 0.  0.
         24    2    3    3    0    0 -0.40419925769E+02  0.75801659378E+01  0.40128885262E+02  0.98706922118E+02  0.80258954185E+02 0.  0.
         -6    2    1    2    0  502  0.17220546063E+02 -0.19577557673E+02  0.35345279944E+03  0.39507870904E+03  0.17458086073E+03 0.  0.
        -24    2    5    5    0    0 -0.13494154325E+02 -0.63091425280E+02  0.11431372525E+03  0.15003496540E+03  0.72665279989E+02 0.  0.
          5    1    3    3  501    0  0.23199379706E+02  0.11997391735E+02  0.18462153495E+03  0.18651903333E+03  0.47000000000E+01 0. -1.
        -11    1    4    4    0    0  0.62106012233E+01  0.35054963126E+02  0.11102473958E+02  0.37291915147E+02  0.00000000000E+00 0.  1.
         12    1    4    4    0    0 -0.46630526992E+02 -0.27474797188E+02  0.29026411304E+02  0.61415006971E+02  0.00000000000E+00 0. -1.
         -5    1    5    5    0  502  0.30714700388E+02  0.43513867607E+02  0.23913907419E+03  0.24504374365E+03  0.47000000000E+01 0.  1.
         11    1    6    6    0    0  0.43855197675E+01 -0.25470986185E+02 -0.25488072679E+01  0.25971144360E+02  0.00000000000E+00 0. -1.
        -12    1    6    6    0    0 -0.17879674093E+02 -0.37620439094E+02  0.11686253252E+03  0.12406382104E+03  0.00000000000E+00 0.  1.
<mgrwt>
<rscale>  2 0.17629151E+03</rscale>
<asrwt>0</asrwt>
<pdfrwt beam="1">  1       21 0.96808293E-01 0.17651715E+03</pdfrwt>
<pdfrwt beam="2">  1       21 0.78539578E-02 0.17651715E+03</pdfrwt>
<totfact> 0.11052559E+05</totfact>
</mgrwt>
</event>
<event>
12    1  0.1050690E-001  0.1921064E+03  0.7546771E-02  0.1157015E+00
         21   -1    0    0  501  502  0.00000000000E+00  0.00000000000E+00  0.71448799769E+03  0.71448799769E+03  0.00000000000E+00 0. -1.
         21   -1    0    0  502  503 -0.00000000000E+00 -0.00000000000E+00 -0.51125561825E+02  0.51125561825E+02  0.00000000000E+00 0. -1.
         -6    2    1    2    0  503 -0.14511888813E+02  0.79796539171E+02  0.33560928548E+03  0.38670202358E+03  0.17414585829E+03 0.  0.
        -24    2    3    3    0    0 -0.55434687792E+02  0.10194527811E+03  0.28412314820E+03  0.31714518031E+03  0.79932832528E+02 0.  0.
          6    2    1    2  501    0  0.14511888813E+02 -0.79796539171E+02  0.32775315039E+03  0.37891153594E+03  0.17197017735E+03 0.  0.
         24    2    5    5    0    0  0.64843534023E+02 -0.47146355618E+02  0.27899153783E+03  0.30145771838E+03  0.81320446608E+02 0.  0.
          5    1    5    5  501    0 -0.50331645209E+02 -0.32650183553E+02  0.48761612559E+02  0.77453817562E+02  0.47000000000E+01 0. -1.
        -13    1    6    6    0    0  0.85170060388E+01  0.17452629016E+02  0.17020955866E+02  0.25823372940E+02  0.00000000000E+00 0.  1.
         14    1    6    6    0    0  0.56326527984E+02 -0.64598984634E+02  0.26197058196E+03  0.27563434544E+03  0.00000000000E+00 0. -1.
         -5    1    3    3    0  503  0.40922798978E+02 -0.22148738935E+02  0.51486137283E+02  0.69556843265E+02  0.47000000000E+01 0.  1.
         11    1    4    4    0    0  0.70301715819E+00  0.80321494923E+02  0.15014878423E+03  0.17028415717E+03  0.00000000000E+00 0. -1.
        -12    1    4    4    0    0 -0.56137704950E+02  0.21623783182E+02  0.13397436397E+03  0.14686102314E+03  0.00000000000E+00 0.  1.
<mgrwt>
<rscale>  2 0.19161196E+03</rscale>
<asrwt>0</asrwt>
<pdfrwt beam="1">  1       21 0.10992122E+00 0.19210638E+03</pdfrwt>
<pdfrwt beam="2">  1       21 0.78654715E-02 0.19210638E+03</pdfrwt>
<totfact> 0.80884371E+04</totfact>
</mgrwt>
</event>
<event>
12    1  0.1050690E-001  0.2472088E+03  0.7546771E-02  0.1115410E+00
         21   -1    0    0  503  502  0.00000000000E+00  0.00000000000E+00  0.14757703003E+03  0.14757703003E+03  0.00000000000E+00 0.  1.
         21   -1    0    0  501  503 -0.00000000000E+00 -0.00000000000E+00 -0.61895236865E+03  0.61895236865E+03  0.00000000000E+00 0. -1.
          6    2    1    2  501    0  0.16875252541E+03 -0.51924535073E+02 -0.45735394215E+03  0.51892328686E+03  0.17010343051E+03 0.  0.
         24    2    3    3    0    0  0.29383180571E+02 -0.53439408426E+02 -0.14302797204E+03  0.17504974236E+03  0.80413119833E+02 0.  0.
         -6    2    1    2    0  502 -0.16875252541E+03  0.51924535073E+02 -0.14021396467E+02  0.24760611182E+03  0.17302778644E+03 0.  0.
        -24    2    5    5    0    0 -0.39904824094E+02  0.73139509746E+02  0.78799375766E+01  0.11511624913E+03  0.79043497681E+02 0.  0.
          5    1    3    3  501    0  0.13936934483E+03  0.15148733523E+01 -0.31432597010E+03  0.34387354449E+03  0.47000000000E+01 0. -1.
        -13    1    4    4    0    0 -0.13644408904E+01  0.75884804808E+01  0.68592320158E+01  0.10319680169E+02  0.00000000000E+00 0.  1.
         14    1    4    4    0    0  0.30747621461E+02 -0.61027888906E+02 -0.14988720406E+03  0.16473006219E+03  0.00000000000E+00 0. -1.
         -5    1    5    5    0  502 -0.12884770131E+03 -0.21214974672E+02 -0.21901334043E+02  0.13248986269E+03  0.47000000000E+01 0.  1.
         13    1    6    6    0    0 -0.39123302999E+02  0.29192535860E+02 -0.29826090807E+02  0.57205180538E+02  0.00000000000E+00 0. -1.
        -14    1    6    6    0    0 -0.78152109461E+00  0.43946973886E+02  0.37706028384E+02  0.57911068592E+02  0.00000000000E+00 0.  1.
<mgrwt>
<rscale>  2 0.24669773E+03</rscale>
<asrwt>0</asrwt>
<pdfrwt beam="1">  1       21 0.22704158E-01 0.24720879E+03</pdfrwt>
<pdfrwt beam="2">  1       21 0.95223442E-01 0.24720879E+03</pdfrwt>
<totfact> 0.16228674E+04</totfact>
</mgrwt>
</event>
<event>
12    1  0.1050690E-001  0.2086152E+03  0.7546771E-02  0.1142670E+00
         21   -1    0    0  503  502  0.00000000000E+00  0.00000000000E+00  0.95695877341E+02  0.95695877341E+02  0.00000000000E+00 0.  1.
         21   -1    0    0  501  503 -0.00000000000E+00 -0.00000000000E+00 -0.45578721088E+03  0.45578721088E+03  0.00000000000E+00 0. -1.
          6    2    1    2  501    0 -0.10960818233E+03  0.41650578573E+02 -0.16684408375E+03  0.26711573344E+03  0.17252577325E+03 0.  0.
         24    2    3    3    0    0  0.18634393580E+02 -0.10783279171E+02 -0.56599092871E+02  0.89995673226E+02  0.66575101591E+02 0.  0.
         -6    2    1    2    0  502  0.10960818233E+03 -0.41650578573E+02 -0.19324724979E+03  0.28436735479E+03  0.17254439599E+03 0.  0.
        -24    2    5    5    0    0  0.40010325958E+02  0.30792890429E+02 -0.14460751422E+03  0.17265418775E+03  0.79681284477E+02 0.  0.
          5    1    3    3  501    0 -0.12824257591E+03  0.52433857744E+02 -0.11024499088E+03  0.17712006021E+03  0.47000000000E+01 0. -1.
        -13    1    4    4    0    0 -0.19921445285E+02 -0.65524684612E+01  0.48953828950E+00  0.20977094006E+02  0.00000000000E+00 0.  1.
         14    1    4    4    0    0  0.38555838865E+02 -0.42308107097E+01 -0.57088631161E+02  0.69018579221E+02  0.00000000000E+00 0. -1.
         -5    1    5    5    0  502  0.69597856372E+02 -0.72443469002E+02 -0.48639735571E+02  0.11171316704E+03  0.47000000000E+01 0.  1.
         11    1    6    6    0    0  0.62589943740E+02  0.11683159648E+02 -0.11027035600E+03  0.12733243377E+03  0.00000000000E+00 0. -1.
        -12    1    6    6    0    0 -0.22579617782E+02  0.19109730781E+02 -0.34337158210E+02  0.45321753979E+02  0.00000000000E+00 0.  1.
<mgrwt>
<rscale>  2 0.20861133E+03</rscale>
<asrwt>0</asrwt>
<pdfrwt beam="1">  1       21 0.14722443E-01 0.20861518E+03</pdfrwt>
<pdfrwt beam="2">  1       21 0.70121110E-01 0.20861518E+03</pdfrwt>
<totfact> 0.74382832E+04</totfact>
</mgrwt>
</event>
<event>
12    1  0.1050690E-001  0.2132575E+03  0.7546771E-02  0.1139066E+00
         21   -1    0    0  503  502  0.00000000000E+00  0.00000000000E+00  0.15146367957E+04  0.15146367957E+04  0.00000000000E+00 0.  1.
         21   -1    0    0  501  503 -0.00000000000E+00 -0.00000000000E+00 -0.14049837763E+03  0.14049837763E+03  0.00000000000E+00 0.  1.
          6    2    1    2  501    0 -0.12264882211E+03 -0.19661149879E+02 -0.46983581984E+02  0.21810124472E+03  0.17300694088E+03 0.  0.
         24    2    3    3    0    0 -0.10627102846E+03  0.21166503460E+02 -0.86448583459E+02  0.15881629095E+03  0.77509382208E+02 0.  0.
         -6    2    1    2    0  502  0.12264882211E+03  0.19661149879E+02  0.14211220001E+04  0.14370339286E+04  0.17334785421E+03 0.  0.
        -24    2    5    5    0    0  0.39250193342E+01  0.10919748056E+01  0.82912431537E+03  0.83294494155E+03  0.79583585873E+02 0.  0.
          5    1    3    3  501    0 -0.16377793657E+02 -0.40827653339E+02  0.39465001476E+02  0.59284953772E+02  0.47000000000E+01 0. -1.
        -11    1    4    4    0    0 -0.93771827184E+01 -0.23631706699E+02 -0.91539490811E+01  0.27021915199E+02  0.00000000000E+00 0.  1.
         12    1    4    4    0    0 -0.96893845737E+02  0.44798210159E+02 -0.77294634378E+02  0.13179437575E+03  0.00000000000E+00 0. -1.
         -5    1    5    5    0  502  0.11872380278E+03  0.18569175073E+02  0.59199768472E+03  0.60408898709E+03  0.47000000000E+01 0.  1.
         11    1    6    6    0    0 -0.32000704048E+02  0.20849310221E+02  0.35376753354E+03  0.35582327999E+03  0.00000000000E+00 0. -1.
        -12    1    6    6    0    0  0.35925723382E+02 -0.19757335416E+02  0.47535678183E+03  0.47712166157E+03  0.00000000000E+00 0.  1.
<mgrwt>
<rscale>  2 0.21318824E+03</rscale>
<asrwt>0</asrwt>
<pdfrwt beam="1">  1       21 0.23302103E+00 0.21325753E+03</pdfrwt>
<pdfrwt beam="2">  1       21 0.21615136E-01 0.21325753E+03</pdfrwt>
<totfact> 0.16363311E+03</totfact>
</mgrwt>
</event>
<event>
12    1  0.1050690E-001  0.1993771E+03  0.7546771E-02  0.1150293E+00
         21   -1    0    0  503  502  0.00000000000E+00  0.00000000000E+00  0.10075493672E+03  0.10075493672E+03  0.00000000000E+00 0. -1.
         21   -1    0    0  501  503 -0.00000000000E+00 -0.00000000000E+00 -0.41790340532E+03  0.41790340532E+03  0.00000000000E+00 0.  1.
          6    2    1    2  501    0 -0.19890520306E+02 -0.98531505903E+02 -0.22028380633E+03  0.29711310439E+03  0.17218348067E+03 0.  0.
         24    2    3    3    0    0  0.47507315781E+02 -0.18816579412E+02 -0.10751671850E+03  0.14337487260E+03  0.79909327515E+02 0.  0.
         -6    2    1    2    0  502  0.19890520306E+02  0.98531505903E+02 -0.96864662279E+02  0.22154523765E+03  0.17203324991E+03 0.  0.
        -24    2    5    5    0    0  0.18596265705E+01 -0.11769574953E+02 -0.68054512624E+02  0.10603092559E+03  0.80431084712E+02 0.  0.
          5    1    3    3  501    0 -0.67397836087E+02 -0.79714926491E+02 -0.11276708783E+03  0.15373823178E+03  0.47000000000E+01 0. -1.
        -11    1    4    4    0    0  0.27756871514E+02  0.29204613847E+01 -0.11039125450E+03  0.11386484128E+03  0.00000000000E+00 0.  1.
         12    1    4    4    0    0  0.19750444267E+02 -0.21737040797E+02  0.28745359983E+01  0.29510031321E+02  0.00000000000E+00 0. -1.
         -5    1    5    5    0  502  0.18030893735E+02  0.11030108086E+03 -0.28810149655E+02  0.11551431206E+03  0.47000000000E+01 0.  1.
         11    1    6    6    0    0  0.19593838102E+02 -0.10435992408E+02  0.11158305762E+02  0.24846251560E+02  0.00000000000E+00 0. -1.
        -12    1    6    6    0    0 -0.17734211532E+02 -0.13335825454E+01 -0.79212818386E+02  0.81184674032E+02  0.00000000000E+00 0.  1.
<mgrwt>
<rscale>  2 0.19934469E+03</rscale>
<asrwt>0</asrwt>
<pdfrwt beam="1">  1       21 0.15500759E-01 0.19937713E+03</pdfrwt>
<pdfrwt beam="2">  1       21 0.64292833E-01 0.19937713E+03</pdfrwt>
<totfact> 0.82227473E+04</totfact>
</mgrwt>
</event>
<event>
12    1  0.1050690E-001  0.1799272E+03  0.7546771E-02  0.1167930E+00
         21   -1    0    0  503  502  0.00000000000E+00  0.00000000000E+00  0.28147736606E+03  0.28147736606E+03  0.00000000000E+00 0.  1.
         21   -1    0    0  501  503 -0.00000000000E+00 -0.00000000000E+00 -0.11552665613E+03  0.11552665613E+03  0.00000000000E+00 0.  1.
          6    2    1    2  501    0 -0.13039060384E+02  0.47018008072E+02  0.97958962780E+02  0.20465884214E+03  0.17294095264E+03 0.  0.
         24    2    3    3    0    0  0.21174502758E+02  0.55861906424E+02 -0.12985402757E+01  0.99193566558E+02  0.79175534626E+02 0.  0.
         -6    2    1    2    0  502  0.13039060384E+02 -0.47018008072E+02  0.67991747148E+02  0.19234518005E+03  0.17318510452E+03 0.  0.
        -24    2    5    5    0    0  0.14469441510E+02  0.36054774607E+02  0.59725714334E+02  0.10871772934E+03  0.82116211624E+02 0.  0.
          5    1    3    3  501    0 -0.34213563143E+02 -0.88438983522E+01  0.99257503056E+02  0.10546527558E+03  0.47000000000E+01 0. -1.
        -11    1    4    4    0    0  0.16151878513E+02 -0.18440468402E+02  0.23910275271E+01  0.24630287595E+02  0.00000000000E+00 0.  1.
         12    1    4    4    0    0  0.50226242455E+01  0.74302374826E+02 -0.36895678027E+01  0.74563278963E+02  0.00000000000E+00 0. -1.
         -5    1    5    5    0  502 -0.14303811262E+01 -0.83072782679E+02  0.82660328140E+01  0.83627450701E+02  0.47000000000E+01 0.  1.
         13    1    6    6    0    0 -0.51184750657E+00  0.45960496265E+01  0.71718772051E+02  0.71867711279E+02  0.00000000000E+00 0. -1.
        -14    1    6    6    0    0  0.14981289017E+02  0.31458724981E+02 -0.11993057716E+02  0.36850018065E+02  0.00000000000E+00 0.  1.
<mgrwt>
<rscale>  2 0.17986840E+03</rscale>
<asrwt>0</asrwt>
<pdfrwt beam="1">  1       21 0.43304210E-01 0.17992718E+03</pdfrwt>
<pdfrwt beam="2">  1       21 0.17773332E-01 0.17992718E+03</pdfrwt>
<totfact> 0.14795138E+05</totfact>
</mgrwt>
</event>
<event>
12    1  0.1050690E-001  0.2430613E+03  0.7546771E-02  0.1118938E+00
         21   -1    0    0  503  502  0.00000000000E+00  0.00000000000E+00  0.41481286769E+02  0.41481286769E+02  0.00000000000E+00 0. -1.
         21   -1    0    0  501  503 -0.00000000000E+00 -0.00000000000E+00 -0.14547571393E+04  0.14547571393E+04  0.00000000000E+00 0. -1.
          6    2    1    2  501    0 -0.15805936989E+03 -0.20513800198E+02 -0.88216920557E+03  0.91504169653E+03  0.18350808900E+03 0.  0.
         24    2    3    3    0    0 -0.43449536820E+02  0.49694926379E+02 -0.45477839246E+03  0.46699072147E+03  0.83063227315E+02 0.  0.
         -6    2    1    2    0  502  0.15805936989E+03  0.20513800198E+02 -0.53110664691E+03  0.58119672949E+03  0.17410280746E+03 0.  0.
        -24    2    5    5    0    0  0.20912495901E+02 -0.29323712689E+02 -0.30642033100E+03  0.31324323857E+03  0.54135890606E+02 0.  0.
          5    1    3    3  501    0 -0.11460983307E+03 -0.70208726577E+02 -0.42739081311E+03  0.44805097506E+03  0.47000000000E+01 0. -1.
        -13    1    4    4    0    0  0.24566842717E+02  0.10589614728E+02 -0.91151335334E+02  0.94995976937E+02  0.00000000000E+00 0.  1.
         14    1    4    4    0    0 -0.68016379538E+02  0.39105311651E+02 -0.36362705713E+03  0.37199474454E+03  0.00000000000E+00 0. -1.
         -5    1    5    5    0  502  0.13714687399E+03  0.49837512887E+02 -0.22468631591E+03  0.26795349092E+03  0.47000000000E+01 0.  1.
         13    1    6    6    0    0  0.21353935518E+02 -0.29954516103E+01 -0.25057683301E+03  0.25150290761E+03  0.00000000000E+00 0. -1.
        -14    1    6    6    0    0 -0.44143961730E+00 -0.26328261078E+02 -0.55843497981E+02  0.61740330960E+02  0.00000000000E+00 0.  1.
<mgrwt>
<rscale>  2 0.24128690E+03</rscale>
<asrwt>0</asrwt>
<pdfrwt beam="1">  1       21 0.63817379E-02 0.24306131E+03</pdfrwt>
<pdfrwt beam="2">  1       21 0.22380874E+00 0.24306131E+03</pdfrwt>
<totfact> 0.16275108E+04</totfact>
</mgrwt>
</event>
<event>
12    1  0.1050690E-001  0.2645458E+03  0.7546771E-02  0.1104529E+00
         21   -1    0    0  501  502  0.00000000000E+00  0.00000000000E+00  0.14309380849E+03  0.14309380849E+03  0.00000000000E+00 0. -1.
         21   -1    0    0  502  503 -0.00000000000E+00 -0.00000000000E+00 -0.81768402603E+03  0.81768402603E+03  0.00000000000E+00 0. -1.
         -6    2    1    2    0  503 -0.17755353142E+03  0.91062708676E+02 -0.64255380854E+03  0.69488119113E+03  0.17368592197E+03 0.  0.
        -24    2    3    3    0    0 -0.19353303436E+03  0.46453085587E+02 -0.54991614023E+03  0.59072174329E+03  0.83255583331E+02 0.  0.
          6    2    1    2  501    0  0.17755353142E+03 -0.91062708676E+02 -0.32036409000E+02  0.26589664340E+03  0.17279184019E+03 0.  0.
         24    2    5    5    0    0  0.18111250943E+03 -0.87365537019E+02 -0.69599205049E+02  0.22769469253E+03  0.81032990391E+02 0.  0.
          5    1    5    5  501    0 -0.35589780110E+01 -0.36971716574E+01  0.37562796049E+02  0.38201950863E+02  0.47000000000E+01 0. -1.
        -11    1    6    6    0    0  0.18377940785E+02 -0.11688964062E+02 -0.40355275950E+02  0.45857702573E+02  0.00000000000E+00 0.  1.
         12    1    6    6    0    0  0.16273456865E+03 -0.75676572957E+02 -0.29243929099E+02  0.18183698996E+03  0.00000000000E+00 0. -1.
         -5    1    3    3    0  503  0.15979502936E+02  0.44609623089E+02 -0.92637668306E+02  0.10415944785E+03  0.47000000000E+01 0.  1.
         13    1    4    4    0    0 -0.66507968342E+02  0.57183237095E+02 -0.20363424788E+03  0.22172085911E+03  0.00000000000E+00 0. -1.
        -14    1    4    4    0    0 -0.12702506602E+03 -0.10730151507E+02 -0.34628189236E+03  0.36900088417E+03  0.00000000000E+00 0.  1.
<mgrwt>
<rscale>  2 0.26439913E+03</rscale>
<asrwt>0</asrwt>
<pdfrwt beam="1">  1       21 0.22014432E-01 0.26454579E+03</pdfrwt>
<pdfrwt beam="2">  1       21 0.12579754E+00 0.26454579E+03</pdfrwt>
<totfact> 0.86364917E+03</totfact>
</mgrwt>
</event>
<event>
12    1  0.1050690E-001  0.1815503E+03  0.7546771E-02  0.1166402E+00
         21   -1    0    0  503  502  0.00000000000E+00  0.00000000000E+00  0.88230970867E+02  0.88230970867E+02  0.00000000000E+00 0. -1.
         21   -1    0    0  501  503 -0.00000000000E+00 -0.00000000000E+00 -0.44085392915E+03  0.44085392915E+03  0.00000000000E+00 0. -1.
          6    2    1    2  501    0  0.39080328696E+02  0.39187283311E+02 -0.28041000450E+03  0.33405132665E+03  0.17290923326E+03 0.  0.
         24    2    3    3    0    0  0.89397079091E+01 -0.43592979557E+02 -0.14658300319E+03  0.17376163508E+03  0.82013796147E+02 0.  0.
         -6    2    1    2    0  502 -0.39080328696E+02 -0.39187283311E+02 -0.72212953776E+02  0.19503357336E+03  0.17251222792E+03 0.  0.
        -24    2    5    5    0    0 -0.35528161715E+02 -0.54492243537E+02 -0.10905902871E+03  0.15470265550E+03  0.88359408081E+02 0.  0.
          5    1    3    3  501    0  0.30140620787E+02  0.82780262868E+02 -0.13382700132E+03  0.16028969157E+03  0.47000000000E+01 0. -1.
        -13    1    4    4    0    0  0.37392150302E+01 -0.19146496854E+02 -0.14746771557E+03  0.14875246958E+03  0.00000000000E+00 0.  1.
         14    1    4    4    0    0  0.52004928789E+01 -0.24446482703E+02  0.88471238856E+00  0.25009165495E+02  0.00000000000E+00 0. -1.
         -5    1    5    5    0  502 -0.35521669807E+01  0.15304960225E+02  0.36846074931E+02  0.40330917862E+02  0.47000000000E+01 0.  1.
         13    1    6    6    0    0 -0.46269696265E+01 -0.72892849525E+02 -0.81150393586E+02  0.10917949780E+03  0.00000000000E+00 0. -1.
        -14    1    6    6    0    0 -0.30901192089E+02  0.18400605988E+02 -0.27908635121E+02  0.45523157707E+02  0.00000000000E+00 0.  1.
<mgrwt>
<rscale>  2 0.18145573E+03</rscale>
<asrwt>0</asrwt>
<pdfrwt beam="1">  1       21 0.13573995E-01 0.18155032E+03</pdfrwt>
<pdfrwt beam="2">  1       21 0.67823682E-01 0.18155032E+03</pdfrwt>
<totfact> 0.93798889E+04</totfact>
</mgrwt>
</event>
<event>
12    1  0.1050690E-001  0.1941385E+03  0.7546771E-02  0.1156311E+00
         21   -1    0    0  501  502  0.00000000000E+00  0.00000000000E+00  0.10943458923E+03  0.10943458923E+03  0.00000000000E+00 0.  1.
         21   -1    0    0  502  503 -0.00000000000E+00 -0.00000000000E+00 -0.33334031820E+03  0.33334031820E+03  0.00000000000E+00 0.  1.
         -6    2    1    2    0  503 -0.21819301117E+02 -0.84175395537E+02 -0.12190365572E+03  0.22347107039E+03  0.16588320864E+03 0.  0.
        -24    2    3    3    0    0 -0.42738894918E+02  0.11530952909E+01 -0.35908429645E+02  0.10044322939E+03  0.83495414508E+02 0.  0.
          6    2    1    2  501    0  0.21819301117E+02  0.84175395537E+02 -0.10200207325E+03  0.21930383704E+03  0.17357468386E+03 0.  0.
         24    2    5    5    0    0  0.20593967321E+02  0.13573206065E+02  0.13359930129E+02  0.83964809315E+02  0.79140748400E+02 0.  0.
          5    1    5    5  501    0  0.12253337952E+01  0.70602189472E+02 -0.11536200338E+03  0.13533902772E+03  0.47000000000E+01 0. -1.
        -11    1    6    6    0    0  0.45467652275E+02 -0.15031293789E+01 -0.10096055888E+02  0.46599325594E+02  0.00000000000E+00 0.  1.
         12    1    6    6    0    0 -0.24873684954E+02  0.15076335444E+02  0.23455986017E+02  0.37365483720E+02  0.00000000000E+00 0. -1.
         -5    1    3    3    0  503  0.20919593802E+02 -0.85328490828E+02 -0.85995226079E+02  0.12302784100E+03  0.47000000000E+01 0.  1.
         13    1    4    4    0    0 -0.10296229956E+02 -0.31106838070E+02  0.11340211528E+02  0.34673449836E+02  0.00000000000E+00 0. -1.
        -14    1    4    4    0    0 -0.32442664963E+02  0.32259933361E+02 -0.47248641173E+02  0.65769779557E+02  0.00000000000E+00 0.  1.
<mgrwt>
<rscale>  2 0.19240411E+03</rscale>
<asrwt>0</asrwt>
<pdfrwt beam="1">  1       21 0.16836091E-01 0.19413848E+03</pdfrwt>
<pdfrwt beam="2">  1       21 0.51283126E-01 0.19413848E+03</pdfrwt>
<totfact> 0.11471258E+05</totfact>
</mgrwt>
</event>
<event>
12    1  0.1050690E-001  0.2190195E+03  0.7546771E-02  0.1135188E+00
         21   -1    0    0  503  502  0.00000000000E+00  0.00000000000E+00  0.79919068979E+03  0.79919068979E+03  0.00000000000E+00 0.  1.
         21   -1    0    0  501  503 -0.00000000000E+00 -0.00000000000E+00 -0.14139264294E+03  0.14139264294E+03  0.00000000000E+00 0.  1.
          6    2    1    2  501    0 -0.88382976413E+02 -0.99596532760E+02 -0.28715644512E+02  0.22089394595E+03  0.17389228637E+03 0.  0.
         24    2    3    3    0    0  0.20200321366E+02 -0.44705544460E+02 -0.26817559845E+02  0.99119376030E+02  0.81846383548E+02 0.  0.
         -6    2    1    2    0  502  0.88382976413E+02  0.99596532760E+02  0.68651369136E+03  0.71968938678E+03  0.17006100426E+03 0.  0.
        -24    2    5    5    0    0  0.51523348144E+02  0.46618579623E+02  0.19412079821E+03  0.22306261854E+03  0.85124027876E+02 0.  0.
          5    1    3    3  501    0 -0.10858329778E+03 -0.54890988300E+02 -0.18980846671E+01  0.12177456992E+03  0.47000000000E+01 0. -1.
        -11    1    4    4    0    0 -0.17791088435E+02  0.66214013106E+01 -0.29641593119E+02  0.35199287289E+02  0.00000000000E+00 0.  1.
         12    1    4    4    0    0  0.37991409801E+02 -0.51326945770E+02  0.28240332740E+01  0.63920088741E+02  0.00000000000E+00 0. -1.
         -5    1    5    5    0  502  0.36859628269E+02  0.52977953137E+02  0.49239289315E+03  0.49662676825E+03  0.47000000000E+01 0.  1.
         11    1    6    6    0    0 -0.14966353450E+02  0.32679736958E+01  0.23288167221E+01  0.15494991932E+02  0.00000000000E+00 0. -1.
        -12    1    6    6    0    0  0.66489701594E+02  0.43350605927E+02  0.19179198149E+03  0.20756762660E+03  0.00000000000E+00 0.  1.
<mgrwt>
<rscale>  2 0.21825822E+03</rscale>
<asrwt>0</asrwt>
<pdfrwt beam="1">  1       21 0.12295241E+00 0.21901951E+03</pdfrwt>
<pdfrwt beam="2">  1       21 0.21752715E-01 0.21901951E+03</pdfrwt>
<totfact> 0.96215817E+03</totfact>
</mgrwt>
</event>
<event>
12    1  0.1050690E-001  0.1797375E+03  0.7546771E-02  0.1170570E+00
         21   -1    0    0  503  502  0.00000000000E+00  0.00000000000E+00  0.38559744272E+03  0.38559744272E+03  0.00000000000E+00 0.  1.
         21   -1    0    0  501  503 -0.00000000000E+00 -0.00000000000E+00 -0.14579748273E+03  0.14579748273E+03  0.00000000000E+00 0.  1.
          6    2    1    2  501    0 -0.46036460592E+02 -0.44110988839E+02 -0.57813258088E+02  0.18880659231E+03  0.16804886626E+03 0.  0.
         24    2    3    3    0    0 -0.59764124320E+02  0.11431675744E+02 -0.77534397012E+02  0.12810692460E+03  0.81837446467E+02 0.  0.
         -6    2    1    2    0  502  0.46036460592E+02  0.44110988839E+02  0.29761321807E+03  0.34258833314E+03  0.15725140187E+03 0.  0.
        -24    2    5    5    0    0 -0.73663966632E+01  0.66629232613E+02  0.13604675577E+03  0.17087709819E+03  0.78718133187E+02 0.  0.
          5    1    3    3  501    0  0.13727663728E+02 -0.55542664582E+02  0.19721138924E+02  0.60699667715E+02  0.47000000000E+01 0. -1.
        -11    1    4    4    0    0 -0.64603479422E+02  0.26144966972E+02 -0.26148239049E+02  0.74437216880E+02  0.00000000000E+00 0.  1.
         12    1    4    4    0    0  0.48393551020E+01 -0.14713291229E+02 -0.51386157962E+02  0.53669707719E+02  0.00000000000E+00 0. -1.
         -5    1    5    5    0  502  0.53402857255E+02 -0.22518243774E+02  0.16156646230E+03  0.17171123495E+03  0.47000000000E+01 0.  1.
         13    1    6    6    0    0  0.25831280750E+02 -0.14315719305E+00  0.18889460838E+02  0.32001363876E+02  0.00000000000E+00 0. -1.
        -14    1    6    6    0    0 -0.33197677413E+02  0.66772389806E+02  0.11715729493E+03  0.13887573432E+03  0.00000000000E+00 0.  1.
<mgrwt>
<rscale>  2 0.17716996E+03</rscale>
<asrwt>0</asrwt>
<pdfrwt beam="1">  1       21 0.59322683E-01 0.17973747E+03</pdfrwt>
<pdfrwt beam="2">  1       21 0.22430382E-01 0.17973747E+03</pdfrwt>
<totfact> 0.49715974E+04</totfact>
</mgrwt>
</event>
<event>
12    1  0.1050690E-001  0.2494073E+03  0.7546771E-02  0.1113756E+00
         21   -1    0    0  501  502  0.00000000000E+00  0.00000000000E+00  0.12089172739E+03  0.12089172739E+03  0.00000000000E+00 0.  1.
         21   -1    0    0  502  503 -0.00000000000E+00 -0.00000000000E+00 -0.52777048107E+03  0.52777048107E+03  0.00000000000E+00 0. -1.
         -6    2    1    2    0  503 -0.11615222079E+03  0.13659657208E+03 -0.25686983412E+03  0.35803088232E+03  0.17336100807E+03 0.  0.
        -24    2    3    3    0    0 -0.45472146060E+02  0.14859286733E+03 -0.15284472689E+03  0.23160739955E+03  0.78312966349E+02 0.  0.
          6    2    1    2  501    0  0.11615222079E+03 -0.13659657208E+03 -0.15000891956E+03  0.29063132614E+03  0.17266710715E+03 0.  0.
         24    2    5    5    0    0  0.27370599928E+02 -0.52790840035E+01 -0.29672245312E+02  0.91559821286E+02  0.82010610678E+02 0.  0.
          5    1    5    5  501    0  0.88781620858E+02 -0.13131748807E+03 -0.12033667425E+03  0.19907150486E+03  0.47000000000E+01 0. -1.
        -13    1    6    6    0    0  0.42709887178E+02  0.14679488524E+02  0.83820416650E+01  0.45933435192E+02  0.00000000000E+00 0.  1.
         14    1    6    6    0    0 -0.15339287250E+02 -0.19958572527E+02 -0.38054286977E+02  0.45626386094E+02  0.00000000000E+00 0. -1.
         -5    1    3    3    0  503 -0.70680074725E+02 -0.11996295252E+02 -0.10402510723E+03  0.12642348277E+03  0.47000000000E+01 0.  1.
         11    1    4    4    0    0  0.85999012601E+01  0.97513339573E+02 -0.10281796897E+03  0.14196599748E+03  0.00000000000E+00 0. -1.
        -12    1    4    4    0    0 -0.54072047320E+02  0.51079527756E+02 -0.50026757921E+02  0.89641402071E+02  0.00000000000E+00 0.  1.
<mgrwt>
<rscale>  2 0.24928676E+03</rscale>
<asrwt>0</asrwt>
<pdfrwt beam="1">  1       21 0.18598727E-01 0.24940730E+03</pdfrwt>
<pdfrwt beam="2">  1       21 0.81195461E-01 0.24940730E+03</pdfrwt>
<totfact> 0.34167517E+04</totfact>
</mgrwt>
</event>
<event>
12    1  0.1050690E-001  0.2926364E+03  0.7546771E-02  0.1089047E+00
         21   -1    0    0  503  502  0.00000000000E+00  0.00000000000E+00  0.12446422899E+04  0.12446422899E+04  0.00000000000E+00 0. -1.
         21   -1    0    0  501  503 -0.00000000000E+00 -0.00000000000E+00 -0.11400546837E+03  0.11400546837E+03  0.00000000000E+00 0.  1.
          6    2    1    2  501    0 -0.22448838920E+03 -0.70615266316E+02  0.13729696857E+03  0.32324376750E+03  0.17393827332E+03 0.  0.
         24    2    3    3    0    0 -0.16322814829E+02 -0.54517258275E+02  0.16724236766E+02  0.82096663282E+02  0.56759107577E+02 0.  0.
         -6    2    1    2    0  502  0.22448838920E+03  0.70615266316E+02  0.99333985299E+03  0.10354039908E+04  0.17307746218E+03 0.  0.
        -24    2    5    5    0    0  0.11401961092E+03  0.39113554039E+02  0.76998615452E+03  0.78419755484E+03  0.86929770934E+02 0.  0.
          5    1    3    3  501    0 -0.20816557437E+03 -0.16098008041E+02  0.12057273180E+03  0.24114710421E+03  0.47000000000E+01 0. -1.
        -11    1    4    4    0    0  0.75774380026E+00 -0.39930259153E+02  0.35027597427E+02  0.53121863232E+02  0.00000000000E+00 0.  1.
         12    1    4    4    0    0 -0.17080558629E+02 -0.14586999123E+02 -0.18303360661E+02  0.28974800051E+02  0.00000000000E+00 0. -1.
         -5    1    5    5    0  502  0.11046877828E+03  0.31501712278E+02  0.22335369846E+03  0.25120643596E+03  0.47000000000E+01 0.  1.
         11    1    6    6    0    0  0.15604238286E+02 -0.89844167967E+01  0.22937165310E+02  0.29160342078E+02  0.00000000000E+00 0. -1.
        -12    1    6    6    0    0  0.98415372633E+02  0.48097970835E+02  0.74704898921E+03  0.75503721276E+03  0.00000000000E+00 0.  1.
<mgrwt>
<rscale>  2 0.29250863E+03</rscale>
<asrwt>0</asrwt>
<pdfrwt beam="1">  1       21 0.19148342E+00 0.29263642E+03</pdfrwt>
<pdfrwt beam="2">  1       21 0.17539304E-01 0.29263642E+03</pdfrwt>
<totfact> 0.41618283E+03</totfact>
</mgrwt>
</event>
<event>
12    1  0.1050690E-001  0.2150798E+03  0.7546771E-02  0.1138063E+00
         21   -1    0    0  501  502  0.00000000000E+00  0.00000000000E+00  0.22273660066E+03  0.22273660066E+03  0.00000000000E+00 0. -1.
         21   -1    0    0  502  503 -0.00000000000E+00 -0.00000000000E+00 -0.21581481787E+03  0.21581481787E+03  0.00000000000E+00 0. -1.
         -6    2    1    2    0  503 -0.25671053325E+02 -0.12146260444E+03  0.51601219819E+02  0.21887992978E+03  0.17272397203E+03 0.  0.
        -24    2    3    3    0    0 -0.50073077444E+02 -0.14163843727E+03  0.34607171132E+02  0.18263892121E+03  0.97931400734E+02 0.  0.
          6    2    1    2  501    0  0.25671053325E+02  0.12146260444E+03 -0.44679437027E+02  0.21967148876E+03  0.17563354925E+03 0.  0.
         24    2    5    5    0    0 -0.32109914127E+02  0.98955564173E+02  0.15011520091E+02  0.13347225777E+03  0.82257203895E+02 0.  0.
          5    1    5    5  501    0  0.57780967452E+02  0.22507040271E+02 -0.59690957119E+02  0.86199230989E+02  0.47000000000E+01 0. -1.
        -13    1    6    6    0    0 -0.25016341161E+02 -0.72457319833E+01  0.49736628554E+00  0.26049286560E+02  0.00000000000E+00 0.  1.
         14    1    6    6    0    0 -0.70935729653E+01  0.10620129616E+03  0.14514153806E+02  0.10742297121E+03  0.00000000000E+00 0. -1.
         -5    1    3    3    0  503  0.24402024119E+02  0.20175832825E+02  0.16994048687E+02  0.36241008569E+02  0.47000000000E+01 0.  1.
         13    1    4    4    0    0 -0.33048518677E+02 -0.51307101380E+00 -0.84441691646E+01  0.34114100040E+02  0.00000000000E+00 0. -1.
        -14    1    4    4    0    0 -0.17024558767E+02 -0.14112536626E+03  0.43051340297E+02  0.14852482117E+03  0.00000000000E+00 0.  1.
<mgrwt>
<rscale>  2 0.21448498E+03</rscale>
<asrwt>0</asrwt>
<pdfrwt beam="1">  1       21 0.34267170E-01 0.21507978E+03</pdfrwt>
<pdfrwt beam="2">  1       21 0.33202279E-01 0.21507978E+03</pdfrwt>
<totfact> 0.70983964E+04</totfact>
</mgrwt>
</event>
<event>
12    1  0.1050690E-001  0.2015975E+03  0.7546771E-02  0.1150826E+00
         21   -1    0    0  501  502  0.00000000000E+00  0.00000000000E+00  0.32027580593E+02  0.32027580593E+02  0.00000000000E+00 0. -1.
         21   -1    0    0  502  503 -0.00000000000E+00 -0.00000000000E+00 -0.12364058362E+04  0.12364058362E+04  0.00000000000E+00 0.  1.
         -6    2    1    2    0  503  0.67367365625E+02 -0.37455481585E+02 -0.72929521757E+03  0.75664593168E+03  0.18628010228E+03 0.  0.
        -24    2    3    3    0    0  0.43173099321E+02 -0.61789463591E+02 -0.22485947040E+03  0.25102253603E+03  0.82271974892E+02 0.  0.
          6    2    1    2  501    0 -0.67367365625E+02  0.37455481585E+02 -0.47508303802E+03  0.51178748509E+03  0.17401511955E+03 0.  0.
         24    2    5    5    0    0 -0.76801635045E+02  0.52372077979E+01 -0.46242172374E+03  0.47560155572E+03  0.80231351269E+02 0.  0.
          5    1    5    5  501    0  0.94342694200E+01  0.32218273787E+02 -0.12661314279E+02  0.36185929372E+02  0.47000000000E+01 0. -1.
        -13    1    6    6    0    0 -0.36690063485E+02 -0.31035882969E+02 -0.12585651329E+03  0.13471914759E+03  0.00000000000E+00 0.  1.
         14    1    6    6    0    0 -0.40111571560E+02  0.36273090767E+02 -0.33656521045E+03  0.34088240813E+03  0.00000000000E+00 0. -1.
         -5    1    3    3    0  503  0.24194266303E+02  0.24333982006E+02 -0.50443574717E+03  0.50562339564E+03  0.47000000000E+01 0.  1.
         11    1    4    4    0    0  0.30417178847E+02  0.14204099324E+02 -0.84078273811E+02  0.90532410404E+02  0.00000000000E+00 0. -1.
        -12    1    4    4    0    0  0.12755920474E+02 -0.75993562915E+02 -0.14078119659E+03  0.16049012563E+03  0.00000000000E+00 0.  1.
<mgrwt>
<rscale>  2 0.19871754E+03</rscale>
<asrwt>0</asrwt>
<pdfrwt beam="1">  1       21 0.49273199E-02 0.20159750E+03</pdfrwt>
<pdfrwt beam="2">  1       21 0.19021629E+00 0.20159750E+03</pdfrwt>
<totfact> 0.42617557E+04</totfact>
</mgrwt>
</event>
<event>
12    1  0.1050690E-001  0.2400220E+03  0.7546771E-02  0.1120328E+00
         21   -1    0    0  503  502  0.00000000000E+00  0.00000000000E+00  0.19915375445E+03  0.19915375445E+03  0.00000000000E+00 0. -1.
         21   -1    0    0  501  503 -0.00000000000E+00 -0.00000000000E+00 -0.59751868154E+03  0.59751868154E+03  0.00000000000E+00 0.  1.
          6    2    1    2  501    0 -0.92056502451E+02  0.13336926885E+03 -0.48775607087E+03  0.54361431520E+03  0.17705585983E+03 0.  0.
         24    2    3    3    0    0 -0.13382180243E+03  0.10591311902E+03 -0.40821215574E+03  0.44955313893E+03  0.79592694681E+02 0.  0.
         -6    2    1    2    0  502  0.92056502451E+02 -0.13336926885E+03  0.89391143781E+02  0.25305812078E+03  0.17258584644E+03 0.  0.
        -24    2    5    5    0    0  0.44504791263E+02 -0.11830672884E+03 -0.15984661270E+01  0.14918683284E+03  0.79227504469E+02 0.  0.
          5    1    3    3  501    0  0.41765299979E+02  0.27456149829E+02 -0.79543915137E+02  0.94061176268E+02  0.47000000000E+01 0. -1.
        -11    1    4    4    0    0 -0.85121340675E+02  0.61460354917E+02 -0.15025436873E+03  0.18330137257E+03  0.00000000000E+00 0.  1.
         12    1    4    4    0    0 -0.48700461754E+02  0.44452764102E+02 -0.25795778701E+03  0.26625176636E+03  0.00000000000E+00 0. -1.
         -5    1    5    5    0  502  0.47551711188E+02 -0.15062540011E+02  0.90989609908E+02  0.10387128795E+03  0.47000000000E+01 0.  1.
         13    1    6    6    0    0  0.29620856867E+02 -0.45294746413E+01  0.14547540574E+02  0.33309791936E+02  0.00000000000E+00 0. -1.
        -14    1    6    6    0    0  0.14883934396E+02 -0.11377725420E+03 -0.16146006701E+02  0.11587704090E+03  0.00000000000E+00 0.  1.
<mgrwt>
<rscale>  2 0.23919819E+03</rscale>
<asrwt>0</asrwt>
<pdfrwt beam="1">  1       21 0.30639039E-01 0.24002196E+03</pdfrwt>
<pdfrwt beam="2">  1       21 0.91925950E-01 0.24002196E+03</pdfrwt>
<totfact> 0.99195549E+03</totfact>
</mgrwt>
</event>
<event>
12    1  0.1050690E-001  0.1871634E+03  0.7546771E-02  0.1161930E+00
         21   -1    0    0  503  502  0.00000000000E+00  0.00000000000E+00  0.19413002298E+03  0.19413002298E+03  0.00000000000E+00 0.  1.
         21   -1    0    0  501  503 -0.00000000000E+00 -0.00000000000E+00 -0.23970305725E+03  0.23970305725E+03  0.00000000000E+00 0.  1.
          6    2    1    2  501    0  0.48466597946E+02 -0.36924474712E+02 -0.13373229502E+03  0.22694619530E+03  0.17293877784E+03 0.  0.
         24    2    3    3    0    0  0.30256998002E+01 -0.37347999514E+02 -0.21282810431E+01  0.87638043731E+02  0.79195133700E+02 0.  0.
         -6    2    1    2    0  502 -0.48466597946E+02  0.36924474712E+02  0.88159260760E+02  0.20688688493E+03  0.17696807607E+03 0.  0.
        -24    2    5    5    0    0 -0.28656445794E+02 -0.21124431925E+02 -0.97271804595E+01  0.91275626547E+02  0.83481665365E+02 0.  0.
          5    1    3    3  501    0  0.45440898146E+02  0.42352480247E+00 -0.13160401398E+03  0.13930815157E+03  0.47000000000E+01 0. -1.
        -13    1    4    4    0    0  0.24089646516E+02  0.66847511949E+01 -0.23538385635E+02  0.34337334872E+02  0.00000000000E+00 0.  1.
         14    1    4    4    0    0 -0.21063946716E+02 -0.44032750709E+02  0.21410104591E+02  0.53300708859E+02  0.00000000000E+00 0. -1.
         -5    1    5    5    0  502 -0.19810152152E+02  0.58048906637E+02  0.97886441219E+02  0.11561125838E+03  0.47000000000E+01 0.  1.
         11    1    6    6    0    0  0.26456704521E+02 -0.19454503283E+01  0.11856388944E+02  0.29057115306E+02  0.00000000000E+00 0. -1.
        -12    1    6    6    0    0 -0.55113150316E+02 -0.19178981597E+02 -0.21583569404E+02  0.62218511241E+02  0.00000000000E+00 0.  1.
<mgrwt>
<rscale>  2 0.18620475E+03</rscale>
<asrwt>0</asrwt>
<pdfrwt beam="1">  1       21 0.29866157E-01 0.18716337E+03</pdfrwt>
<pdfrwt beam="2">  1       21 0.36877394E-01 0.18716337E+03</pdfrwt>
<totfact> 0.76404525E+04</totfact>
</mgrwt>
</event>
<event>
12    1  0.1050690E-001  0.1772282E+03  0.7546771E-02  0.1170746E+00
         21   -1    0    0  501  502  0.00000000000E+00  0.00000000000E+00  0.83645445221E+03  0.83645445221E+03  0.00000000000E+00 0.  1.
         21   -1    0    0  502  503 -0.00000000000E+00 -0.00000000000E+00 -0.15257415750E+03  0.15257415750E+03  0.00000000000E+00 0.  1.
         -6    2    1    2    0  503 -0.33553563425E+02 -0.11331505262E+02 -0.88022140186E+02  0.19704173392E+03  0.17269424748E+03 0.  0.
        -24    2    3    3    0    0 -0.79257293853E+02  0.10334927856E+02 -0.24227358272E+02  0.11549340777E+03  0.79769875180E+02 0.  0.
          6    2    1    2  501    0  0.33553563425E+02  0.11331505262E+02  0.77190243490E+03  0.79198687580E+03  0.17365367202E+03 0.  0.
         24    2    5    5    0    0  0.74067694658E+02 -0.90399324694E+01  0.68619484384E+03  0.69490818880E+03  0.80413203977E+02 0.  0.
          5    1    5    5  501    0 -0.40514131233E+02  0.20371437731E+02  0.85707591056E+02  0.97078686999E+02  0.47000000000E+01 0. -1.
        -13    1    6    6    0    0  0.70299925055E+02 -0.32492436935E+02  0.38106596908E+03  0.38885615684E+03  0.00000000000E+00 0.  1.
         14    1    6    6    0    0  0.37677696029E+01  0.23452504465E+02  0.30512887476E+03  0.30605203196E+03  0.00000000000E+00 0. -1.
         -5    1    3    3    0  503  0.45703730427E+02 -0.21666433118E+02 -0.63794781913E+02  0.81548326153E+02  0.47000000000E+01 0.  1.
         11    1    4    4    0    0 -0.51293574742E+01  0.17767133712E+02  0.21281489477E+02  0.28193672035E+02  0.00000000000E+00 0. -1.
        -12    1    4    4    0    0 -0.74127936378E+02 -0.74322058565E+01 -0.45508847749E+02  0.87299735733E+02  0.00000000000E+00 0.  1.
<mgrwt>
<rscale>  2 0.17699276E+03</rscale>
<asrwt>0</asrwt>
<pdfrwt beam="1">  1       21 0.12868530E+00 0.17722822E+03</pdfrwt>
<pdfrwt beam="2">  1       21 0.23472948E-01 0.17722822E+03</pdfrwt>
<totfact> 0.76647110E+03</totfact>
</mgrwt>
</event>
<event>
12    1  0.1050690E-001  0.1976148E+03  0.7546771E-02  0.1151827E+00
         21   -1    0    0  503  502  0.00000000000E+00  0.00000000000E+00  0.10535468594E+04  0.10535468594E+04  0.00000000000E+00 0. -1.
         21   -1    0    0  501  503 -0.00000000000E+00 -0.00000000000E+00 -0.48815678970E+02  0.48815678970E+02  0.00000000000E+00 0.  1.
          6    2    1    2  501    0  0.65487831855E+02  0.68131158570E+02  0.23162932744E+03  0.30447290586E+03  0.17355429751E+03 0.  0.
         24    2    3    3    0    0  0.44139439324E+02 -0.24822971926E+02  0.15656848305E+03  0.18301326400E+03  0.80098032910E+02 0.  0.
         -6    2    1    2    0  502 -0.65487831855E+02 -0.68131158570E+02  0.77310185295E+03  0.79788963247E+03  0.17323648484E+03 0.  0.
        -24    2    5    5    0    0 -0.69573400831E+02 -0.25302023099E+02  0.72561213483E+03  0.73363708352E+03  0.78928763031E+02 0.  0.
          5    1    3    3  501    0  0.21348392531E+02  0.92954130496E+02  0.75060844386E+02  0.12145964186E+03  0.47000000000E+01 0. -1.
        -13    1    4    4    0    0 -0.88940660988E+01  0.18706094171E+02  0.67357492934E+02  0.70470236449E+02  0.00000000000E+00 0.  1.
         14    1    4    4    0    0  0.53033505423E+02 -0.43529066097E+02  0.89210990120E+02  0.11254302755E+03  0.00000000000E+00 0. -1.
         -5    1    5    5    0  502  0.40855689761E+01 -0.42829135471E+02  0.47489718121E+02  0.64252548948E+02  0.47000000000E+01 0.  1.
         11    1    6    6    0    0 -0.13520958380E+02  0.21269752341E+02  0.78798240345E+02  0.82730776387E+02  0.00000000000E+00 0. -1.
        -12    1    6    6    0    0 -0.56052442451E+02 -0.46571775439E+02  0.64681389448E+03  0.65090630713E+03  0.00000000000E+00 0.  1.
<mgrwt>
<rscale>  2 0.19754499E+03</rscale>
<asrwt>0</asrwt>
<pdfrwt beam="1">  1       21 0.16208411E+00 0.19761479E+03</pdfrwt>
<pdfrwt beam="2">  1       21 0.75101053E-02 0.19761479E+03</pdfrwt>
<totfact> 0.32447566E+04</totfact>
</mgrwt>
</event>
<event>
12    1  0.1050690E-001  0.1953938E+03  0.7546771E-02  0.1153815E+00
         21   -1    0    0  501  502  0.00000000000E+00  0.00000000000E+00  0.20160572906E+03  0.20160572906E+03  0.00000000000E+00 0. -1.
         21   -1    0    0  502  503 -0.00000000000E+00 -0.00000000000E+00 -0.18983577725E+03  0.18983577725E+03  0.00000000000E+00 0.  1.
         -6    2    1    2    0  503  0.13333195709E+02  0.87583747313E+02  0.20368596929E+02  0.19585858587E+03  0.17348492447E+03 0.  0.
        -24    2    3    3    0    0  0.43859098466E+02 -0.94178351521E+01  0.13548881962E+02  0.93830470863E+02  0.81291259818E+02 0.  0.
          6    2    1    2  501    0 -0.13333195709E+02 -0.87583747313E+02 -0.85986451128E+01  0.19558292044E+03  0.17415526168E+03 0.  0.
         24    2    5    5    0    0 -0.53203080499E+02 -0.29302679681E+02  0.41661479788E+02  0.10878164907E+03  0.80053441304E+02 0.  0.
          5    1    5    5  501    0  0.39869884789E+02 -0.58281067631E+02 -0.50260124901E+02  0.86801271375E+02  0.47000000000E+01 0. -1.
        -13    1    6    6    0    0 -0.15925552159E+02  0.76111879609E+01 -0.20755242964E+02  0.27245797919E+02  0.00000000000E+00 0.  1.
         14    1    6    6    0    0 -0.37277528340E+02 -0.36913867642E+02  0.62416722752E+02  0.81535851149E+02  0.00000000000E+00 0. -1.
         -5    1    3    3    0  503 -0.30525902756E+02  0.97001582465E+02  0.68197149667E+01  0.10202811501E+03  0.47000000000E+01 0.  1.
         13    1    4    4    0    0  0.37079191101E+02  0.26528792156E+02  0.29093806583E+02  0.54084127130E+02  0.00000000000E+00 0. -1.
        -14    1    4    4    0    0  0.67799073646E+01 -0.35946627308E+02 -0.15544924621E+02  0.39746343733E+02  0.00000000000E+00 0.  1.
<mgrwt>
<rscale>  2 0.19524433E+03</rscale>
<asrwt>0</asrwt>
<pdfrwt beam="1">  1       21 0.31016266E-01 0.19539381E+03</pdfrwt>
<pdfrwt beam="2">  1       21 0.29205504E-01 0.19539381E+03</pdfrwt>
<totfact> 0.11199369E+05</totfact>
</mgrwt>
</event>
<event>
12    1  0.1050690E-001  0.1785901E+03  0.7546771E-02  0.1169917E+00
         21   -1    0    0  503  502  0.00000000000E+00  0.00000000000E+00  0.63975797500E+03  0.63975797500E+03  0.00000000000E+00 0.  1.
         21   -1    0    0  501  503 -0.00000000000E+00 -0.00000000000E+00 -0.87518001918E+02  0.87518001918E+02  0.00000000000E+00 0.  1.
          6    2    1    2  501    0 -0.88123518459E+00  0.39048597240E+02  0.36252093202E+02  0.18223232865E+03  0.17426657115E+03 0.  0.
         24    2    3    3    0    0  0.56883873913E+02  0.62271975720E+02  0.25565929684E+02  0.11888868471E+03  0.79795541974E+02 0.  0.
         -6    2    1    2    0  502  0.88123518459E+00 -0.39048597240E+02  0.51598787988E+03  0.54504364828E+03  0.17118270011E+03 0.  0.
        -24    2    5    5    0    0 -0.41905249436E+02 -0.56928104407E+02  0.20524485967E+03  0.23082449760E+03  0.78470614040E+02 0.  0.
          5    1    3    3  501    0 -0.57765109097E+02 -0.23223378480E+02  0.10686163518E+02  0.63343643942E+02  0.47000000000E+01 0. -1.
        -13    1    4    4    0    0  0.11018403690E+02 -0.68558156386E+01 -0.20300588307E+02  0.24094009910E+02  0.00000000000E+00 0.  1.
         14    1    4    4    0    0  0.45865470223E+02  0.69127791359E+02  0.45866517991E+02  0.94794674795E+02  0.00000000000E+00 0. -1.
         -5    1    5    5    0  502  0.42786484621E+02  0.17879507167E+02  0.31074302021E+03  0.31421915068E+03  0.47000000000E+01 0.  1.
         13    1    6    6    0    0  0.18266968192E+02 -0.37769351313E+02  0.71015983787E+02  0.82483186036E+02  0.00000000000E+00 0. -1.
        -14    1    6    6    0    0 -0.60172217628E+02 -0.19158753094E+02  0.13422887589E+03  0.14834131156E+03  0.00000000000E+00 0.  1.
<mgrwt>
<rscale>  2 0.17783328E+03</rscale>
<asrwt>0</asrwt>
<pdfrwt beam="1">  1       21 0.98424301E-01 0.17859005E+03</pdfrwt>
<pdfrwt beam="2">  1       21 0.13464308E-01 0.17859005E+03</pdfrwt>
<totfact> 0.40972054E+04</totfact>
</mgrwt>
</event>
<event>
12    1  0.1050690E-001  0.1849592E+03  0.7546771E-02  0.1163488E+00
         21   -1    0    0  503  502  0.00000000000E+00  0.00000000000E+00  0.95105876004E+02  0.95105876004E+02  0.00000000000E+00 0. -1.
         21   -1    0    0  501  503 -0.00000000000E+00 -0.00000000000E+00 -0.70568832709E+03  0.70568832709E+03  0.00000000000E+00 0. -1.
          6    2    1    2  501    0  0.33302180029E+02 -0.58597939679E+02 -0.58627092484E+03  0.61424405945E+03  0.17040954648E+03 0.  0.
         24    2    3    3    0    0  0.43301120062E+02 -0.91019557891E+02 -0.44100424512E+03  0.46499380530E+03  0.10758693151E+03 0.  0.
         -6    2    1    2    0  502 -0.33302180029E+02  0.58597939679E+02 -0.24311526249E+02  0.18655014364E+03  0.17224155148E+03 0.  0.
        -24    2    5    5    0    0 -0.27142157906E+02  0.84354617295E+02 -0.66044612652E+02  0.13690044259E+03  0.80792587067E+02 0.  0.
          5    1    3    3  501    0 -0.99989400331E+01  0.32421618212E+02 -0.14526667972E+03  0.14925025416E+03  0.47000000000E+01 0. -1.
        -13    1    4    4    0    0  0.10032139918E+02 -0.43421013522E+02 -0.40240418152E+02  0.60044312801E+02  0.00000000000E+00 0.  1.
         14    1    4    4    0    0  0.33268980144E+02 -0.47598544369E+02 -0.40076382697E+03  0.40494949250E+03  0.00000000000E+00 0. -1.
         -5    1    5    5    0  502 -0.61600221235E+01 -0.25756677617E+02  0.41733086403E+02  0.49649701058E+02  0.47000000000E+01 0.  1.
         11    1    6    6    0    0 -0.54962302949E+02  0.55353853947E+02 -0.54259132812E+02  0.95020826063E+02  0.00000000000E+00 0. -1.
        -12    1    6    6    0    0  0.27820145043E+02  0.29000763348E+02 -0.11785479840E+02  0.41879616522E+02  0.00000000000E+00 0.  1.
<mgrwt>
<rscale>  2 0.18453151E+03</rscale>
<asrwt>0</asrwt>
<pdfrwt beam="1">  1       21 0.14631673E-01 0.18495920E+03</pdfrwt>
<pdfrwt beam="2">  1       21 0.10856744E+00 0.18495920E+03</pdfrwt>
<totfact> 0.27792157E+04</totfact>
</mgrwt>
</event>
<event>
12    1  0.1050690E-001  0.2338231E+03  0.7546771E-02  0.1124721E+00
         21   -1    0    0  503  502  0.00000000000E+00  0.00000000000E+00  0.12169411959E+04  0.12169411959E+04  0.00000000000E+00 0.  1.
         21   -1    0    0  501  503 -0.00000000000E+00 -0.00000000000E+00 -0.24675644556E+03  0.24675644556E+03  0.00000000000E+00 0.  1.
          6    2    1    2  501    0 -0.43532020324E+02 -0.14459046487E+03 -0.17732229921E+03  0.29345605588E+03  0.17852680362E+03 0.  0.
         24    2    3    3    0    0 -0.58040558000E+02 -0.14007203858E+03 -0.70837275828E+02  0.18578960779E+03  0.80690621203E+02 0.  0.
         -6    2    1    2    0  502  0.43532020324E+02  0.14459046487E+03  0.11475070495E+04  0.11702415856E+04  0.17289158612E+03 0.  0.
        -24    2    5    5    0    0  0.21665709669E+02 -0.38629352879E+01  0.25627835776E+03  0.26645664512E+03  0.69542949496E+02 0.  0.
          5    1    3    3  501    0  0.14508537676E+02 -0.45184262944E+01 -0.10648502338E+03  0.10766644810E+03  0.47000000000E+01 0. -1.
        -13    1    4    4    0    0  0.60720634396E+01 -0.10829525518E+02 -0.34996474432E+02  0.37133567025E+02  0.00000000000E+00 0.  1.
         14    1    4    4    0    0 -0.64112621439E+02 -0.12924251306E+03 -0.35840801396E+02  0.14865604076E+03  0.00000000000E+00 0. -1.
         -5    1    5    5    0  502  0.21866310655E+02  0.14845340016E+03  0.89122869177E+03  0.90378494045E+03  0.47000000000E+01 0.  1.
         11    1    6    6    0    0 -0.91302113238E+01 -0.55488509829E+01  0.27139842552E+01  0.11023439417E+02  0.00000000000E+00 0. -1.
        -12    1    6    6    0    0  0.30795920993E+02  0.16859156950E+01  0.25356437351E+03  0.25543320570E+03  0.00000000000E+00 0.  1.
<mgrwt>
<rscale>  2 0.23274731E+03</rscale>
<asrwt>0</asrwt>
<pdfrwt beam="1">  1       21 0.18722172E+00 0.23382314E+03</pdfrwt>
<pdfrwt beam="2">  1       21 0.37962531E-01 0.23382314E+03</pdfrwt>
<totfact> 0.10441778E+03</totfact>
</mgrwt>
</event>
<event>
12    1  0.1050690E-001  0.1787609E+03  0.7546771E-02  0.1169758E+00
         21   -1    0    0  501  502  0.00000000000E+00  0.00000000000E+00  0.85498960481E+02  0.85498960481E+02  0.00000000000E+00 0. -1.
         21   -1    0    0  502  503 -0.00000000000E+00 -0.00000000000E+00 -0.55054099599E+03  0.55054099599E+03  0.00000000000E+00 0. -1.
         -6    2    1    2    0  503 -0.14447715947E+02  0.10858183432E+02 -0.41726773090E+03  0.45394692168E+03  0.17784490943E+03 0.  0.
        -24    2    3    3    0    0 -0.63751983734E+02  0.49242170156E+02 -0.22873720506E+03  0.25527611247E+03  0.79725014063E+02 0.  0.
          6    2    1    2  501    0  0.14447715947E+02 -0.10858183432E+02 -0.47774304616E+02  0.18209303480E+03  0.17478230029E+03 0.  0.
         24    2    5    5    0    0  0.22311237253E+02  0.61229754696E+02 -0.29589068865E+02  0.10718443322E+03  0.79787941197E+02 0.  0.
          5    1    5    5  501    0 -0.78635213054E+01 -0.72087938128E+02 -0.18185235751E+02  0.74908601577E+02  0.47000000000E+01 0. -1.
        -11    1    6    6    0    0  0.20349091942E+02  0.56292844290E+02 -0.54960542345E+02  0.81262728702E+02  0.00000000000E+00 0.  1.
         12    1    6    6    0    0  0.19621453110E+01  0.49369104056E+01  0.25371473480E+02  0.25921704518E+02  0.00000000000E+00 0. -1.
         -5    1    3    3    0  503  0.49304267787E+02 -0.38383986724E+02 -0.18853052584E+03  0.19867080921E+03  0.47000000000E+01 0.  1.
         13    1    4    4    0    0 -0.60561630505E+02 -0.20111295090E+01 -0.10372500180E+03  0.12012756440E+03  0.00000000000E+00 0. -1.
        -14    1    4    4    0    0 -0.31903532292E+01  0.51253299665E+02 -0.12501220326E+03  0.13514854806E+03  0.00000000000E+00 0.  1.
<mgrwt>
<rscale>  2 0.17799429E+03</rscale>
<asrwt>0</asrwt>
<pdfrwt beam="1">  1       21 0.13153686E-01 0.17876087E+03</pdfrwt>
<pdfrwt beam="2">  1       21 0.84698615E-01 0.17876087E+03</pdfrwt>
<totfact> 0.60507019E+04</totfact>
</mgrwt>
</event>
<event>
12    1  0.1050690E-001  0.1826036E+03  0.7546771E-02  0.1165527E+00
         21   -1    0    0  503  502  0.00000000000E+00  0.00000000000E+00  0.45406894103E+02  0.45406894103E+02  0.00000000000E+00 0. -1.
         21   -1    0    0  501  503 -0.00000000000E+00 -0.00000000000E+00 -0.87268238201E+03  0.87268238201E+03  0.00000000000E+00 0.  1.
          6    2    1    2  501    0  0.39394494966E+02 -0.44865474985E+02 -0.59796288028E+03  0.62495391161E+03  0.17158947628E+03 0.  0.
         24    2    3    3    0    0  0.12160223515E+02 -0.96352327948E+02 -0.40793039357E+03  0.42613983371E+03  0.75870348202E+02 0.  0.
         -6    2    1    2    0  502 -0.39394494966E+02  0.44865474985E+02 -0.22931260763E+03  0.29313536450E+03  0.17256660402E+03 0.  0.
        -24    2    5    5    0    0  0.26694380504E+02  0.52081523685E+02 -0.72097400253E+02  0.12237669781E+03  0.79705369855E+02 0.  0.
          5    1    3    3  501    0  0.27234271452E+02  0.51486852963E+02 -0.19003248671E+03  0.19881407791E+03  0.47000000000E+01 0. -1.
        -13    1    4    4    0    0 -0.13996152960E+02 -0.20911298870E+02 -0.22679268318E+03  0.22818434623E+03  0.00000000000E+00 0.  1.
         14    1    4    4    0    0  0.26156376475E+02 -0.75441029078E+02 -0.18113771039E+03  0.19795548748E+03  0.00000000000E+00 0. -1.
         -5    1    5    5    0  502 -0.66088875470E+02 -0.72160487001E+01 -0.15721520738E+03  0.17075866669E+03  0.47000000000E+01 0.  1.
         13    1    6    6    0    0  0.28522547356E+02  0.61686433201E+02 -0.83300635042E+02  0.10750696511E+03  0.00000000000E+00 0. -1.
        -14    1    6    6    0    0 -0.18281668525E+01 -0.96049095160E+01  0.11203234788E+02  0.14869732700E+02  0.00000000000E+00 0.  1.
<mgrwt>
<rscale>  2 0.18237236E+03</rscale>
<asrwt>0</asrwt>
<pdfrwt beam="1">  1       21 0.69856765E-02 0.18260359E+03</pdfrwt>
<pdfrwt beam="2">  1       21 0.13425882E+00 0.18260359E+03</pdfrwt>
<totfact> 0.60785767E+04</totfact>
</mgrwt>
</event>
<event>
12    1  0.1050690E-001  0.2523151E+03  0.7546771E-02  0.1112798E+00
         21   -1    0    0  501  502  0.00000000000E+00  0.00000000000E+00  0.59331087239E+03  0.59331087239E+03  0.00000000000E+00 0.  1.
         21   -1    0    0  502  503 -0.00000000000E+00 -0.00000000000E+00 -0.17101777414E+03  0.17101777414E+03  0.00000000000E+00 0.  1.
         -6    2    1    2    0  503  0.49700110264E+02 -0.16746244679E+03  0.45055307873E+03  0.51639226188E+03  0.18206899608E+03 0.  0.
        -24    2    3    3    0    0  0.43668532156E+02 -0.17663437651E+03  0.46009828603E+03  0.50110484183E+03  0.79429125828E+02 0.  0.
          6    2    1    2  501    0 -0.49700110264E+02  0.16746244679E+03 -0.28259980474E+02  0.24793638465E+03  0.17366649733E+03 0.  0.
         24    2    5    5    0    0 -0.17413961228E+02  0.55524448095E+02 -0.73133321515E+02  0.12300353186E+03  0.79969842767E+02 0.  0.
          5    1    5    5  501    0 -0.32286149036E+02  0.11193799869E+03  0.44873341042E+02  0.12493285279E+03  0.47000000000E+01 0. -1.
        -13    1    6    6    0    0 -0.25966634878E+02  0.73556203560E+02 -0.64668914137E+02  0.10132546405E+03  0.00000000000E+00 0.  1.
         14    1    6    6    0    0  0.85526736502E+01 -0.18031755465E+02 -0.84644073777E+01  0.21678067810E+02  0.00000000000E+00 0. -1.
         -5    1    3    3    0  503  0.60315781081E+01  0.91719297225E+01 -0.95452073036E+01  0.15287420050E+02  0.47000000000E+01 0.  1.
         13    1    4    4    0    0  0.41824119611E+02 -0.29072183752E+02  0.12150497897E+03  0.13174941656E+03  0.00000000000E+00 0. -1.
        -14    1    4    4    0    0  0.18444125448E+01 -0.14756219276E+03  0.33859330706E+03  0.36935542527E+03  0.00000000000E+00 0.  1.
<mgrwt>
<rscale>  2 0.25080290E+03</rscale>
<asrwt>0</asrwt>
<pdfrwt beam="1">  1       21 0.91278594E-01 0.25231506E+03</pdfrwt>
<pdfrwt beam="2">  1       21 0.26310427E-01 0.25231506E+03</pdfrwt>
<totfact> 0.13477028E+04</totfact>
</mgrwt>
</event>
<event>
12    1  0.1050690E-001  0.2003194E+03  0.7546771E-02  0.1149888E+00
         21   -1    0    0  501  502  0.00000000000E+00  0.00000000000E+00  0.26718653193E+03  0.26718653193E+03  0.00000000000E+00 0.  1.
         21   -1    0    0  502  503 -0.00000000000E+00 -0.00000000000E+00 -0.19897386428E+03  0.19897386428E+03  0.00000000000E+00 0. -1.
         -6    2    1    2    0  503  0.48095571304E+02  0.86062415759E+02 -0.83168295314E+02  0.21507465849E+03  0.17210525847E+03 0.  0.
        -24    2    3    3    0    0 -0.31689576762E+02  0.51166156992E+02 -0.66738449440E+02  0.12633093441E+03  0.88787833954E+02 0.  0.
          6    2    1    2  501    0 -0.48095571304E+02 -0.86062415759E+02  0.15138096297E+03  0.25108573773E+03  0.17437869238E+03 0.  0.
         24    2    5    5    0    0 -0.53347864428E+02 -0.10901569021E+03  0.16854327537E+03  0.22157176887E+03  0.77180293703E+02 0.  0.
          5    1    5    5  501    0  0.52522931238E+01  0.22953274449E+02 -0.17162312400E+02  0.29513968861E+02  0.47000000000E+01 0. -1.
        -11    1    6    6    0    0  0.16676349868E+02 -0.44315051282E+02  0.69513464961E+02  0.84107349417E+02  0.00000000000E+00 0.  1.
         12    1    6    6    0    0 -0.70024214296E+02 -0.64700638926E+02  0.99029810406E+02  0.13746441945E+03  0.00000000000E+00 0. -1.
         -5    1    3    3    0  503  0.79785148066E+02  0.34896258767E+02 -0.16429845875E+02  0.88743724078E+02  0.47000000000E+01 0.  1.
         11    1    4    4    0    0  0.41652926789E+01  0.18152552136E+02 -0.74664142915E+02  0.76951926872E+02  0.00000000000E+00 0. -1.
        -12    1    4    4    0    0 -0.35854869441E+02  0.33013604855E+02  0.79256934752E+01  0.49379007536E+02  0.00000000000E+00 0.  1.
<mgrwt>
<rscale>  2 0.19982357E+03</rscale>
<asrwt>0</asrwt>
<pdfrwt beam="1">  1       21 0.41105620E-01 0.20031937E+03</pdfrwt>
<pdfrwt beam="2">  1       21 0.30611364E-01 0.20031937E+03</pdfrwt>
<totfact> 0.58186772E+04</totfact>
</mgrwt>
</event>
<event>
12    1  0.1050690E-001  0.1881611E+03  0.7546771E-02  0.1160266E+00
         21   -1    0    0  501  502  0.00000000000E+00  0.00000000000E+00  0.18378085464E+04  0.18378085464E+04  0.00000000000E+00 0. -1.
         21   -1    0    0  502  503 -0.00000000000E+00 -0.00000000000E+00 -0.25771334206E+02  0.25771334206E+02  0.00000000000E+00 0.  1.
         -6    2    1    2    0  503  0.70867168045E+02  0.60869214768E+00  0.43457769876E+03  0.47332835926E+03  0.17366471551E+03 0.  0.
        -24    2    3    3    0    0  0.87017762605E+02 -0.22841340167E+02  0.17083641955E+03  0.20801289029E+03  0.77398077829E+02 0.  0.
          6    2    1    2  501    0 -0.70867168045E+02 -0.60869214768E+00  0.13774595134E+04  0.13902515213E+04  0.17430449055E+03 0.  0.
         24    2    5    5    0    0 -0.93403676911E+02 -0.82451058340E+01  0.61887572314E+03  0.63128006869E+03  0.81945932168E+02 0.  0.
          5    1    5    5  501    0  0.22536508866E+02  0.76364136863E+01  0.75858379030E+03  0.75897145266E+03  0.47000000000E+01 0. -1.
        -11    1    6    6    0    0 -0.98655558861E+02 -0.23664523531E+02  0.43455387711E+03  0.44623984704E+03  0.00000000000E+00 0.  1.
         12    1    6    6    0    0  0.52518819500E+01  0.15419417697E+02  0.18432184603E+03  0.18504022166E+03  0.00000000000E+00 0. -1.
         -5    1    3    3    0  503 -0.16150594560E+02  0.23450032315E+02  0.26374127921E+03  0.26531546898E+03  0.47000000000E+01 0.  1.
         13    1    4    4    0    0  0.79377785648E+02 -0.43225953745E+02  0.15983736667E+03  0.18362271024E+03  0.00000000000E+00 0. -1.
        -14    1    4    4    0    0  0.76399769568E+01  0.20384613578E+02  0.10999052884E+02  0.24390180052E+02  0.00000000000E+00 0.  1.
<mgrwt>
<rscale>  2 0.18801275E+03</rscale>
<asrwt>0</asrwt>
<pdfrwt beam="1">  1       21 0.28273967E+00 0.18816105E+03</pdfrwt>
<pdfrwt beam="2">  1       21 0.39648221E-02 0.18816105E+03</pdfrwt>
<totfact> 0.17141756E+04</totfact>
</mgrwt>
</event>
<event>
12    1  0.1050690E-001  0.2558170E+03  0.7546771E-02  0.1109997E+00
         21   -1    0    0  503  502  0.00000000000E+00  0.00000000000E+00  0.23124757631E+03  0.23124757631E+03  0.00000000000E+00 0. -1.
         21   -1    0    0  501  503 -0.00000000000E+00 -0.00000000000E+00 -0.36699774793E+03  0.36699774793E+03  0.00000000000E+00 0.  1.
          6    2    1    2  501    0 -0.39780176593E+02 -0.18162637322E+03  0.77346338031E+02  0.26530020563E+03  0.17271693953E+03 0.  0.
         24    2    3    3    0    0 -0.12443428786E+02 -0.51748785278E+02 -0.23439104907E+02  0.98581037151E+02  0.79599331337E+02 0.  0.
         -6    2    1    2    0  502  0.39780176593E+02  0.18162637322E+03 -0.21309650965E+03  0.33294511861E+03  0.17570352212E+03 0.  0.
        -24    2    5    5    0    0  0.55593615338E+01  0.19696331403E+03 -0.20307073573E+03  0.29384406902E+03  0.79253767194E+02 0.  0.
          5    1    3    3  501    0 -0.27336747808E+02 -0.12987758794E+03  0.10078544294E+03  0.16671916848E+03  0.47000000000E+01 0. -1.
        -11    1    4    4    0    0  0.25036878804E+01 -0.40419068678E+02 -0.51075083811E+02  0.65181544567E+02  0.00000000000E+00 0.  1.
         12    1    4    4    0    0 -0.14947116666E+02 -0.11329716600E+02  0.27635978904E+02  0.33399492584E+02  0.00000000000E+00 0. -1.
         -5    1    5    5    0  502  0.34220815060E+02 -0.15336940805E+02 -0.10025773916E+02  0.39101049593E+02  0.47000000000E+01 0.  1.
         11    1    6    6    0    0  0.14025051210E+02  0.16564973738E+02  0.50082948550E+00  0.21710625199E+02  0.00000000000E+00 0. -1.
        -12    1    6    6    0    0 -0.84656896758E+01  0.18039834029E+03 -0.20357156522E+03  0.27213344382E+03  0.00000000000E+00 0.  1.
<mgrwt>
<rscale>  2 0.25530495E+03</rscale>
<asrwt>0</asrwt>
<pdfrwt beam="1">  1       21 0.35576550E-01 0.25581698E+03</pdfrwt>
<pdfrwt beam="2">  1       21 0.56461192E-01 0.25581698E+03</pdfrwt>
<totfact> 0.21737479E+04</totfact>
</mgrwt>
</event>
<event>
12    1  0.1050690E-001  0.2219783E+03  0.7546771E-02  0.1132828E+00
         21   -1    0    0  503  502  0.00000000000E+00  0.00000000000E+00  0.60712529736E+03  0.60712529736E+03  0.00000000000E+00 0. -1.
         21   -1    0    0  501  503 -0.00000000000E+00 -0.00000000000E+00 -0.82954064109E+02  0.82954064109E+02  0.00000000000E+00 0.  1.
          6    2    1    2  501    0 -0.11430842159E+03 -0.78820088608E+02  0.19966755381E+03  0.29691652735E+03  0.17033282288E+03 0.  0.
         24    2    3    3    0    0 -0.14034647627E+03 -0.51146716580E+02  0.11663811400E+03  0.20548472935E+03  0.79412872623E+02 0.  0.
         -6    2    1    2    0  502  0.11430842159E+03  0.78820088608E+02  0.32450367944E+03  0.39316283412E+03  0.17319166998E+03 0.  0.
        -24    2    5    5    0    0  0.16915510708E+02  0.79051349941E+02  0.23288725569E+03  0.25936787281E+03  0.80622386179E+02 0.  0.
          5    1    3    3  501    0  0.26038054678E+02 -0.27673372029E+02  0.83029439808E+02  0.91431798001E+02  0.47000000000E+01 0. -1.
        -11    1    4    4    0    0 -0.18717209757E+02  0.19075947381E+02  0.31249972342E+02  0.41119174128E+02  0.00000000000E+00 0.  1.
         12    1    4    4    0    0 -0.12162926651E+03 -0.70222663961E+02  0.85388141661E+02  0.16436555522E+03  0.00000000000E+00 0. -1.
         -5    1    5    5    0  502  0.97392910882E+02 -0.23126133257E+00  0.91616423753E+02  0.13379496132E+03  0.47000000000E+01 0.  1.
         11    1    6    6    0    0 -0.25028819572E+02  0.44651488113E+02  0.63824851491E+02  0.81815700618E+02  0.00000000000E+00 0. -1.
        -12    1    6    6    0    0  0.41944330280E+02  0.34399861828E+02  0.16906240420E+03  0.17755217219E+03  0.00000000000E+00 0.  1.
<mgrwt>
<rscale>  2 0.22142041E+03</rscale>
<asrwt>0</asrwt>
<pdfrwt beam="1">  1       21 0.93403889E-01 0.22197832E+03</pdfrwt>
<pdfrwt beam="2">  1       21 0.12762164E-01 0.22197832E+03</pdfrwt>
<totfact> 0.49918090E+04</totfact>
</mgrwt>
</event>
<event>
12    1  0.1050690E-001  0.1906083E+03  0.7546771E-02  0.1157958E+00
         21   -1    0    0  501  502  0.00000000000E+00  0.00000000000E+00  0.17336681400E+03  0.17336681400E+03  0.00000000000E+00 0. -1.
         21   -1    0    0  502  503 -0.00000000000E+00 -0.00000000000E+00 -0.23154330205E+03  0.23154330205E+03  0.00000000000E+00 0. -1.
         -6    2    1    2    0  503 -0.80038070575E+02 -0.16871614673E+01 -0.91754979980E+02  0.21136677695E+03  0.17276573385E+03 0.  0.
        -24    2    3    3    0    0 -0.11698341250E+03  0.24405197075E+02 -0.66517296348E+02  0.15935908387E+03  0.81792630817E+02 0.  0.
          6    2    1    2  501    0  0.80038070575E+02  0.16871614673E+01  0.33578491924E+02  0.19354333910E+03  0.17298141442E+03 0.  0.
         24    2    5    5    0    0  0.46010378878E+02 -0.49906970659E+02 -0.25413977548E+02  0.10797442111E+03  0.80030898248E+02 0.  0.
          5    1    5    5  501    0  0.34027691697E+02  0.51594132126E+02  0.58992469472E+02  0.85568917993E+02  0.47000000000E+01 0. -1.
        -11    1    6    6    0    0  0.23444038834E+02 -0.70534377861E+02 -0.19343332662E+02  0.76804205195E+02  0.00000000000E+00 0.  1.
         12    1    6    6    0    0  0.22566340044E+02  0.20627407202E+02 -0.60706448858E+01  0.31170215915E+02  0.00000000000E+00 0. -1.
         -5    1    3    3    0  503  0.36945341923E+02 -0.26092358543E+02 -0.25237683632E+02  0.52007693077E+02  0.47000000000E+01 0.  1.
         11    1    4    4    0    0 -0.76541033011E+02 -0.25389941591E+02 -0.38400681911E+02  0.89318482072E+02  0.00000000000E+00 0. -1.
        -12    1    4    4    0    0 -0.40442379486E+02  0.49795138667E+02 -0.28116614437E+02  0.70040601802E+02  0.00000000000E+00 0.  1.
<mgrwt>
<rscale>  2 0.19055931E+03</rscale>
<asrwt>0</asrwt>
<pdfrwt beam="1">  1       21 0.26671818E-01 0.19060826E+03</pdfrwt>
<pdfrwt beam="2">  1       21 0.35622046E-01 0.19060826E+03</pdfrwt>
<totfact> 0.10175397E+05</totfact>
</mgrwt>
</event>
<event>
12    1  0.1050690E-001  0.1798400E+03  0.7546771E-02  0.1169263E+00
         21   -1    0    0  503  502  0.00000000000E+00  0.00000000000E+00  0.68922039434E+03  0.68922039434E+03  0.00000000000E+00 0. -1.
         21   -1    0    0  501  503 -0.00000000000E+00 -0.00000000000E+00 -0.50386370243E+02  0.50386370243E+02  0.00000000000E+00 0.  1.
          6    2    1    2  501    0 -0.47744414708E+02  0.11650808363E+02  0.42961824940E+03  0.46371969796E+03  0.16747790180E+03 0.  0.
         24    2    3    3    0    0  0.64256502092E+01 -0.46785363383E+02  0.19252994290E+03  0.21355547754E+03  0.79422942944E+02 0.  0.
         -6    2    1    2    0  502  0.47744414708E+02 -0.11650808363E+02  0.20921577469E+03  0.27588706662E+03  0.17299468973E+03 0.  0.
        -24    2    5    5    0    0 -0.27009338797E+02 -0.15095350419E+02  0.50175464816E+02  0.10005789185E+03  0.80849430829E+02 0.  0.
          5    1    3    3  501    0 -0.54170064918E+02  0.58436171746E+02  0.23708830650E+03  0.25016422042E+03  0.47000000000E+01 0. -1.
        -13    1    4    4    0    0  0.40772813885E+02 -0.18188175820E+02  0.12348049016E+03  0.13130370727E+03  0.00000000000E+00 0.  1.
         14    1    4    4    0    0 -0.34347163676E+02 -0.28597187563E+02  0.69049452735E+02  0.82251770267E+02  0.00000000000E+00 0. -1.
         -5    1    5    5    0  502  0.74753753505E+02  0.34445420563E+01  0.15904030988E+03  0.17582917477E+03  0.47000000000E+01 0.  1.
         11    1    6    6    0    0 -0.15242689926E+02  0.11744773150E+02  0.64592293205E+02  0.67397653031E+02  0.00000000000E+00 0. -1.
        -12    1    6    6    0    0 -0.11766648871E+02 -0.26840123569E+02 -0.14416828390E+02  0.32660238818E+02  0.00000000000E+00 0.  1.
<mgrwt>
<rscale>  2 0.17850005E+03</rscale>
<asrwt>0</asrwt>
<pdfrwt beam="1">  1       21 0.10603390E+00 0.17984002E+03</pdfrwt>
<pdfrwt beam="2">  1       21 0.77517497E-02 0.17984002E+03</pdfrwt>
<totfact> 0.90959672E+04</totfact>
</mgrwt>
</event>
<event>
12    1  0.1050690E-001  0.2134666E+03  0.7546771E-02  0.1140203E+00
         21   -1    0    0  503  502  0.00000000000E+00  0.00000000000E+00  0.11608429872E+03  0.11608429872E+03  0.00000000000E+00 0.  1.
         21   -1    0    0  501  503 -0.00000000000E+00 -0.00000000000E+00 -0.38985149655E+03  0.38985149655E+03  0.00000000000E+00 0. -1.
          6    2    1    2  501    0 -0.80304443909E+02 -0.78415787776E+02 -0.17920885846E+03  0.27871817074E+03  0.18157688252E+03 0.  0.
         24    2    3    3    0    0 -0.68002113937E+02 -0.44892481087E+01 -0.25533705405E+02  0.10767834130E+03  0.79361289205E+02 0.  0.
         -6    2    1    2    0  502  0.80304443909E+02  0.78415787776E+02 -0.94558339375E+02  0.22721762453E+03  0.17346103271E+03 0.  0.
        -24    2    5    5    0    0  0.19480471056E+02  0.10815577849E+03 -0.97636763809E+02  0.15927949519E+03  0.61317687249E+02 0.  0.
          5    1    3    3  501    0 -0.12302329972E+02 -0.73926539667E+02 -0.15367515305E+03  0.17103982944E+03  0.47000000000E+01 0. -1.
        -11    1    4    4    0    0 -0.62348556855E+02 -0.87568005740E+01  0.16472009686E+02  0.65079575916E+02  0.00000000000E+00 0.  1.
         12    1    4    4    0    0 -0.56535570812E+01  0.42675524653E+01 -0.42005715091E+02  0.42598765381E+02  0.00000000000E+00 0. -1.
         -5    1    5    5    0  502  0.60823972853E+02 -0.29739990712E+02  0.30784244333E+01  0.67938129339E+02  0.47000000000E+01 0.  1.
         13    1    6    6    0    0 -0.19452368609E+02  0.16938867381E+02 -0.28157357837E+02  0.38185817695E+02  0.00000000000E+00 0. -1.
        -14    1    6    6    0    0  0.38932839665E+02  0.91216911107E+02 -0.69479405972E+02  0.12109367750E+03  0.00000000000E+00 0.  1.
<mgrwt>
<rscale>  2 0.21173074E+03</rscale>
<asrwt>0</asrwt>
<pdfrwt beam="1">  1       21 0.17859123E-01 0.21346663E+03</pdfrwt>
<pdfrwt beam="2">  1       21 0.59977153E-01 0.21346663E+03</pdfrwt>
<totfact> 0.73202673E+04</totfact>
</mgrwt>
</event>
<event>
12    1  0.1050690E-001  0.2060631E+03  0.7546771E-02  0.1144805E+00
         21   -1    0    0  501  502  0.00000000000E+00  0.00000000000E+00  0.26716266889E+03  0.26716266889E+03  0.00000000000E+00 0.  1.
         21   -1    0    0  502  503 -0.00000000000E+00 -0.00000000000E+00 -0.60685085333E+03  0.60685085333E+03  0.00000000000E+00 0.  1.
         -6    2    1    2    0  503  0.31926526497E+02  0.11190711640E+03 -0.54546328807E+03  0.58308850051E+03  0.17005732859E+03 0.  0.
        -24    2    3    3    0    0 -0.58835148840E+01  0.43268591317E+02 -0.12309430960E+03  0.15348578832E+03  0.80615702056E+02 0.  0.
          6    2    1    2  501    0 -0.31926526497E+02 -0.11190711640E+03  0.20577510362E+03  0.29092502171E+03  0.16956258193E+03 0.  0.
         24    2    5    5    0    0  0.43684167007E+02 -0.75491914623E+02  0.98707558931E+02  0.15480524718E+03  0.81327404626E+02 0.  0.
          5    1    5    5  501    0 -0.75610693504E+02 -0.36415201772E+02  0.10706754469E+03  0.13611977453E+03  0.47000000000E+01 0. -1.
        -11    1    6    6    0    0 -0.10973907151E+02 -0.27577416409E+02 -0.29588900319E+01  0.29827764988E+02  0.00000000000E+00 0.  1.
         12    1    6    6    0    0  0.54658074158E+02 -0.47914498214E+02  0.10166644896E+03  0.12497748219E+03  0.00000000000E+00 0. -1.
         -5    1    3    3    0  503  0.37810041381E+02  0.68638525078E+02 -0.42236897847E+03  0.42960271219E+03  0.47000000000E+01 0.  1.
         11    1    4    4    0    0 -0.26146446458E+02  0.91959730075E+01 -0.10728467055E+03  0.11080705355E+03  0.00000000000E+00 0. -1.
        -12    1    4    4    0    0  0.20262931574E+02  0.34072618309E+02 -0.15809639051E+02  0.42678734767E+02  0.00000000000E+00 0.  1.
<mgrwt>
<rscale>  2 0.20596100E+03</rscale>
<asrwt>0</asrwt>
<pdfrwt beam="1">  1       21 0.41101949E-01 0.20606310E+03</pdfrwt>
<pdfrwt beam="2">  1       21 0.93361669E-01 0.20606310E+03</pdfrwt>
<totfact> 0.54436886E+03</totfact>
</mgrwt>
</event>
<event>
12    1  0.1050690E-001  0.2515501E+03  0.7546771E-02  0.1112422E+00
         21   -1    0    0  503  502  0.00000000000E+00  0.00000000000E+00  0.36095604162E+03  0.36095604162E+03  0.00000000000E+00 0.  1.
         21   -1    0    0  501  503 -0.00000000000E+00 -0.00000000000E+00 -0.35358506617E+03  0.35358506617E+03  0.00000000000E+00 0.  1.
          6    2    1    2  501    0  0.18376746763E+03 -0.21563071361E+01 -0.25029737125E+03  0.35444330587E+03  0.17089807255E+03 0.  0.
         24    2    3    3    0    0  0.18307195029E+03  0.41179241227E+02 -0.18250982603E+03  0.27384743263E+03  0.80445701362E+02 0.  0.
         -6    2    1    2    0  502 -0.18376746763E+03  0.21563071361E+01  0.25766834670E+03  0.36009780192E+03  0.17176238888E+03 0.  0.
        -24    2    5    5    0    0 -0.10554897970E+03 -0.30060592592E+01  0.24751479845E+03  0.28091468236E+03  0.80621708033E+02 0.  0.
          5    1    3    3  501    0  0.69551733785E+00 -0.43335548364E+02 -0.67787545219E+02  0.80595873239E+02  0.47000000000E+01 0. -1.
        -11    1    4    4    0    0  0.83782122881E+02 -0.54569954712E+01 -0.12335581386E+03  0.14921755837E+03  0.00000000000E+00 0.  1.
         12    1    4    4    0    0  0.99289827413E+02  0.46636236699E+02 -0.59154012170E+02  0.12462987426E+03  0.00000000000E+00 0. -1.
         -5    1    5    5    0  502 -0.78218487929E+02  0.51623663953E+01  0.10153548253E+02  0.79183119557E+02  0.47000000000E+01 0.  1.
         13    1    6    6    0    0  0.11755621399E+02 -0.96706043671E+01  0.32629992677E+02  0.36005994576E+02  0.00000000000E+00 0. -1.
        -14    1    6    6    0    0 -0.11730460110E+03  0.66645451079E+01  0.21488480577E+03  0.24490868778E+03  0.00000000000E+00 0.  1.
<mgrwt>
<rscale>  2 0.25140262E+03</rscale>
<asrwt>0</asrwt>
<pdfrwt beam="1">  1       21 0.55531699E-01 0.25155009E+03</pdfrwt>
<pdfrwt beam="2">  1       21 0.54397702E-01 0.25155009E+03</pdfrwt>
<totfact> 0.94036951E+03</totfact>
</mgrwt>
</event>
<event>
12    1  0.1050690E-001  0.2086474E+03  0.7546771E-02  0.1142705E+00
         21   -1    0    0  503  502  0.00000000000E+00  0.00000000000E+00  0.59199126576E+03  0.59199126576E+03  0.00000000000E+00 0.  1.
         21   -1    0    0  501  503 -0.00000000000E+00 -0.00000000000E+00 -0.11485366050E+03  0.11485366050E+03  0.00000000000E+00 0.  1.
          6    2    1    2  501    0  0.27901317501E+02  0.11168046910E+03  0.26426464756E+02  0.21031428684E+03  0.17401933948E+03 0.  0.
         24    2    3    3    0    0  0.36647468805E+02  0.14705697019E+03  0.31618263492E+02  0.17320584082E+03  0.77664401487E+02 0.  0.
         -6    2    1    2    0  502 -0.27901317501E+02 -0.11168046910E+03  0.45071114050E+03  0.49653063942E+03  0.17364081608E+03 0.  0.
        -24    2    5    5    0    0 -0.44986701566E+02  0.11527499170E+02  0.15921200836E+03  0.17956700139E+03  0.68841541423E+02 0.  0.
          5    1    3    3  501    0 -0.87461513042E+01 -0.35376501089E+02 -0.51917987358E+01  0.37108446020E+02  0.47000000000E+01 0. -1.
        -11    1    4    4    0    0  0.51454489647E+02  0.11430183797E+03  0.47314549603E+02  0.13398186920E+03  0.00000000000E+00 0.  1.
         12    1    4    4    0    0 -0.14807020842E+02  0.32755132212E+02 -0.15696286111E+02  0.39223971626E+02  0.00000000000E+00 0. -1.
         -5    1    5    5    0  502  0.17085384065E+02 -0.12320796827E+03  0.29149913214E+03  0.31696363803E+03  0.47000000000E+01 0.  1.
         13    1    6    6    0    0 -0.50430599310E+02 -0.56960534717E+01  0.59376619379E+02  0.78110647807E+02  0.00000000000E+00 0. -1.
        -14    1    6    6    0    0  0.54438977447E+01  0.17223552642E+02  0.99835388985E+02  0.10145635358E+03  0.00000000000E+00 0.  1.
<mgrwt>
<rscale>  2 0.20856846E+03</rscale>
<asrwt>0</asrwt>
<pdfrwt beam="1">  1       21 0.91075577E-01 0.20864741E+03</pdfrwt>
<pdfrwt beam="2">  1       21 0.17669794E-01 0.20864741E+03</pdfrwt>
<totfact> 0.29426486E+04</totfact>
</mgrwt>
</event>
<event>
12    1  0.1050690E-001  0.1874364E+03  0.7546771E-02  0.1161551E+00
         21   -1    0    0  501  502  0.00000000000E+00  0.00000000000E+00  0.75113606464E+03  0.75113606464E+03  0.00000000000E+00 0. -1.
         21   -1    0    0  502  503 -0.00000000000E+00 -0.00000000000E+00 -0.54939927664E+02  0.54939927664E+02  0.00000000000E+00 0. -1.
         -6    2    1    2    0  503  0.34084854032E+02 -0.62815325644E+02  0.18259923235E+03  0.25934552906E+03  0.16973532742E+03 0.  0.
        -24    2    3    3    0    0  0.79931650182E+02 -0.63396688139E+02  0.99956530498E+02  0.16471903768E+03  0.82053912879E+02 0.  0.
          6    2    1    2  501    0 -0.34084854032E+02  0.62815325644E+02  0.51359690462E+03  0.54673046324E+03  0.17327687841E+03 0.  0.
         24    2    5    5    0    0 -0.26492614419E+02 -0.29859795986E+02  0.19528751803E+03  0.21508415185E+03  0.80811581116E+02 0.  0.
          5    1    5    5  501    0 -0.75922396131E+01  0.92675121630E+02  0.31830938659E+03  0.33164631140E+03  0.47000000000E+01 0. -1.
        -13    1    6    6    0    0  0.80702581005E+01  0.23487960909E+02  0.75437524597E+02  0.79420611247E+02  0.00000000000E+00 0.  1.
         14    1    6    6    0    0 -0.34562872519E+02 -0.53347756894E+02  0.11984999343E+03  0.13566354060E+03  0.00000000000E+00 0. -1.
         -5    1    3    3    0  503 -0.45846796150E+02  0.58136249488E+00  0.82642701857E+02  0.94626491374E+02  0.47000000000E+01 0.  1.
         13    1    4    4    0    0  0.25486052399E+02 -0.53557814035E+02  0.91071056003E+02  0.10868263685E+03  0.00000000000E+00 0. -1.
        -14    1    4    4    0    0  0.54445597782E+02 -0.98388741040E+01  0.88854744948E+01  0.56036400835E+02  0.00000000000E+00 0.  1.
<mgrwt>
<rscale>  2 0.18661377E+03</rscale>
<asrwt>0</asrwt>
<pdfrwt beam="1">  1       21 0.11555939E+00 0.18743644E+03</pdfrwt>
<pdfrwt beam="2">  1       21 0.84522971E-02 0.18743644E+03</pdfrwt>
<totfact> 0.63326357E+04</totfact>
</mgrwt>
</event>
<event>
12    1  0.1050690E-001  0.2240552E+03  0.7546771E-02  0.1131070E+00
         21   -1    0    0  501  502  0.00000000000E+00  0.00000000000E+00  0.63448953202E+03  0.63448953202E+03  0.00000000000E+00 0.  1.
         21   -1    0    0  502  503 -0.00000000000E+00 -0.00000000000E+00 -0.48178085327E+03  0.48178085327E+03  0.00000000000E+00 0. -1.
         -6    2    1    2    0  503  0.57207182313E+02  0.12826016157E+03 -0.43413731841E+03  0.48810723746E+03  0.17334974264E+03 0.  0.
        -24    2    3    3    0    0  0.86483111883E+02  0.46914590900E+02 -0.32370770094E+03  0.34778271240E+03  0.80534662815E+02 0.  0.
          6    2    1    2  501    0 -0.57207182313E+02 -0.12826016157E+03  0.58684599715E+03  0.62816314783E+03  0.17457773388E+03 0.  0.
         24    2    5    5    0    0 -0.88142383997E+02 -0.14452983755E+03  0.45028549135E+03  0.48712219348E+03  0.76635852306E+02 0.  0.
          5    1    5    5  501    0  0.30935201684E+02  0.16269675987E+02  0.13656050580E+03  0.14104095435E+03  0.47000000000E+01 0. -1.
        -13    1    6    6    0    0  0.17404068812E+01 -0.42880824544E+02  0.58852853669E+02  0.72838537291E+02  0.00000000000E+00 0.  1.
         14    1    6    6    0    0 -0.89882790879E+02 -0.10164901301E+03  0.39143263768E+03  0.41428365619E+03  0.00000000000E+00 0. -1.
         -5    1    3    3    0  503 -0.29275929570E+02  0.81345570667E+02 -0.11042961746E+03  0.14032452506E+03  0.47000000000E+01 0.  1.
         13    1    4    4    0    0  0.76537342170E+02  0.64609424724E+02 -0.30147150207E+03  0.31767500542E+03  0.00000000000E+00 0. -1.
        -14    1    4    4    0    0  0.99457697134E+01 -0.17694833824E+02 -0.22236198877E+02  0.30107706982E+02  0.00000000000E+00 0.  1.
<mgrwt>
<rscale>  2 0.22381591E+03</rscale>
<asrwt>0</asrwt>
<pdfrwt beam="1">  1       21 0.97613774E-01 0.22405516E+03</pdfrwt>
<pdfrwt beam="2">  1       21 0.74120131E-01 0.22405516E+03</pdfrwt>
<totfact> 0.13786382E+03</totfact>
</mgrwt>
</event>
<event>
12    1  0.1050690E-001  0.1782000E+03  0.7546771E-02  0.1170245E+00
         21   -1    0    0  503  502  0.00000000000E+00  0.00000000000E+00  0.10140917142E+03  0.10140917142E+03  0.00000000000E+00 0. -1.
         21   -1    0    0  501  503 -0.00000000000E+00 -0.00000000000E+00 -0.68278551507E+03  0.68278551507E+03  0.00000000000E+00 0. -1.
          6    2    1    2  501    0  0.10220500863E+02  0.40488209529E+02 -0.58211112981E+03  0.60877630672E+03  0.17323818985E+03 0.  0.
         24    2    3    3    0    0  0.29077340961E+02  0.33175194878E+02 -0.14554976373E+03  0.17172141663E+03  0.79733467836E+02 0.  0.
         -6    2    1    2    0  502 -0.10220500863E+02 -0.40488209529E+02  0.73478616237E+00  0.17541837978E+03  0.17037404234E+03 0.  0.
        -24    2    5    5    0    0 -0.45956694233E+02 -0.53654827255E+02 -0.44165212563E+02  0.11635455646E+03  0.81221663218E+02 0.  0.
          5    1    3    3  501    0 -0.18856840098E+02  0.73130146515E+01 -0.43656136607E+03  0.43705489009E+03  0.47000000000E+01 0. -1.
        -11    1    4    4    0    0  0.32756711286E+02 -0.11310956120E+02 -0.23782907422E+02  0.42030543038E+02  0.00000000000E+00 0.  1.
         12    1    4    4    0    0 -0.36793703246E+01  0.44486150998E+02 -0.12176685631E+03  0.12969087359E+03  0.00000000000E+00 0. -1.
         -5    1    5    5    0  502  0.35736193370E+02  0.13166617725E+02  0.44899998726E+02  0.59063823314E+02  0.47000000000E+01 0.  1.
         11    1    6    6    0    0 -0.45419103740E+02 -0.64636612369E+02 -0.89989461299E+01  0.79509544550E+02  0.00000000000E+00 0. -1.
        -12    1    6    6    0    0 -0.53759049258E+00  0.10981785115E+02 -0.35166266433E+02  0.36845011911E+02  0.00000000000E+00 0.  1.
<mgrwt>
<rscale>  2 0.17750006E+03</rscale>
<asrwt>0</asrwt>
<pdfrwt beam="1">  1       21 0.15601412E-01 0.17819996E+03</pdfrwt>
<pdfrwt beam="2">  1       21 0.10504392E+00 0.17819996E+03</pdfrwt>
<totfact> 0.26878100E+04</totfact>
</mgrwt>
</event>
<event>
12    1  0.1050690E-001  0.1935798E+03  0.7546771E-02  0.1155503E+00
         21   -1    0    0  501  502  0.00000000000E+00  0.00000000000E+00  0.78831400273E+03  0.78831400273E+03  0.00000000000E+00 0.  1.
         21   -1    0    0  502  503 -0.00000000000E+00 -0.00000000000E+00 -0.62686286820E+02  0.62686286820E+02  0.00000000000E+00 0.  1.
         -6    2    1    2    0  503 -0.72088493542E+02 -0.44818685624E+02  0.15260516950E+03  0.24649843585E+03  0.17397607777E+03 0.  0.
        -24    2    3    3    0    0 -0.29133442935E+02 -0.49545794299E+02  0.16670862532E+03  0.20079855188E+03  0.96045559251E+02 0.  0.
          6    2    1    2  501    0  0.72088493542E+02  0.44818685624E+02  0.57302254641E+03  0.60450185370E+03  0.17280679080E+03 0.  0.
         24    2    5    5    0    0  0.54337070142E+02  0.38251735460E+02  0.57557196605E+03  0.58483392529E+03  0.79573359916E+02 0.  0.
          5    1    5    5  501    0  0.17751423399E+02  0.65669501639E+01 -0.25494196456E+01  0.19667928403E+02  0.47000000000E+01 0. -1.
        -13    1    6    6    0    0  0.70189056510E+02  0.99762603905E+01  0.41685210102E+03  0.42283767991E+03  0.00000000000E+00 0.  1.
         14    1    6    6    0    0 -0.15851986368E+02  0.28275475070E+02  0.15871986503E+03  0.16199624538E+03  0.00000000000E+00 0. -1.
         -5    1    3    3    0  503 -0.42955050606E+02  0.47271086742E+01 -0.14103455819E+02  0.45699883972E+02  0.47000000000E+01 0.  1.
         13    1    4    4    0    0  0.19169817063E+02 -0.50478548373E+02  0.12789520629E+03  0.13882632864E+03  0.00000000000E+00 0. -1.
        -14    1    4    4    0    0 -0.48303259998E+02  0.93275407469E+00  0.38813419031E+02  0.61972223242E+02  0.00000000000E+00 0.  1.
<mgrwt>
<rscale>  2 0.19331672E+03</rscale>
<asrwt>0</asrwt>
<pdfrwt beam="1">  1       21 0.12127907E+00 0.19357981E+03</pdfrwt>
<pdfrwt beam="2">  1       21 0.96440447E-02 0.19357981E+03</pdfrwt>
<totfact> 0.44475461E+04</totfact>
</mgrwt>
</event>
<event>
12    1  0.1050690E-001  0.2279583E+03  0.7546771E-02  0.1128495E+00
         21   -1    0    0  501  502  0.00000000000E+00  0.00000000000E+00  0.15171531799E+03  0.15171531799E+03  0.00000000000E+00 0. -1.
         21   -1    0    0  502  503 -0.00000000000E+00 -0.00000000000E+00 -0.71125388134E+03  0.71125388134E+03  0.00000000000E+00 0. -1.
         -6    2    1    2    0  503  0.10079144610E+02  0.14518378697E+03 -0.59256484965E+03  0.63490007194E+03  0.17545677289E+03 0.  0.
        -24    2    3    3    0    0  0.15000923999E+02  0.16823654417E+03 -0.57685237975E+03  0.60618378323E+03  0.78559203873E+02 0.  0.
          6    2    1    2  501    0 -0.10079144610E+02 -0.14518378697E+03  0.33026286302E+02  0.22806912740E+03  0.17246701172E+03 0.  0.
         24    2    5    5    0    0 -0.73239759515E+01 -0.71561722467E+00  0.58871115680E+01  0.80973009745E+02  0.80422742385E+02 0.  0.
          5    1    5    5  501    0 -0.27551686587E+01 -0.14446816974E+03  0.27139174734E+02  0.14709611765E+03  0.47000000000E+01 0. -1.
        -11    1    6    6    0    0  0.25435505786E+01 -0.19259038367E+02  0.37955227004E+02  0.42637770407E+02  0.00000000000E+00 0.  1.
         12    1    6    6    0    0 -0.98675265301E+01  0.18543421143E+02 -0.32068115436E+02  0.38335239338E+02  0.00000000000E+00 0. -1.
         -5    1    3    3    0  503 -0.49217793889E+01 -0.23052757200E+02 -0.15712469902E+02  0.28716288710E+02  0.47000000000E+01 0.  1.
         11    1    4    4    0    0  0.38155135471E+02  0.90118207248E+02 -0.23121183828E+03  0.25106975087E+03  0.00000000000E+00 0. -1.
        -12    1    4    4    0    0 -0.23154211472E+02  0.78118336917E+02 -0.34564054147E+03  0.35511403236E+03  0.00000000000E+00 0.  1.
<mgrwt>
<rscale>  2 0.22738288E+03</rscale>
<asrwt>0</asrwt>
<pdfrwt beam="1">  1       21 0.23340817E-01 0.22795833E+03</pdfrwt>
<pdfrwt beam="2">  1       21 0.10942368E+00 0.22795833E+03</pdfrwt>
<totfact> 0.11151996E+04</totfact>
</mgrwt>
</event>
<event>
12    1  0.1050690E-001  0.1772045E+03  0.7546771E-02  0.1170552E+00
         21   -1    0    0  503  502  0.00000000000E+00  0.00000000000E+00  0.45510511361E+03  0.45510511361E+03  0.00000000000E+00 0.  1.
         21   -1    0    0  501  503 -0.00000000000E+00 -0.00000000000E+00 -0.31414692167E+03  0.31414692167E+03  0.00000000000E+00 0.  1.
          6    2    1    2  501    0  0.37186580582E+02 -0.12109982481E+02 -0.26930661125E+03  0.32237785192E+03  0.17283499383E+03 0.  0.
         24    2    3    3    0    0 -0.30776809167E+02  0.17200153383E+02 -0.21112271610E+03  0.22811459255E+03  0.78869568439E+02 0.  0.
         -6    2    1    2    0  502 -0.37186580582E+02  0.12109982481E+02  0.41026480319E+03  0.44687418336E+03  0.17277104378E+03 0.  0.
        -24    2    5    5    0    0  0.44503339249E+02  0.20983380204E+02  0.17745502041E+03  0.19994410187E+03  0.77887804916E+02 0.  0.
          5    1    3    3  501    0  0.67963389749E+02 -0.29310135864E+02 -0.58183895159E+02  0.94263259367E+02  0.47000000000E+01 0. -1.
        -13    1    4    4    0    0  0.28492629719E+01  0.72870142100E+01 -0.18301188451E+03  0.18317906198E+03  0.00000000000E+00 0.  1.
         14    1    4    4    0    0 -0.33626072139E+02  0.99131391728E+01 -0.28110831588E+02  0.44935530578E+02  0.00000000000E+00 0. -1.
         -5    1    5    5    0  502 -0.81689919830E+02 -0.88733977231E+01  0.23280978277E+03  0.24693008149E+03  0.47000000000E+01 0.  1.
         13    1    6    6    0    0  0.37194294286E+02  0.43164356391E+02  0.16252969198E+03  0.17222798252E+03  0.00000000000E+00 0. -1.
        -14    1    6    6    0    0  0.73090449623E+01 -0.22180976187E+02  0.14925328439E+02  0.27716119351E+02  0.00000000000E+00 0.  1.
<mgrwt>
<rscale>  2 0.17718889E+03</rscale>
<asrwt>0</asrwt>
<pdfrwt beam="1">  1       21 0.70016171E-01 0.17720448E+03</pdfrwt>
<pdfrwt beam="2">  1       21 0.48330296E-01 0.17720448E+03</pdfrwt>
<totfact> 0.76600901E+03</totfact>
</mgrwt>
</event>
<event>
12    1  0.1050690E-001  0.1782323E+03  0.7546771E-02  0.1170599E+00
         21   -1    0    0  501  502  0.00000000000E+00  0.00000000000E+00  0.45099062821E+03  0.45099062821E+03  0.00000000000E+00 0. -1.
         21   -1    0    0  502  503 -0.00000000000E+00 -0.00000000000E+00 -0.21523321668E+03  0.21523321668E+03  0.00000000000E+00 0. -1.
         -6    2    1    2    0  503  0.81327084438E+01 -0.10391365465E+02 -0.15647102306E+03  0.23717066952E+03  0.17774314051E+03 0.  0.
        -24    2    3    3    0    0  0.66785570797E+02  0.27787367703E+02 -0.95249960820E+02  0.14406920664E+03  0.80317687932E+02 0.  0.
          6    2    1    2  501    0 -0.81327084438E+01  0.10391365465E+02  0.39222843459E+03  0.42905317537E+03  0.17340519303E+03 0.  0.
         24    2    5    5    0    0  0.61630121975E+02  0.13011050414E+02  0.25578187332E+03  0.27571215235E+03  0.81395730037E+02 0.  0.
          5    1    5    5  501    0 -0.69762830419E+02 -0.26196849494E+01  0.13644656128E+03  0.15334102302E+03  0.47000000000E+01 0. -1.
        -13    1    6    6    0    0  0.34242533888E+02  0.47518438196E+02  0.15621237594E+03  0.16683182998E+03  0.00000000000E+00 0.  1.
         14    1    6    6    0    0  0.27387588087E+02 -0.34507387781E+02  0.99569497372E+02  0.10888032237E+03  0.00000000000E+00 0. -1.
         -5    1    3    3    0  503 -0.58652862354E+02 -0.38178733168E+02 -0.61221062242E+02  0.93101462881E+02  0.47000000000E+01 0.  1.
         13    1    4    4    0    0 -0.14733850434E+01  0.30935843055E+02 -0.59198231762E+02  0.66810387611E+02  0.00000000000E+00 0. -1.
        -14    1    4    4    0    0  0.68258955841E+02 -0.31484753517E+01 -0.36051729058E+02  0.77258819028E+02  0.00000000000E+00 0.  1.
<mgrwt>
<rscale>  2 0.17714086E+03</rscale>
<asrwt>0</asrwt>
<pdfrwt beam="1">  1       21 0.69383173E-01 0.17823228E+03</pdfrwt>
<pdfrwt beam="2">  1       21 0.33112803E-01 0.17823228E+03</pdfrwt>
<totfact> 0.16742173E+04</totfact>
</mgrwt>
</event>
<event>
12    1  0.1050690E-001  0.1996195E+03  0.7546771E-02  0.1150128E+00
         21   -1    0    0  501  502  0.00000000000E+00  0.00000000000E+00  0.11931984284E+04  0.11931984284E+04  0.00000000000E+00 0.  1.
         21   -1    0    0  502  503 -0.00000000000E+00 -0.00000000000E+00 -0.36645228562E+02  0.36645228562E+02  0.00000000000E+00 0.  1.
         -6    2    1    2    0  503  0.34436570823E+02 -0.93211588926E+02  0.39408622364E+03  0.44175999268E+03  0.17312903208E+03 0.  0.
        -24    2    3    3    0    0  0.73050987637E+00 -0.11795277187E+02  0.30846715338E+03  0.31880703601E+03  0.79663537995E+02 0.  0.
          6    2    1    2  501    0 -0.34436570823E+02  0.93211588926E+02  0.76246697624E+03  0.78808366432E+03  0.17275906458E+03 0.  0.
         24    2    5    5    0    0 -0.83721673330E+02  0.67597637216E+02  0.63243107199E+03  0.64660390519E+03  0.80924596020E+02 0.  0.
          5    1    5    5  501    0  0.49285102506E+02  0.25613951710E+02  0.13003590425E+03  0.14147975913E+03  0.47000000000E+01 0. -1.
        -11    1    6    6    0    0 -0.91825896204E+02  0.48684794709E+02  0.40065199452E+03  0.41391330634E+03  0.00000000000E+00 0.  1.
         12    1    6    6    0    0  0.81042228746E+01  0.18912842508E+02  0.23177907747E+03  0.23269059885E+03  0.00000000000E+00 0. -1.
         -5    1    3    3    0  503  0.33706060947E+02 -0.81416311739E+02  0.85619070257E+02  0.12295295667E+03  0.47000000000E+01 0.  1.
         13    1    4    4    0    0 -0.30888698339E+02  0.18836136645E+02  0.15368634300E+03  0.15788731346E+03  0.00000000000E+00 0. -1.
        -14    1    4    4    0    0  0.31619208215E+02 -0.30631413832E+02  0.15478081039E+03  0.16091972255E+03  0.00000000000E+00 0.  1.
<mgrwt>
<rscale>  2 0.19953924E+03</rscale>
<asrwt>0</asrwt>
<pdfrwt beam="1">  1       21 0.18356896E+00 0.19961949E+03</pdfrwt>
<pdfrwt beam="2">  1       21 0.56377284E-02 0.19961949E+03</pdfrwt>
<totfact> 0.37576981E+04</totfact>
</mgrwt>
</event>
<event>
12    1  0.1050690E-001  0.2004308E+03  0.7546771E-02  0.1149931E+00
         21   -1    0    0  503  502  0.00000000000E+00  0.00000000000E+00  0.27957101268E+03  0.27957101268E+03  0.00000000000E+00 0. -1.
         21   -1    0    0  501  503 -0.00000000000E+00 -0.00000000000E+00 -0.32380865786E+03  0.32380865786E+03  0.00000000000E+00 0.  1.
          6    2    1    2  501    0 -0.68422535384E+02  0.68297357769E+02 -0.24835229470E+03  0.31914162480E+03  0.17557432037E+03 0.  0.
         24    2    3    3    0    0 -0.12473956526E+02  0.10178515345E+03 -0.13376072804E+03  0.18721364034E+03  0.81493543960E+02 0.  0.
         -6    2    1    2    0  502  0.68422535384E+02 -0.68297357769E+02  0.20411464952E+03  0.28423804574E+03  0.17257550252E+03 0.  0.
        -24    2    5    5    0    0  0.28859049087E+02 -0.10321119490E+03  0.18396750971E+03  0.22756139522E+03  0.80341449441E+02 0.  0.
          5    1    3    3  501    0 -0.55948578858E+02 -0.33487795685E+02 -0.11459156666E+03  0.13192798447E+03  0.47000000000E+01 0. -1.
        -13    1    4    4    0    0 -0.32752226177E+02  0.91395249100E+01 -0.21394262490E+02  0.40174042647E+02  0.00000000000E+00 0.  1.
         14    1    4    4    0    0  0.20278269651E+02  0.92645628544E+02 -0.11236646555E+03  0.14703959769E+03  0.00000000000E+00 0. -1.
         -5    1    5    5    0  502  0.39563486297E+02  0.34913837135E+02  0.20147139817E+02  0.56676650521E+02  0.47000000000E+01 0.  1.
         11    1    6    6    0    0  0.44906373577E+02 -0.51944360401E+02  0.55415408193E+02  0.88236423491E+02  0.00000000000E+00 0. -1.
        -12    1    6    6    0    0 -0.16047324490E+02 -0.51266834503E+02  0.12855210151E+03  0.13932497173E+03  0.00000000000E+00 0.  1.
<mgrwt>
<rscale>  2 0.19977218E+03</rscale>
<asrwt>0</asrwt>
<pdfrwt beam="1">  1       21 0.43010925E-01 0.20043082E+03</pdfrwt>
<pdfrwt beam="2">  1       21 0.49816716E-01 0.20043082E+03</pdfrwt>
<totfact> 0.19865914E+04</totfact>
</mgrwt>
</event>
<event>
12    1  0.1050690E-001  0.1982502E+03  0.7546771E-02  0.1151423E+00
         21   -1    0    0  501  502  0.00000000000E+00  0.00000000000E+00  0.28681669494E+03  0.28681669494E+03  0.00000000000E+00 0. -1.
         21   -1    0    0  502  503 -0.00000000000E+00 -0.00000000000E+00 -0.47238792038E+03  0.47238792038E+03  0.00000000000E+00 0. -1.
         -6    2    1    2    0  503 -0.96138451879E+02 -0.14804423705E+01 -0.41299377435E+03  0.45811241235E+03  0.17337338624E+03 0.  0.
        -24    2    3    3    0    0 -0.71289669654E+02 -0.67426314335E+02 -0.20695362792E+03  0.24030297282E+03  0.72713064661E+02 0.  0.
          6    2    1    2  501    0  0.96138451879E+02  0.14804423705E+01  0.22742254891E+03  0.30109220298E+03  0.17230991063E+03 0.  0.
         24    2    5    5    0    0  0.46561478499E+02  0.55941314992E+02  0.18970494071E+03  0.21821536119E+03  0.79577492590E+02 0.  0.
          5    1    5    5  501    0  0.49576973380E+02 -0.54460872621E+02  0.37717608202E+02  0.82876841787E+02  0.47000000000E+01 0. -1.
        -11    1    6    6    0    0  0.19792819624E+02 -0.16965987941E+02  0.25009842953E+02  0.36126066767E+02  0.00000000000E+00 0.  1.
         12    1    6    6    0    0  0.26768658875E+02  0.72907302932E+02  0.16469509775E+03  0.18208929442E+03  0.00000000000E+00 0. -1.
         -5    1    3    3    0  503 -0.24848782225E+02  0.65945871964E+02 -0.20604014643E+03  0.21780943953E+03  0.47000000000E+01 0.  1.
         11    1    4    4    0    0  0.25437254484E+01 -0.16689723377E+01 -0.76772299092E+02  0.76832557654E+02  0.00000000000E+00 0. -1.
        -12    1    4    4    0    0 -0.73833395102E+02 -0.65757341997E+02 -0.13018132883E+03  0.16347041517E+03  0.00000000000E+00 0.  1.
<mgrwt>
<rscale>  2 0.19801741E+03</rscale>
<asrwt>0</asrwt>
<pdfrwt beam="1">  1       21 0.44125646E-01 0.19825016E+03</pdfrwt>
<pdfrwt beam="2">  1       21 0.72675064E-01 0.19825016E+03</pdfrwt>
<totfact> 0.83794334E+03</totfact>
</mgrwt>
</event>
<event>
12    1  0.1050690E-001  0.2038299E+03  0.7546771E-02  0.1146709E+00
         21   -1    0    0  501  502  0.00000000000E+00  0.00000000000E+00  0.18060144146E+04  0.18060144146E+04  0.00000000000E+00 0. -1.
         21   -1    0    0  502  503 -0.00000000000E+00 -0.00000000000E+00 -0.46439431256E+02  0.46439431256E+02  0.00000000000E+00 0. -1.
         -6    2    1    2    0  503  0.46086771408E+02 -0.96388817843E+02  0.21975002753E+03  0.29919677529E+03  0.17266684986E+03 0.  0.
        -24    2    3    3    0    0 -0.36088366604E+02 -0.31839842051E+02  0.69994094451E+02  0.11652698283E+03  0.79769785785E+02 0.  0.
          6    2    1    2  501    0 -0.46086771408E+02  0.96388817843E+02  0.15398249559E+04  0.15532570706E+04  0.17358524713E+03 0.  0.
         24    2    5    5    0    0  0.67670333621E+01  0.37779959271E+01  0.38849303203E+03  0.39698825332E+03  0.81318948259E+02 0.  0.
          5    1    5    5  501    0 -0.52853804770E+02  0.92610821916E+02  0.11513319238E+04  0.11562688173E+04  0.47000000000E+01 0. -1.
        -11    1    6    6    0    0  0.37297004913E+02  0.18108908184E+02  0.13392774001E+03  0.14019856873E+03  0.00000000000E+00 0.  1.
         12    1    6    6    0    0 -0.30529971551E+02 -0.14330912257E+02  0.25456529203E+03  0.25678968459E+03  0.00000000000E+00 0. -1.
         -5    1    3    3    0  503  0.82175138012E+02 -0.64548975792E+02  0.14975593308E+03  0.18266979245E+03  0.47000000000E+01 0.  1.
         11    1    4    4    0    0 -0.36015224184E+02  0.19826630429E+02  0.25793655021E+02  0.48533537750E+02  0.00000000000E+00 0. -1.
        -12    1    4    4    0    0 -0.73142419676E-01 -0.51666472480E+02  0.44200439431E+02  0.67993445083E+02  0.00000000000E+00 0.  1.
<mgrwt>
<rscale>  2 0.20363424E+03</rscale>
<asrwt>0</asrwt>
<pdfrwt beam="1">  1       21 0.27784832E+00 0.20382991E+03</pdfrwt>
<pdfrwt beam="2">  1       21 0.71445293E-02 0.20382991E+03</pdfrwt>
<totfact> 0.66083273E+03</totfact>
</mgrwt>
</event>
<event>
11    1  0.1050690E-001  0.3080040E+03  0.7546771E-02  0.1081323E+00
         21   -1    0    0  503  502  0.00000000000E+00  0.00000000000E+00  0.86041887822E+03  0.86041887822E+03  0.00000000000E+00 0. -1.
         21   -1    0    0  501  503 -0.00000000000E+00 -0.00000000000E+00 -0.16206529754E+03  0.16206529754E+03  0.00000000000E+00 0.  1.
          6    2    1    2  501    0  0.25218108870E+03  0.38912902161E+02  0.60037610173E+02  0.31380083320E+03  0.17250197921E+03 0.  0.
         24    2    3    3    0    0  0.77151731587E+02  0.19801262801E+02  0.76499014266E+02  0.13690086589E+03  0.80902831855E+02 0.  0.
         -6    2    1    2    0  502 -0.25218108870E+03 -0.38912902161E+02  0.63831597050E+03  0.70868334256E+03  0.17226516299E+03 0.  0.
          5    1    3    3  501    0  0.17502935711E+03  0.19111639360E+02 -0.16461404094E+02  0.17689996731E+03  0.47000000000E+01 0. -1.
        -13    1    4    4    0    0  0.43058417215E+02 -0.21219482657E+02  0.58211270680E+01  0.48354723220E+02  0.00000000000E+00 0.  1.
         14    1    4    4    0    0  0.34093314372E+02  0.41020745459E+02  0.70677887198E+02  0.88546142670E+02  0.00000000000E+00 0. -1.
         -5    1    5    5    0  502 -0.12353295119E+03  0.22752314341E+01  0.29162939880E+03  0.31675757758E+03  0.47000000000E+01 0.  1.
         13    1    5    5    0    0 -0.10366946986E+03  0.23861839768E+02  0.15523462861E+03  0.18818750303E+03  0.00000000000E+00 0. -1.
        -14    1    5    5    0    0 -0.24978667652E+02 -0.65049973363E+02  0.19145194309E+03  0.20373826195E+03  0.00000000000E+00 0.  1.
<mgrwt>
<rscale>  2 0.30797083E+03</rscale>
<asrwt>0</asrwt>
<pdfrwt beam="1">  1       21 0.13237213E+00 0.30800397E+03</pdfrwt>
<pdfrwt beam="2">  1       21 0.24933123E-01 0.30800397E+03</pdfrwt>
<totfact> 0.58387712E+03</totfact>
</mgrwt>
</event>
<event>
12    1  0.1050690E-001  0.2055025E+03  0.7546771E-02  0.1145754E+00
         21   -1    0    0  503  502  0.00000000000E+00  0.00000000000E+00  0.14320184033E+03  0.14320184033E+03  0.00000000000E+00 0. -1.
         21   -1    0    0  501  503 -0.00000000000E+00 -0.00000000000E+00 -0.42977438109E+03  0.42977438109E+03  0.00000000000E+00 0.  1.
          6    2    1    2  501    0 -0.25536988075E+02 -0.10107239623E+03 -0.30680793774E+03  0.36927278900E+03  0.17709747314E+03 0.  0.
         24    2    3    3    0    0 -0.72921583421E+02 -0.89980444463E+02 -0.27933821284E+03  0.31319242652E+03  0.81520679341E+02 0.  0.
         -6    2    1    2    0  502  0.25536988075E+02  0.10107239623E+03  0.20235396989E+02  0.20370343242E+03  0.17383282214E+03 0.  0.
        -24    2    5    5    0    0  0.44914820042E-01  0.12371740413E+03  0.52429592790E+02  0.15657384060E+03  0.80377280732E+02 0.  0.
          5    1    3    3  501    0  0.47384595345E+02 -0.11091951763E+02 -0.27469724904E+02  0.56080362483E+02  0.47000000000E+01 0. -1.
        -13    1    4    4    0    0 -0.35794608111E+02 -0.71036128303E+02 -0.24965820713E+03  0.26202405592E+03  0.00000000000E+00 0.  1.
         14    1    4    4    0    0 -0.37126975310E+02 -0.18944316160E+02 -0.29680005711E+02  0.51168370596E+02  0.00000000000E+00 0. -1.
         -5    1    5    5    0  502  0.25492073255E+02 -0.22645007908E+02 -0.32194195801E+02  0.47129591822E+02  0.47000000000E+01 0.  1.
         11    1    6    6    0    0 -0.29262363296E+02  0.18537202621E+02  0.28352893290E+02  0.44763828529E+02  0.00000000000E+00 0. -1.
        -12    1    6    6    0    0  0.29307278116E+02  0.10518020151E+03  0.24076699500E+02  0.11181001207E+03  0.00000000000E+00 0.  1.
<mgrwt>
<rscale>  2 0.20479723E+03</rscale>
<asrwt>0</asrwt>
<pdfrwt beam="1">  1       21 0.22031053E-01 0.20550251E+03</pdfrwt>
<pdfrwt beam="2">  1       21 0.66119134E-01 0.20550251E+03</pdfrwt>
<totfact> 0.40158446E+04</totfact>
</mgrwt>
</event>
<event>
12    1  0.1050690E-001  0.1817886E+03  0.7546771E-02  0.1166518E+00
         21   -1    0    0  501  502  0.00000000000E+00  0.00000000000E+00  0.65884935252E+02  0.65884935252E+02  0.00000000000E+00 0. -1.
         21   -1    0    0  502  503 -0.00000000000E+00 -0.00000000000E+00 -0.49706206383E+03  0.49706206383E+03  0.00000000000E+00 0. -1.
         -6    2    1    2    0  503 -0.26397784930E+02 -0.41900853426E+02 -0.22304637215E+03  0.28660390190E+03  0.17303059812E+03 0.  0.
        -24    2    3    3    0    0 -0.18909107028E+02  0.32093003392E+02 -0.56598293837E+02  0.10423552767E+03  0.79209615376E+02 0.  0.
          6    2    1    2  501    0  0.26397784930E+02  0.41900853426E+02 -0.20813075643E+03  0.27634309719E+03  0.17491303846E+03 0.  0.
         24    2    5    5    0    0  0.56214420422E+02  0.58872024409E+02 -0.21268415678E+03  0.24141637602E+03  0.80133262413E+02 0.  0.
          5    1    5    5  501    0 -0.29816635492E+02 -0.16971170982E+02  0.45534003518E+01  0.34926721165E+02  0.47000000000E+01 0. -1.
        -11    1    6    6    0    0  0.13250099096E+02 -0.63190490536E+01 -0.11701394201E+03  0.11793115845E+03  0.00000000000E+00 0.  1.
         12    1    6    6    0    0  0.42964321326E+02  0.65191073462E+02 -0.95670214768E+02  0.12348521758E+03  0.00000000000E+00 0. -1.
         -5    1    3    3    0  503 -0.74886779024E+01 -0.73993856818E+02 -0.16644807832E+03  0.18236837423E+03  0.47000000000E+01 0.  1.
         11    1    4    4    0    0 -0.33947207748E+02 -0.14642181530E+02 -0.33850727844E+02  0.50126621365E+02  0.00000000000E+00 0. -1.
        -12    1    4    4    0    0  0.15038100720E+02  0.46735184921E+02 -0.22747565993E+02  0.54108906305E+02  0.00000000000E+00 0.  1.
<mgrwt>
<rscale>  2 0.18133427E+03</rscale>
<asrwt>0</asrwt>
<pdfrwt beam="1">  1       21 0.10136144E-01 0.18178860E+03</pdfrwt>
<pdfrwt beam="2">  1       21 0.76471089E-01 0.18178860E+03</pdfrwt>
<totfact> 0.12109274E+05</totfact>
</mgrwt>
</event>
<event>
12    1  0.1050690E-001  0.2007692E+03  0.7546771E-02  0.1149971E+00
         21   -1    0    0  501  502  0.00000000000E+00  0.00000000000E+00  0.18063794704E+03  0.18063794704E+03  0.00000000000E+00 0.  1.
         21   -1    0    0  502  503 -0.00000000000E+00 -0.00000000000E+00 -0.73589333418E+03  0.73589333418E+03  0.00000000000E+00 0.  1.
         -6    2    1    2    0  503  0.56162231719E+02 -0.83557669667E+02 -0.66099394369E+03  0.68961958410E+03  0.16889670437E+03 0.  0.
        -24    2    3    3    0    0  0.14649316533E+02  0.96586324100E+01 -0.18013205825E+03  0.19802743204E+03  0.80370478257E+02 0.  0.
          6    2    1    2  501    0 -0.56162231719E+02  0.83557669667E+02  0.10573855655E+03  0.22691169713E+03  0.17370145515E+03 0.  0.
         24    2    5    5    0    0 -0.10395166361E+03  0.42837416197E+02  0.77529318707E+02  0.15792024880E+03  0.79290712758E+02 0.  0.
          5    1    5    5  501    0  0.47789431887E+02  0.40720253470E+02  0.28209237839E+02  0.68991448326E+02  0.47000000000E+01 0. -1.
        -11    1    6    6    0    0 -0.78988126990E+02  0.19488132443E+02  0.90196351951E+02  0.12146725245E+03  0.00000000000E+00 0.  1.
         12    1    6    6    0    0 -0.24963536616E+02  0.23349283753E+02 -0.12667033243E+02  0.36452996357E+02  0.00000000000E+00 0. -1.
         -5    1    3    3    0  503  0.41512915186E+02 -0.93216302077E+02 -0.48086188544E+03  0.49159215206E+03  0.47000000000E+01 0.  1.
         11    1    4    4    0    0 -0.90373695734E+00  0.88443820133E+01  0.63315102273E+01  0.10914570786E+02  0.00000000000E+00 0. -1.
        -12    1    4    4    0    0  0.15553053490E+02  0.81425039667E+00 -0.18646356848E+03  0.18711286125E+03  0.00000000000E+00 0.  1.
<mgrwt>
<rscale>  2 0.19972555E+03</rscale>
<asrwt>0</asrwt>
<pdfrwt beam="1">  1       21 0.27790453E-01 0.20076921E+03</pdfrwt>
<pdfrwt beam="2">  1       21 0.11321436E+00 0.20076921E+03</pdfrwt>
<totfact> 0.74828386E+03</totfact>
</mgrwt>
</event>
<event>
12    1  0.1050690E-001  0.2030838E+03  0.7546771E-02  0.1147184E+00
         21   -1    0    0  503  502  0.00000000000E+00  0.00000000000E+00  0.90173741108E+03  0.90173741108E+03  0.00000000000E+00 0.  1.
         21   -1    0    0  501  503 -0.00000000000E+00 -0.00000000000E+00 -0.16447652781E+03  0.16447652781E+03  0.00000000000E+00 0.  1.
          6    2    1    2  501    0  0.10630895617E+03  0.65358325569E+01 -0.84346963754E+02  0.21990321235E+03  0.17291240915E+03 0.  0.
         24    2    3    3    0    0  0.48869702179E+02 -0.39227389474E+02 -0.10188040010E+03  0.14425235789E+03  0.80635544002E+02 0.  0.
         -6    2    1    2    0  502 -0.10630895617E+03 -0.65358325569E+01  0.82160784703E+03  0.84631072654E+03  0.17279490815E+03 0.  0.
        -24    2    5    5    0    0 -0.22935020146E+02  0.47785305246E+02  0.37175316908E+03  0.38555773360E+03  0.87435099798E+02 0.  0.
          5    1    3    3  501    0  0.57439253996E+02  0.45763222031E+02  0.17533436350E+02  0.75650854460E+02  0.47000000000E+01 0. -1.
        -11    1    4    4    0    0  0.17074448597E+02  0.24849744716E+02 -0.24267965370E+02  0.38703756284E+02  0.00000000000E+00 0.  1.
         12    1    4    4    0    0  0.31795253582E+02 -0.64077134190E+02 -0.77612434735E+02  0.10554860161E+03  0.00000000000E+00 0. -1.
         -5    1    5    5    0  502 -0.83373936029E+02 -0.54321137803E+02  0.44985467795E+03  0.46075299294E+03  0.47000000000E+01 0.  1.
         11    1    6    6    0    0  0.30291201886E+02  0.21967945106E+02  0.86687547149E+02  0.94418633514E+02  0.00000000000E+00 0. -1.
        -12    1    6    6    0    0 -0.53226222032E+02  0.25817360140E+02  0.28506562193E+03  0.29113910009E+03  0.00000000000E+00 0.  1.
<mgrwt>
<rscale>  2 0.20305874E+03</rscale>
<asrwt>0</asrwt>
<pdfrwt beam="1">  1       21 0.13872883E+00 0.20308376E+03</pdfrwt>
<pdfrwt beam="2">  1       21 0.25304082E-01 0.20308376E+03</pdfrwt>
<totfact> 0.53764918E+03</totfact>
</mgrwt>
</event>
<event>
12    1  0.1050690E-001  0.1798107E+03  0.7546771E-02  0.1168255E+00
         21   -1    0    0  503  502  0.00000000000E+00  0.00000000000E+00  0.10539512829E+03  0.10539512829E+03  0.00000000000E+00 0. -1.
         21   -1    0    0  501  503 -0.00000000000E+00 -0.00000000000E+00 -0.32672109181E+03  0.32672109181E+03  0.00000000000E+00 0. -1.
          6    2    1    2  501    0 -0.41836154258E+02 -0.96836526317E+01 -0.16683818648E+03  0.24528934835E+03  0.17460769461E+03 0.  0.
         24    2    3    3    0    0 -0.78346486316E+02 -0.14022850644E+02 -0.43896448822E+02  0.11688142864E+03  0.73481684000E+02 0.  0.
         -6    2    1    2    0  502  0.41836154258E+02  0.96836526317E+01 -0.54487777032E+02  0.18682687175E+03  0.17346851365E+03 0.  0.
        -24    2    5    5    0    0  0.51233037568E+02  0.11252140743E+02 -0.10059809210E+03  0.13950866461E+03  0.81186554050E+02 0.  0.
          5    1    3    3  501    0  0.36510332057E+02  0.43391980121E+01 -0.12294173766E+03  0.12840791971E+03  0.47000000000E+01 0. -1.
        -13    1    4    4    0    0 -0.17183012846E+02  0.27460844993E+02 -0.24088835321E+02  0.40368625507E+02  0.00000000000E+00 0.  1.
         14    1    4    4    0    0 -0.61163473470E+02 -0.41483695637E+02 -0.19807613501E+02  0.76512803133E+02  0.00000000000E+00 0. -1.
         -5    1    5    5    0  502 -0.93968833098E+01 -0.15684881111E+01  0.46110315066E+02  0.47318207134E+02  0.47000000000E+01 0.  1.
         11    1    6    6    0    0  0.15645757621E+02  0.44836326250E+02 -0.44660475674E+02  0.65189293373E+02  0.00000000000E+00 0. -1.
        -12    1    6    6    0    0  0.35587279947E+02 -0.33584185507E+02 -0.55937616424E+02  0.74319371239E+02  0.00000000000E+00 0.  1.
<mgrwt>
<rscale>  2 0.17953355E+03</rscale>
<asrwt>0</asrwt>
<pdfrwt beam="1">  1       21 0.16214635E-01 0.17981069E+03</pdfrwt>
<pdfrwt beam="2">  1       21 0.50264783E-01 0.17981069E+03</pdfrwt>
<totfact> 0.12880919E+05</totfact>
</mgrwt>
</event>
<event>
12    1  0.1050690E-001  0.1981424E+03  0.7546771E-02  0.1152489E+00
         21   -1    0    0  501  502  0.00000000000E+00  0.00000000000E+00  0.21050225701E+03  0.21050225701E+03  0.00000000000E+00 0. -1.
         21   -1    0    0  502  503 -0.00000000000E+00 -0.00000000000E+00 -0.28677750438E+03  0.28677750438E+03  0.00000000000E+00 0. -1.
         -6    2    1    2    0  503 -0.25102539645E+02 -0.82021639641E+02 -0.18915030852E+03  0.27393113025E+03  0.17861337587E+03 0.  0.
        -24    2    3    3    0    0 -0.11593566270E+02 -0.12582862569E+03 -0.12459732945E+03  0.19461706154E+03  0.79900264795E+02 0.  0.
          6    2    1    2  501    0  0.25102539645E+02  0.82021639641E+02  0.11287506116E+03  0.22334863113E+03  0.17258662964E+03 0.  0.
         24    2    5    5    0    0  0.34738433709E+02  0.11755560973E+02  0.12339187061E+03  0.15149554806E+03  0.79877377018E+02 0.  0.
          5    1    5    5  501    0 -0.96358940641E+01  0.70266078668E+02 -0.10516809449E+02  0.71853083071E+02  0.47000000000E+01 0. -1.
        -13    1    6    6    0    0 -0.76723149453E+01  0.30609940779E+02  0.86907356289E+02  0.92459296278E+02  0.00000000000E+00 0.  1.
         14    1    6    6    0    0  0.42410748654E+02 -0.18854379805E+02  0.36484514318E+02  0.59036251780E+02  0.00000000000E+00 0. -1.
         -5    1    3    3    0  503 -0.13508973374E+02  0.43806986050E+02 -0.64552979075E+02  0.79314068714E+02  0.47000000000E+01 0.  1.
         11    1    4    4    0    0  0.18401492329E+02 -0.10428105273E+03 -0.11526849816E+03  0.15652469309E+03  0.00000000000E+00 0. -1.
        -12    1    4    4    0    0 -0.29995058599E+02 -0.21547572966E+02 -0.93288312853E+01  0.38092368451E+02  0.00000000000E+00 0.  1.
<mgrwt>
<rscale>  2 0.19677457E+03</rscale>
<asrwt>0</asrwt>
<pdfrwt beam="1">  1       21 0.32384963E-01 0.19814244E+03</pdfrwt>
<pdfrwt beam="2">  1       21 0.44119616E-01 0.19814244E+03</pdfrwt>
<totfact> 0.45146972E+04</totfact>
</mgrwt>
</event>
<event>
12    1  0.1050690E-001  0.1844421E+03  0.7546771E-02  0.1164071E+00
         21   -1    0    0  503  502  0.00000000000E+00  0.00000000000E+00  0.31172585305E+03  0.31172585305E+03  0.00000000000E+00 0. -1.
         21   -1    0    0  501  503 -0.00000000000E+00 -0.00000000000E+00 -0.13146431207E+03  0.13146431207E+03  0.00000000000E+00 0. -1.
          6    2    1    2  501    0 -0.30652842853E+01  0.59677966421E+02 -0.32923931291E+01  0.18447152137E+03  0.17449368671E+03 0.  0.
         24    2    3    3    0    0 -0.39218733058E+01  0.98871485709E+02 -0.37552509673E+02  0.13219618030E+03  0.79212923985E+02 0.  0.
         -6    2    1    2    0  502  0.30652842853E+01 -0.59677966421E+02  0.18355393410E+03  0.25871864375E+03  0.17225688449E+03 0.  0.
        -24    2    5    5    0    0 -0.40460538955E+02 -0.90561125807E+02  0.14281804718E+03  0.19141508288E+03  0.80027286804E+02 0.  0.
          5    1    3    3  501    0  0.85658902050E+00 -0.39193519287E+02  0.34260116544E+02  0.52275341075E+02  0.47000000000E+01 0. -1.
        -11    1    4    4    0    0 -0.20937214898E+02 -0.10660780521E+01  0.60817398984E+01  0.21828674955E+02  0.00000000000E+00 0.  1.
         12    1    4    4    0    0  0.17015341592E+02  0.99937563761E+02 -0.43634249572E+02  0.11036750534E+03  0.00000000000E+00 0. -1.
         -5    1    5    5    0  502  0.43525823240E+02  0.30883159386E+02  0.40735886923E+02  0.67303560870E+02  0.47000000000E+01 0.  1.
         11    1    6    6    0    0 -0.27060126252E+02 -0.92295710832E+02  0.14836121547E+03  0.17681006455E+03  0.00000000000E+00 0. -1.
        -12    1    6    6    0    0 -0.13400412703E+02  0.17345850252E+01 -0.55431682859E+01  0.14605018331E+02  0.00000000000E+00 0.  1.
<mgrwt>
<rscale>  2 0.18391117E+03</rscale>
<asrwt>0</asrwt>
<pdfrwt beam="1">  1       21 0.47957823E-01 0.18444214E+03</pdfrwt>
<pdfrwt beam="2">  1       21 0.20225279E-01 0.18444214E+03</pdfrwt>
<totfact> 0.94230841E+04</totfact>
</mgrwt>
</event>
<event>
12    1  0.1050690E-001  0.2143537E+03  0.7546771E-02  0.1138430E+00
         21   -1    0    0  501  502  0.00000000000E+00  0.00000000000E+00  0.40349541086E+03  0.40349541086E+03  0.00000000000E+00 0. -1.
         21   -1    0    0  502  503 -0.00000000000E+00 -0.00000000000E+00 -0.11832550918E+03  0.11832550918E+03  0.00000000000E+00 0. -1.
         -6    2    1    2    0  503  0.85549130838E+02  0.90978364055E+02  0.88420759859E+02  0.23187445050E+03  0.17421771870E+03 0.  0.
        -24    2    3    3    0    0  0.58084332948E+02  0.15235116904E+02 -0.16265638889E+02  0.99690159853E+02  0.77895175986E+02 0.  0.
          6    2    1    2  501    0 -0.85549130838E+02 -0.90978364055E+02  0.19674914182E+03  0.28994646954E+03  0.17251960434E+03 0.  0.
         24    2    5    5    0    0 -0.68968897936E+02 -0.24105629869E+02  0.35763528461E+02  0.11477419888E+03  0.80970960764E+02 0.  0.
          5    1    5    5  501    0 -0.16580232902E+02 -0.66872734186E+02  0.16098561336E+03  0.17517227066E+03  0.47000000000E+01 0. -1.
        -11    1    6    6    0    0 -0.82336127239E+02 -0.32606193591E+02  0.41665393905E+02  0.97869335128E+02  0.00000000000E+00 0.  1.
         12    1    6    6    0    0  0.13367229303E+02  0.85005637220E+01 -0.59018654436E+01  0.16904863754E+02  0.00000000000E+00 0. -1.
         -5    1    3    3    0  503  0.27464797890E+02  0.75743247151E+02  0.10468639875E+03  0.13218429065E+03  0.47000000000E+01 0.  1.
         11    1    4    4    0    0  0.77011900219E+02  0.58959633723E+01 -0.13379026848E+02  0.78387457663E+02  0.00000000000E+00 0. -1.
        -12    1    4    4    0    0 -0.18927567271E+02  0.93391535317E+01 -0.28866120412E+01  0.21302702190E+02  0.00000000000E+00 0.  1.
<mgrwt>
<rscale>  2 0.21400845E+03</rscale>
<asrwt>0</asrwt>
<pdfrwt beam="1">  1       21 0.62076216E-01 0.21435375E+03</pdfrwt>
<pdfrwt beam="2">  1       21 0.18203925E-01 0.21435375E+03</pdfrwt>
<totfact> 0.65571042E+04</totfact>
</mgrwt>
</event>
<event>
12    1  0.1050690E-001  0.2013444E+03  0.7546771E-02  0.1149150E+00
         21   -1    0    0  503  502  0.00000000000E+00  0.00000000000E+00  0.88003173051E+02  0.88003173051E+02  0.00000000000E+00 0.  1.
         21   -1    0    0  501  503 -0.00000000000E+00 -0.00000000000E+00 -0.68402383995E+03  0.68402383995E+03  0.00000000000E+00 0.  1.
          6    2    1    2  501    0 -0.62857570770E+02 -0.72435412105E+02 -0.52019066006E+03  0.55687650980E+03  0.17411249589E+03 0.  0.
         24    2    3    3    0    0  0.31970621525E+02 -0.17121388836E+02 -0.20908414632E+03  0.22693502996E+03  0.80424281078E+02 0.  0.
         -6    2    1    2    0  502  0.62857570770E+02  0.72435412105E+02 -0.75830006841E+02  0.21515050320E+03  0.17703554999E+03 0.  0.
        -24    2    5    5    0    0 -0.19799259189E+02  0.24304339364E+02  0.13546751573E+02  0.84157958960E+02  0.76917722287E+02 0.  0.
          5    1    3    3  501    0 -0.94828192296E+02 -0.55314023269E+02 -0.31110651374E+03  0.32994147984E+03  0.47000000000E+01 0. -1.
        -13    1    4    4    0    0 -0.16733112209E+02  0.18114700731E+02 -0.35404963481E+02  0.43146852329E+02  0.00000000000E+00 0.  1.
         14    1    4    4    0    0  0.48703733734E+02 -0.35236089567E+02 -0.17367918283E+03  0.18378817763E+03  0.00000000000E+00 0. -1.
         -5    1    5    5    0  502  0.82656829960E+02  0.48131072741E+02 -0.89376758415E+02  0.13099254424E+03  0.47000000000E+01 0.  1.
         11    1    6    6    0    0 -0.43886764551E+02  0.33043010555E+02 -0.49813158219E+00  0.54937571701E+02  0.00000000000E+00 0. -1.
        -12    1    6    6    0    0  0.24087505361E+02 -0.87386711914E+01  0.14044883156E+02  0.29220387259E+02  0.00000000000E+00 0.  1.
<mgrwt>
<rscale>  2 0.20069995E+03</rscale>
<asrwt>0</asrwt>
<pdfrwt beam="1">  1       21 0.13538950E-01 0.20134435E+03</pdfrwt>
<pdfrwt beam="2">  1       21 0.10523444E+00 0.20134435E+03</pdfrwt>
<totfact> 0.34162351E+04</totfact>
</mgrwt>
</event>
<event>
12    1  0.1050690E-001  0.1775046E+03  0.7546771E-02  0.1171127E+00
         21   -1    0    0  503  502  0.00000000000E+00  0.00000000000E+00  0.18748944022E+02  0.18748944022E+02  0.00000000000E+00 0. -1.
         21   -1    0    0  501  503 -0.00000000000E+00 -0.00000000000E+00 -0.16481498628E+04  0.16481498628E+04  0.00000000000E+00 0. -1.
          6    2    1    2  501    0 -0.89403248268E-01  0.10123663118E+02 -0.84502103864E+03  0.86346305397E+03  0.17721566885E+03 0.  0.
         24    2    3    3    0    0 -0.70168780444E+02  0.20863621167E+02 -0.42698994961E+03  0.43943646612E+03  0.73654886162E+02 0.  0.
         -6    2    1    2    0  502  0.89403248268E-01 -0.10123663118E+02 -0.78437988014E+03  0.80343575285E+03  0.17365113314E+03 0.  0.
        -24    2    5    5    0    0  0.43604510466E+02 -0.52407697333E+02 -0.60028118332E+03  0.60953906831E+03  0.80947246227E+02 0.  0.
          5    1    3    3  501    0  0.70079377195E+02 -0.10739958049E+02 -0.41803108903E+03  0.42402658785E+03  0.47000000000E+01 0. -1.
        -13    1    4    4    0    0 -0.17532441081E+02 -0.17336325036E+01 -0.29533280098E+03  0.29585782955E+03  0.00000000000E+00 0.  1.
         14    1    4    4    0    0 -0.52636339363E+02  0.22597253671E+02 -0.13165714862E+03  0.14357863657E+03  0.00000000000E+00 0. -1.
         -5    1    5    5    0  502 -0.43515107218E+02  0.42284034215E+02 -0.18409869682E+03  0.19389668454E+03  0.47000000000E+01 0.  1.
         11    1    6    6    0    0 -0.56079799822E+01 -0.55481294680E+02 -0.28193938214E+03  0.28740118075E+03  0.00000000000E+00 0. -1.
        -12    1    6    6    0    0  0.49212490448E+02  0.30735973475E+01 -0.31834180119E+03  0.32213788756E+03  0.00000000000E+00 0.  1.
<mgrwt>
<rscale>  2 0.17660820E+03</rscale>
<asrwt>0</asrwt>
<pdfrwt beam="1">  1       21 0.28844529E-02 0.17750462E+03</pdfrwt>
<pdfrwt beam="2">  1       21 0.25356152E+00 0.17750462E+03</pdfrwt>
<totfact> 0.43318199E+04</totfact>
</mgrwt>
</event>
<event>
12    1  0.1050690E-001  0.3151468E+03  0.7546771E-02  0.1077940E+00
         21   -1    0    0  501  502  0.00000000000E+00  0.00000000000E+00  0.10618705840E+03  0.10618705840E+03  0.00000000000E+00 0.  1.
         21   -1    0    0  502  503 -0.00000000000E+00 -0.00000000000E+00 -0.12610419667E+04  0.12610419667E+04  0.00000000000E+00 0. -1.
         -6    2    1    2    0  503 -0.97926568087E+02  0.24412187034E+03 -0.92513839876E+03  0.97724547431E+03  0.17303918600E+03 0.  0.
        -24    2    3    3    0    0 -0.11688916786E+03  0.13822516902E+03 -0.69969431999E+03  0.72740389612E+03  0.82310459572E+02 0.  0.
          6    2    1    2  501    0  0.97926568087E+02 -0.24412187034E+03 -0.22971650952E+03  0.38998355077E+03  0.17358685092E+03 0.  0.
         24    2    5    5    0    0  0.13510868833E+03 -0.21940443009E+03 -0.19065771201E+03  0.33047605896E+03  0.80445017211E+02 0.  0.
          5    1    5    5  501    0 -0.37182120242E+02 -0.24717440243E+02 -0.39058797508E+02  0.59507491803E+02  0.47000000000E+01 0. -1.
        -13    1    6    6    0    0  0.78598441098E+02 -0.85066240105E+02 -0.12567809221E+03  0.17090629892E+03  0.00000000000E+00 0.  1.
         14    1    6    6    0    0  0.56510247231E+02 -0.13433818999E+03 -0.64979619793E+02  0.15956976004E+03  0.00000000000E+00 0. -1.
         -5    1    3    3    0  503  0.18962599773E+02  0.10589670132E+03 -0.22544407877E+03  0.24984157819E+03  0.47000000000E+01 0.  1.
         11    1    4    4    0    0 -0.30856873460E+02  0.81445084196E+02 -0.42890557428E+03  0.43765904541E+03  0.00000000000E+00 0. -1.
        -12    1    4    4    0    0 -0.86032294401E+02  0.56780084821E+02 -0.27078874571E+03  0.28974485072E+03  0.00000000000E+00 0.  1.
<mgrwt>
<rscale>  2 0.31507142E+03</rscale>
<asrwt>0</asrwt>
<pdfrwt beam="1">  1       21 0.16336469E-01 0.31514678E+03</pdfrwt>
<pdfrwt beam="2">  1       21 0.19400647E+00 0.31514678E+03</pdfrwt>
<totfact> 0.45080222E+03</totfact>
</mgrwt>
</event>
<event>
12    1  0.1050690E-001  0.2016334E+03  0.7546771E-02  0.1148537E+00
         21   -1    0    0  501  502  0.00000000000E+00  0.00000000000E+00  0.35497701092E+03  0.35497701092E+03  0.00000000000E+00 0. -1.
         21   -1    0    0  502  503 -0.00000000000E+00 -0.00000000000E+00 -0.19291528951E+03  0.19291528951E+03  0.00000000000E+00 0. -1.
         -6    2    1    2    0  503 -0.96080152245E+02  0.41496538681E+02 -0.94195196852E+02  0.22181924894E+03  0.17139919986E+03 0.  0.
        -24    2    3    3    0    0 -0.81502905705E+02  0.77155472835E+02 -0.22898011701E+02  0.14064391825E+03  0.81613125016E+02 0.  0.
          6    2    1    2  501    0  0.96080152245E+02 -0.41496538681E+02  0.25625691827E+03  0.32607305149E+03  0.17234462095E+03 0.  0.
         24    2    5    5    0    0  0.89447342089E+02  0.32883026118E+02  0.18371594006E+03  0.22185886172E+03  0.79923009694E+02 0.  0.
          5    1    5    5  501    0  0.66328101568E+01 -0.74379564799E+02  0.72540978208E+02  0.10421418977E+03  0.47000000000E+01 0. -1.
        -13    1    6    6    0    0  0.28399016207E+02 -0.70757509859E+00  0.13216324903E+03  0.13518183745E+03  0.00000000000E+00 0.  1.
         14    1    6    6    0    0  0.61048325882E+02  0.33590601216E+02  0.51552691033E+02  0.86677024267E+02  0.00000000000E+00 0. -1.
         -5    1    3    3    0  503 -0.14577246541E+02 -0.35658934154E+02 -0.71297185151E+02  0.81175330687E+02  0.47000000000E+01 0.  1.
         13    1    4    4    0    0 -0.25019877397E+02  0.64250455088E+02 -0.40657487019E+02  0.80044653129E+02  0.00000000000E+00 0. -1.
        -14    1    4    4    0    0 -0.56483028308E+02  0.12905017747E+02  0.17759475318E+02  0.60599265123E+02  0.00000000000E+00 0.  1.
<mgrwt>
<rscale>  2 0.20143122E+03</rscale>
<asrwt>0</asrwt>
<pdfrwt beam="1">  1       21 0.54611848E-01 0.20163340E+03</pdfrwt>
<pdfrwt beam="2">  1       21 0.29679275E-01 0.20163340E+03</pdfrwt>
<totfact> 0.34288442E+04</totfact>
</mgrwt>
</event>
<event>
12    1  0.1050690E-001  0.2719172E+03  0.7546771E-02  0.1100446E+00
         21   -1    0    0  501  502  0.00000000000E+00  0.00000000000E+00  0.11896819420E+03  0.11896819420E+03  0.00000000000E+00 0. -1.
         21   -1    0    0  502  503 -0.00000000000E+00 -0.00000000000E+00 -0.69588132072E+03  0.69588132072E+03  0.00000000000E+00 0. -1.
         -6    2    1    2    0  503 -0.20847567285E+03 -0.23341149447E+02 -0.42446583612E+03  0.50311378949E+03  0.17013325281E+03 0.  0.
        -24    2    3    3    0    0 -0.12115638712E+03 -0.78799287656E+02 -0.25493446019E+03  0.30446022124E+03  0.82560580476E+02 0.  0.
          6    2    1    2  501    0  0.20847567285E+03  0.23341149447E+02 -0.15244729040E+03  0.31173572543E+03  0.17300887473E+03 0.  0.
         24    2    5    5    0    0  0.15174880274E+03 -0.48245443157E+02 -0.11951031988E+03  0.21452712468E+03  0.79898990910E+02 0.  0.
          5    1    5    5  501    0  0.56726870103E+02  0.71586592604E+02 -0.32936970526E+02  0.97208600750E+02  0.47000000000E+01 0. -1.
        -11    1    6    6    0    0  0.14215805739E+02 -0.68501537091E+01 -0.54742501064E+02  0.56971529393E+02  0.00000000000E+00 0.  1.
         12    1    6    6    0    0  0.13753299700E+03 -0.41395289448E+02 -0.64767818813E+02  0.15755559529E+03  0.00000000000E+00 0. -1.
         -5    1    3    3    0  503 -0.87319285721E+02  0.55458138210E+02 -0.16953137593E+03  0.19865356825E+03  0.47000000000E+01 0.  1.
         11    1    4    4    0    0 -0.10439514042E+03 -0.37525367775E+02 -0.12513029209E+03  0.16722466495E+03  0.00000000000E+00 0. -1.
        -12    1    4    4    0    0 -0.16761246706E+02 -0.41273919881E+02 -0.12980416810E+03  0.13723555629E+03  0.00000000000E+00 0.  1.
<mgrwt>
<rscale>  2 0.27146096E+03</rscale>
<asrwt>0</asrwt>
<pdfrwt beam="1">  1       21 0.18302799E-01 0.27191724E+03</pdfrwt>
<pdfrwt beam="2">  1       21 0.10705866E+00 0.27191724E+03</pdfrwt>
<totfact> 0.18166894E+04</totfact>
</mgrwt>
</event>
<event>
12    1  0.1050690E-001  0.2098843E+03  0.7546771E-02  0.1141867E+00
         21   -1    0    0  501  502  0.00000000000E+00  0.00000000000E+00  0.26545458665E+03  0.26545458665E+03  0.00000000000E+00 0. -1.
         21   -1    0    0  502  503 -0.00000000000E+00 -0.00000000000E+00 -0.30058392582E+03  0.30058392582E+03  0.00000000000E+00 0.  1.
         -6    2    1    2    0  503 -0.81347255752E+01  0.11696118720E+03 -0.20758755647E+03  0.29520162732E+03  0.17408421555E+03 0.  0.
        -24    2    3    3    0    0  0.33027665737E+02  0.51643328438E+02 -0.26647945771E+02  0.98422568859E+02  0.72242847195E+02 0.  0.
          6    2    1    2  501    0  0.81347255752E+01 -0.11696118720E+03  0.17245821730E+03  0.27083688515E+03  0.17281402886E+03 0.  0.
         24    2    5    5    0    0  0.65957566870E+02 -0.65436770514E+02  0.15821979705E+03  0.19195045348E+03  0.56383515749E+02 0.  0.
          5    1    5    5  501    0 -0.57822841294E+02 -0.51524416687E+02  0.14238420248E+02  0.78886431669E+02  0.47000000000E+01 0. -1.
        -11    1    6    6    0    0  0.11542278345E+02  0.29450734211E+01  0.56970235985E+02  0.58202280325E+02  0.00000000000E+00 0.  1.
         12    1    6    6    0    0  0.54415288525E+02 -0.68381843936E+02  0.10124956107E+03  0.13374817315E+03  0.00000000000E+00 0. -1.
         -5    1    3    3    0  503 -0.41162391312E+02  0.65317858764E+02 -0.18093961069E+03  0.19677905846E+03  0.47000000000E+01 0.  1.
         11    1    4    4    0    0 -0.17848947418E+02  0.34896492866E+01 -0.21531465635E+02  0.28184509725E+02  0.00000000000E+00 0. -1.
        -12    1    4    4    0    0  0.50876613154E+02  0.48153679151E+02 -0.51164801355E+01  0.70238059133E+02  0.00000000000E+00 0.  1.
<mgrwt>
<rscale>  2 0.20962069E+03</rscale>
<asrwt>0</asrwt>
<pdfrwt beam="1">  1       21 0.40839167E-01 0.20988427E+03</pdfrwt>
<pdfrwt beam="2">  1       21 0.46243681E-01 0.20988427E+03</pdfrwt>
<totfact> 0.25625815E+04</totfact>
</mgrwt>
</event>
<event>
12    1  0.1050690E-001  0.2157681E+03  0.7546771E-02  0.1137364E+00
         21   -1    0    0  503  502  0.00000000000E+00  0.00000000000E+00  0.52938431948E+02  0.52938431948E+02  0.00000000000E+00 0.  1.
         21   -1    0    0  501  503 -0.00000000000E+00 -0.00000000000E+00 -0.90443334970E+03  0.90443334970E+03  0.00000000000E+00 0. -1.
          6    2    1    2  501    0 -0.53434074685E+02 -0.11387587964E+03 -0.51587336435E+03  0.55917904337E+03  0.17530818061E+03 0.  0.
         24    2    3    3    0    0 -0.44504421536E+02 -0.60252662439E+02 -0.13555744141E+03  0.17496884129E+03  0.81407915067E+02 0.  0.
         -6    2    1    2    0  502  0.53434074685E+02  0.11387587964E+03 -0.33562155340E+03  0.39819273829E+03  0.17347251487E+03 0.  0.
        -24    2    5    5    0    0  0.87794707838E+02  0.10258499941E+03 -0.32312012815E+03  0.35963741803E+03  0.81858795489E+02 0.  0.
          5    1    3    3  501    0 -0.89296531486E+01 -0.53623217198E+02 -0.38031592295E+03  0.38421020207E+03  0.47000000000E+01 0. -1.
        -11    1    4    4    0    0  0.14533690966E+02  0.10600986269E+02 -0.16877888008E+02  0.24667229001E+02  0.00000000000E+00 0.  1.
         12    1    4    4    0    0 -0.59038112502E+02 -0.70853648708E+02 -0.11867955340E+03  0.15030161229E+03  0.00000000000E+00 0. -1.
         -5    1    5    5    0  502 -0.34360633153E+02  0.11290880226E+02 -0.12501425245E+02  0.38555320257E+02  0.47000000000E+01 0.  1.
         11    1    6    6    0    0  0.92822386004E+00 -0.13147500997E+02 -0.28323403109E+02  0.31239935110E+02  0.00000000000E+00 0. -1.
        -12    1    6    6    0    0  0.86866483978E+02  0.11573250041E+03 -0.29479672505E+03  0.32839748292E+03  0.00000000000E+00 0.  1.
<mgrwt>
<rscale>  2 0.21539494E+03</rscale>
<asrwt>0</asrwt>
<pdfrwt beam="1">  1       21 0.81443745E-02 0.21576810E+03</pdfrwt>
<pdfrwt beam="2">  1       21 0.13914359E+00 0.21576810E+03</pdfrwt>
<totfact> 0.41742291E+04</totfact>
</mgrwt>
</event>
<event>
12    1  0.1050690E-001  0.1809988E+03  0.7546771E-02  0.1167077E+00
         21   -1    0    0  503  502  0.00000000000E+00  0.00000000000E+00  0.51672128095E+03  0.51672128095E+03  0.00000000000E+00 0.  1.
         21   -1    0    0  501  503 -0.00000000000E+00 -0.00000000000E+00 -0.72861193496E+02  0.72861193496E+02  0.00000000000E+00 0.  1.
          6    2    1    2  501    0  0.11435402203E+02 -0.52752470890E+02  0.32954585710E+03  0.37550695976E+03  0.17173064167E+03 0.  0.
         24    2    3    3    0    0 -0.31566264609E+02  0.90116444366E+01  0.25157002310E+03  0.26703452097E+03  0.83320586087E+02 0.  0.
         -6    2    1    2    0  502 -0.11435402203E+02  0.52752470890E+02  0.11431423036E+03  0.21407551469E+03  0.17276281752E+03 0.  0.
        -24    2    5    5    0    0 -0.56153704676E+02  0.80404269780E+02  0.79727550726E+02  0.15096706069E+03  0.82562012582E+02 0.  0.
          5    1    3    3  501    0  0.43001666812E+02 -0.61764115326E+02  0.77975833991E+02  0.10847243879E+03  0.47000000000E+01 0. -1.
        -11    1    4    4    0    0  0.28809976815E+01 -0.33979477023E+02  0.10810605400E+03  0.11335706382E+03  0.00000000000E+00 0.  1.
         12    1    4    4    0    0 -0.34447262291E+02  0.42991121459E+02  0.14346396910E+03  0.15367745714E+03  0.00000000000E+00 0. -1.
         -5    1    5    5    0  502  0.44718302473E+02 -0.27651798890E+02  0.34586679632E+02  0.63108453997E+02  0.47000000000E+01 0.  1.
         13    1    6    6    0    0 -0.48163894902E+01  0.21858978610E+02  0.68786181011E+02  0.72336375715E+02  0.00000000000E+00 0. -1.
        -14    1    6    6    0    0 -0.51337315186E+02  0.58545291170E+02  0.10941369715E+02  0.78630684977E+02  0.00000000000E+00 0.  1.
<mgrwt>
<rscale>  2 0.18075211E+03</rscale>
<asrwt>0</asrwt>
<pdfrwt beam="1">  1       21 0.79495579E-01 0.18099885E+03</pdfrwt>
<pdfrwt beam="2">  1       21 0.11209415E-01 0.18099885E+03</pdfrwt>
<totfact> 0.92893828E+04</totfact>
</mgrwt>
</event>
<event>
12    1  0.1050690E-001  0.2032735E+03  0.7546771E-02  0.1147443E+00
         21   -1    0    0  503  502  0.00000000000E+00  0.00000000000E+00  0.33717752166E+02  0.33717752166E+02  0.00000000000E+00 0. -1.
         21   -1    0    0  501  503 -0.00000000000E+00 -0.00000000000E+00 -0.20767117792E+04  0.20767117792E+04  0.00000000000E+00 0.  1.
          6    2    1    2  501    0  0.79443502034E+02 -0.64250926451E+02 -0.16989739445E+04  0.17108423510E+04  0.17329060710E+03 0.  0.
         24    2    3    3    0    0  0.53539947496E+02 -0.10822786965E+03 -0.11487994241E+04  0.11582855137E+04  0.85471729603E+02 0.  0.
         -6    2    1    2    0  502 -0.79443502034E+02  0.64250926451E+02 -0.34402008262E+03  0.39958718040E+03  0.17572889895E+03 0.  0.
        -24    2    5    5    0    0 -0.89049128159E+02  0.95316550883E+02 -0.33257439322E+03  0.36479587573E+03  0.73860082751E+02 0.  0.
          5    1    3    3  501    0  0.25903554538E+02  0.43976943199E+02 -0.55017452032E+03  0.55255683733E+03  0.47000000000E+01 0. -1.
        -11    1    4    4    0    0  0.53457877692E+02 -0.35765068238E+02 -0.76545199292E+03  0.76814948952E+03  0.00000000000E+00 0.  1.
         12    1    4    4    0    0  0.82069804505E-01 -0.72462801412E+02 -0.38334743123E+03  0.39013602417E+03  0.00000000000E+00 0. -1.
         -5    1    5    5    0  502  0.96056261249E+01 -0.31065624432E+02 -0.11445689397E+02  0.34791304667E+02  0.47000000000E+01 0.  1.
         11    1    6    6    0    0 -0.95152814243E+01  0.63521839516E+02 -0.13981930714E+03  0.15386683634E+03  0.00000000000E+00 0. -1.
        -12    1    6    6    0    0 -0.79533846735E+02  0.31794711367E+02 -0.19275508609E+03  0.21092903939E+03  0.00000000000E+00 0.  1.
<mgrwt>
<rscale>  2 0.20274536E+03</rscale>
<asrwt>0</asrwt>
<pdfrwt beam="1">  1       21 0.51873454E-02 0.20327345E+03</pdfrwt>
<pdfrwt beam="2">  1       21 0.31949419E+00 0.20327345E+03</pdfrwt>
<totfact> 0.65784951E+03</totfact>
</mgrwt>
</event>
<event>
12    1  0.1050690E-001  0.2121356E+03  0.7546771E-02  0.1139893E+00
         21   -1    0    0  501  502  0.00000000000E+00  0.00000000000E+00  0.12279272152E+03  0.12279272152E+03  0.00000000000E+00 0. -1.
         21   -1    0    0  502  503 -0.00000000000E+00 -0.00000000000E+00 -0.87605424439E+03  0.87605424439E+03  0.00000000000E+00 0.  1.
         -6    2    1    2    0  503  0.11735686478E+03  0.35743675446E+02 -0.75756353584E+03  0.78670454518E+03  0.17306439997E+03 0.  0.
        -24    2    3    3    0    0  0.65408669478E+02  0.96049695941E+01 -0.19656130769E+03  0.22267667626E+03  0.81104901114E+02 0.  0.
          6    2    1    2  501    0 -0.11735686478E+03 -0.35743675446E+02  0.43020129638E+01  0.21214242073E+03  0.17301923394E+03 0.  0.
         24    2    5    5    0    0 -0.14625194354E+03 -0.34925282220E+02 -0.23716203354E+02  0.17161211367E+03  0.79239213340E+02 0.  0.
          5    1    5    5  501    0  0.28895078765E+02 -0.81839322522E+00  0.28018216317E+02  0.40530307054E+02  0.47000000000E+01 0. -1.
        -13    1    6    6    0    0 -0.11952899852E+03 -0.25383448011E+02  0.15535409462E+02  0.12317812252E+03  0.00000000000E+00 0.  1.
         14    1    6    6    0    0 -0.26722945021E+02 -0.95418342090E+01 -0.39251612816E+02  0.48433991157E+02  0.00000000000E+00 0. -1.
         -5    1    3    3    0  503  0.51948195297E+02  0.26138705851E+02 -0.56100222815E+03  0.56402786893E+03  0.47000000000E+01 0.  1.
         13    1    4    4    0    0  0.31940928505E+02 -0.33125356564E+02 -0.12248568096E+03  0.13084438926E+03  0.00000000000E+00 0. -1.
        -14    1    4    4    0    0  0.33467740973E+02  0.42730326158E+02 -0.74075626732E+02  0.91832286997E+02  0.00000000000E+00 0.  1.
<mgrwt>
<rscale>  2 0.21212643E+03</rscale>
<asrwt>0</asrwt>
<pdfrwt beam="1">  1       21 0.18891187E-01 0.21213564E+03</pdfrwt>
<pdfrwt beam="2">  1       21 0.13477758E+00 0.21213564E+03</pdfrwt>
<totfact> 0.99849643E+03</totfact>
</mgrwt>
</event>
<event>
12    1  0.1050690E-001  0.1759569E+03  0.7546771E-02  0.1171878E+00
         21   -1    0    0  503  502  0.00000000000E+00  0.00000000000E+00  0.16178922555E+04  0.16178922555E+04  0.00000000000E+00 0.  1.
         21   -1    0    0  501  503 -0.00000000000E+00 -0.00000000000E+00 -0.65644512923E+02  0.65644512923E+02  0.00000000000E+00 0.  1.
          6    2    1    2  501    0  0.28991386007E+02  0.36956607618E+01  0.66986698445E+02  0.18788935323E+03  0.17309255592E+03 0.  0.
         24    2    3    3    0    0  0.52016333358E+02 -0.12454490604E+02 -0.19958897938E+02  0.96387427999E+02  0.77661865785E+02 0.  0.
         -6    2    1    2    0  502 -0.28991386007E+02 -0.36956607618E+01  0.14852610441E+04  0.14956474152E+04  0.17351271711E+03 0.  0.
        -24    2    5    5    0    0 -0.21042073657E+01  0.61851501797E+02  0.10186793562E+04  0.10236941204E+04  0.80074874732E+02 0.  0.
          5    1    3    3  501    0 -0.23024947351E+02  0.16150151366E+02  0.86945596383E+02  0.91501925226E+02  0.47000000000E+01 0. -1.
        -13    1    4    4    0    0 -0.20151824620E+02 -0.40878890582E+01 -0.10605790759E+02  0.23136327930E+02  0.00000000000E+00 0.  1.
         14    1    4    4    0    0  0.72168157978E+02 -0.83666015459E+01 -0.93531071792E+01  0.73251100069E+02  0.00000000000E+00 0. -1.
         -5    1    5    5    0  502 -0.26887178642E+02 -0.65547162559E+02  0.46658168796E+03  0.47195329476E+03  0.47000000000E+01 0.  1.
         11    1    6    6    0    0  0.17803228852E+02  0.28139517193E+02  0.84503662923E+03  0.84569243352E+03  0.00000000000E+00 0. -1.
        -12    1    6    6    0    0 -0.19907436218E+02  0.33711984604E+02  0.17364272693E+03  0.17800168690E+03  0.00000000000E+00 0.  1.
<mgrwt>
<rscale>  2 0.17585320E+03</rscale>
<asrwt>0</asrwt>
<pdfrwt beam="1">  1       21 0.24890647E+00 0.17595687E+03</pdfrwt>
<pdfrwt beam="2">  1       21 0.10099157E-01 0.17595687E+03</pdfrwt>
<totfact> 0.54779167E+03</totfact>
</mgrwt>
</event>
<event>
12    1  0.1050690E-001  0.2661933E+03  0.7546771E-02  0.1103560E+00
         21   -1    0    0  501  502  0.00000000000E+00  0.00000000000E+00  0.33706252073E+03  0.33706252073E+03  0.00000000000E+00 0.  1.
         21   -1    0    0  502  503 -0.00000000000E+00 -0.00000000000E+00 -0.67796964727E+03  0.67796964727E+03  0.00000000000E+00 0.  1.
         -6    2    1    2    0  503 -0.78030747355E+02  0.18579641004E+03 -0.59225728352E+03  0.64932855237E+03  0.17392462600E+03 0.  0.
        -24    2    3    3    0    0  0.18717565394E+02  0.59431315845E+02 -0.29431233617E+03  0.31150958503E+03  0.80845790134E+02 0.  0.
          6    2    1    2  501    0  0.78030747355E+02 -0.18579641004E+03  0.25135015698E+03  0.36570361563E+03  0.17306972455E+03 0.  0.
         24    2    5    5    0    0  0.80706998277E+02 -0.14779259451E+03  0.26606164835E+03  0.32459436738E+03  0.78844353301E+02 0.  0.
          5    1    5    5  501    0 -0.26762509226E+01 -0.38003815530E+02 -0.14711491370E+02  0.41109248256E+02  0.47000000000E+01 0. -1.
        -13    1    6    6    0    0  0.14520319318E+02 -0.41250552110E+02  0.14037920329E+03  0.14703322223E+03  0.00000000000E+00 0.  1.
         14    1    6    6    0    0  0.66186678959E+02 -0.10654204240E+03  0.12568244506E+03  0.17756114515E+03  0.00000000000E+00 0. -1.
         -5    1    3    3    0  503 -0.96748312749E+02  0.12636509419E+03 -0.29794494734E+03  0.33781896734E+03  0.47000000000E+01 0.  1.
         11    1    4    4    0    0  0.17502650144E+02  0.30844147789E+02 -0.32390987463E+02  0.48029993584E+02  0.00000000000E+00 0. -1.
        -12    1    4    4    0    0  0.12149152499E+01  0.28587168056E+02 -0.26192134871E+03  0.26347959144E+03  0.00000000000E+00 0.  1.
<mgrwt>
<rscale>  2 0.26605376E+03</rscale>
<asrwt>0</asrwt>
<pdfrwt beam="1">  1       21 0.51855773E-01 0.26619331E+03</pdfrwt>
<pdfrwt beam="2">  1       21 0.10430302E+00 0.26619331E+03</pdfrwt>
<totfact> 0.24775855E+03</totfact>
</mgrwt>
</event>
<event>
12    1  0.1050690E-001  0.1858623E+03  0.7546771E-02  0.1162690E+00
         21   -1    0    0  501  502  0.00000000000E+00  0.00000000000E+00  0.45163459585E+03  0.45163459585E+03  0.00000000000E+00 0. -1.
         21   -1    0    0  502  503 -0.00000000000E+00 -0.00000000000E+00 -0.16927465528E+03  0.16927465528E+03  0.00000000000E+00 0. -1.
         -6    2    1    2    0  503 -0.15597453759E+02  0.61930911592E+02 -0.89954413292E+02  0.20478091623E+03  0.17252451654E+03 0.  0.
        -24    2    3    3    0    0  0.50239872883E+02  0.65861016095E+02 -0.71965643905E+02  0.13625584691E+03  0.80776751899E+02 0.  0.
          6    2    1    2  501    0  0.15597453759E+02 -0.61930911592E+02  0.37231435386E+03  0.41612833491E+03  0.17454539423E+03 0.  0.
         24    2    5    5    0    0 -0.30506743305E+02 -0.93808058447E+02  0.28020175238E+03  0.30819978989E+03  0.82118665555E+02 0.  0.
          5    1    5    5  501    0  0.46104197064E+02  0.31877146855E+02  0.92112601480E+02  0.10792854502E+03  0.47000000000E+01 0. -1.
        -11    1    6    6    0    0 -0.40160330598E+02 -0.57147934010E+02  0.88283385742E+02  0.11257306389E+03  0.00000000000E+00 0.  1.
         12    1    6    6    0    0  0.96535872926E+01 -0.36660124437E+02  0.19191836664E+03  0.19562672600E+03  0.00000000000E+00 0. -1.
         -5    1    3    3    0  503 -0.65837326642E+02 -0.39301045037E+01 -0.17988769388E+02  0.68525069317E+02  0.47000000000E+01 0.  1.
         11    1    4    4    0    0  0.44272978089E+02  0.84573071067E+02 -0.64673059639E+02  0.11530527127E+03  0.00000000000E+00 0. -1.
        -12    1    4    4    0    0  0.59668947938E+01 -0.18712054971E+02 -0.72925842653E+01  0.20950575648E+02  0.00000000000E+00 0.  1.
<mgrwt>
<rscale>  2 0.18538640E+03</rscale>
<asrwt>0</asrwt>
<pdfrwt beam="1">  1       21 0.69482245E-01 0.18586235E+03</pdfrwt>
<pdfrwt beam="2">  1       21 0.26042255E-01 0.18586235E+03</pdfrwt>
<totfact> 0.26484300E+04</totfact>
</mgrwt>
</event>
<event>
12    1  0.1050690E-001  0.1781901E+03  0.7546771E-02  0.1169701E+00
         21   -1    0    0  503  502  0.00000000000E+00  0.00000000000E+00  0.90568805303E+03  0.90568805303E+03  0.00000000000E+00 0.  1.
         21   -1    0    0  501  503 -0.00000000000E+00 -0.00000000000E+00 -0.42440740827E+02  0.42440740827E+02  0.00000000000E+00 0.  1.
          6    2    1    2  501    0  0.40878292252E+02 -0.11057632323E+02  0.23191722902E+03  0.29213383240E+03  0.17252034345E+03 0.  0.
         24    2    3    3    0    0  0.47113845694E+02  0.44283677608E+02  0.10399911926E+03  0.15253914942E+03  0.90948429008E+02 0.  0.
         -6    2    1    2    0  502 -0.40878292252E+02  0.11057632323E+02  0.63133008318E+03  0.65599496146E+03  0.17308497775E+03 0.  0.
        -24    2    5    5    0    0  0.45589870080E+01  0.31610925875E+02  0.57844836291E+03  0.58315575113E+03  0.66693976715E+02 0.  0.
          5    1    3    3  501    0 -0.62355534423E+01 -0.55341309931E+02  0.12791810976E+03  0.13959468298E+03  0.47000000000E+01 0. -1.
        -13    1    4    4    0    0  0.52370828951E+02  0.22205283050E+02  0.11425623970E+03  0.12763332884E+03  0.00000000000E+00 0.  1.
         14    1    4    4    0    0 -0.52569832564E+01  0.22078394558E+02 -0.10257120434E+02  0.24905820581E+02  0.00000000000E+00 0. -1.
         -5    1    5    5    0  502 -0.45437279260E+02 -0.20553293552E+02  0.52881720276E+02  0.72839210332E+02  0.47000000000E+01 0.  1.
         13    1    6    6    0    0  0.25265494817E+02 -0.67362466476E+01  0.13059653767E+03  0.13318850513E+03  0.00000000000E+00 0. -1.
        -14    1    6    6    0    0 -0.20706507809E+02  0.38347172522E+02  0.44785182523E+03  0.44996724600E+03  0.00000000000E+00 0.  1.
<mgrwt>
<rscale>  2 0.17805285E+03</rscale>
<asrwt>0</asrwt>
<pdfrwt beam="1">  1       21 0.13933661E+00 0.17819011E+03</pdfrwt>
<pdfrwt beam="2">  1       21 0.65293454E-02 0.17819011E+03</pdfrwt>
<totfact> 0.62246860E+04</totfact>
</mgrwt>
</event>
<event>
12    1  0.1050690E-001  0.1751817E+03  0.7546771E-02  0.1172603E+00
         21   -1    0    0  501  502  0.00000000000E+00  0.00000000000E+00  0.62649738960E+02  0.62649738960E+02  0.00000000000E+00 0.  1.
         21   -1    0    0  502  503 -0.00000000000E+00 -0.00000000000E+00 -0.58658967333E+03  0.58658967333E+03  0.00000000000E+00 0.  1.
         -6    2    1    2    0  503 -0.35311429627E+01 -0.25216423151E+02 -0.39407351498E+03  0.43117079030E+03  0.17310684052E+03 0.  0.
        -24    2    3    3    0    0  0.24875374646E+01 -0.80901250181E+02 -0.30488855030E+03  0.32575223216E+03  0.81279078066E+02 0.  0.
          6    2    1    2  501    0  0.35311429627E+01  0.25216423151E+02 -0.12986641939E+03  0.21806862199E+03  0.17332137792E+03 0.  0.
         24    2    5    5    0    0  0.45413313351E+02  0.34915445586E+02 -0.20399805794E+02  0.10036893327E+03  0.79851821011E+02 0.  0.
          5    1    5    5  501    0 -0.41882170389E+02 -0.96990224352E+01 -0.10946661359E+03  0.11769968872E+03  0.47000000000E+01 0. -1.
        -11    1    6    6    0    0 -0.22137787967E+02  0.74545740989E+01  0.35276537833E+01  0.23624069765E+02  0.00000000000E+00 0.  1.
         12    1    6    6    0    0  0.67551101318E+02  0.27460871487E+02 -0.23927459577E+02  0.76744863502E+02  0.00000000000E+00 0. -1.
         -5    1    3    3    0  503 -0.60186804273E+01  0.55684827030E+02 -0.89184964685E+02  0.10541855814E+03  0.47000000000E+01 0.  1.
         13    1    4    4    0    0 -0.37195415788E+02 -0.43464643184E+02 -0.11922487727E+03  0.13223934937E+03  0.00000000000E+00 0. -1.
        -14    1    4    4    0    0  0.39682953252E+02 -0.37436606996E+02 -0.18566367303E+03  0.19351288279E+03  0.00000000000E+00 0.  1.
<mgrwt>
<rscale>  2 0.17512864E+03</rscale>
<asrwt>0</asrwt>
<pdfrwt beam="1">  1       21 0.96384216E-02 0.17518173E+03</pdfrwt>
<pdfrwt beam="2">  1       21 0.90244563E-01 0.17518173E+03</pdfrwt>
<totfact> 0.91066112E+04</totfact>
</mgrwt>
</event>
<event>
12    1  0.1050690E-001  0.2293201E+03  0.7546771E-02  0.1127405E+00
         21   -1    0    0  501  502  0.00000000000E+00  0.00000000000E+00  0.53096393897E+03  0.53096393897E+03  0.00000000000E+00 0.  1.
         21   -1    0    0  502  503 -0.00000000000E+00 -0.00000000000E+00 -0.10124127647E+03  0.10124127647E+03  0.00000000000E+00 0.  1.
         -6    2    1    2    0  503 -0.13766775771E+03 -0.57409425684E+02  0.16214897982E+03  0.28085581684E+03  0.17418221644E+03 0.  0.
        -24    2    3    3    0    0 -0.57911252106E+02 -0.81269023556E+02  0.41930546302E+02  0.13455153681E+03  0.79922325005E+02 0.  0.
          6    2    1    2  501    0  0.13766775771E+03  0.57409425684E+02  0.26757368268E+03  0.35134939860E+03  0.17205368512E+03 0.  0.
         24    2    5    5    0    0  0.15595145891E+03  0.59252284769E+02  0.27470739536E+03  0.33108441117E+03  0.79504990221E+02 0.  0.
          5    1    5    5  501    0 -0.18283701195E+02 -0.18428590846E+01 -0.71337126792E+01  0.20264987431E+02  0.47000000000E+01 0. -1.
        -13    1    6    6    0    0  0.72980702745E+02  0.67459024961E+02  0.12464437080E+03  0.15941493717E+03  0.00000000000E+00 0.  1.
         14    1    6    6    0    0  0.82970756160E+02 -0.82067401926E+01  0.15006302457E+03  0.17166947400E+03  0.00000000000E+00 0. -1.
         -5    1    3    3    0  503 -0.79756505605E+02  0.23859597872E+02  0.12021843352E+03  0.14630428003E+03  0.47000000000E+01 0.  1.
         13    1    4    4    0    0 -0.90747932992E+01  0.12859310247E+02  0.21358972918E+02  0.26531480501E+02  0.00000000000E+00 0. -1.
        -14    1    4    4    0    0 -0.48836458806E+02 -0.94128333803E+02  0.20571573384E+02  0.10802005631E+03  0.00000000000E+00 0.  1.
<mgrwt>
<rscale>  2 0.22891588E+03</rscale>
<asrwt>0</asrwt>
<pdfrwt beam="1">  1       21 0.81686758E-01 0.22932008E+03</pdfrwt>
<pdfrwt beam="2">  1       21 0.15575581E-01 0.22932008E+03</pdfrwt>
<totfact> 0.47203158E+04</totfact>
</mgrwt>
</event>
<event>
11    1  0.1050690E-001  0.1901938E+03  0.7546771E-02  0.1158563E+00
         21   -1    0    0  503  502  0.00000000000E+00  0.00000000000E+00  0.14382193896E+04  0.14382193896E+04  0.00000000000E+00 0. -1.
         21   -1    0    0  501  503 -0.00000000000E+00 -0.00000000000E+00 -0.25004532565E+02  0.25004532565E+02  0.00000000000E+00 0.  1.
          6    2    1    2  501    0  0.71477018780E+02  0.33510150889E+02  0.69124445558E+03  0.71693275212E+03  0.17303693033E+03 0.  0.
         24    2    3    3    0    0  0.85163040421E+02  0.32590446152E+02  0.26404952346E+03  0.28949181692E+03  0.75950514112E+02 0.  0.
         -6    2    1    2    0  502 -0.71477018780E+02 -0.33510150889E+02  0.72197040146E+03  0.74629117006E+03  0.17168970701E+03 0.  0.
          5    1    3    3  501    0 -0.13686021641E+02  0.91970473705E+00  0.42719493212E+03  0.42744093519E+03  0.47000000000E+01 0. -1.
        -11    1    4    4    0    0  0.13091399029E+02 -0.78707776439E+01  0.28651887359E+01  0.15541659363E+02  0.00000000000E+00 0.  1.
         12    1    4    4    0    0  0.72071641392E+02  0.40461223796E+02  0.26118433472E+03  0.27395015756E+03  0.00000000000E+00 0. -1.
         -5    1    5    5    0  502 -0.92253198893E+02  0.80851233285E+01  0.18922285389E+03  0.21072114360E+03  0.47000000000E+01 0.  1.
         13    1    5    5    0    0  0.19260878527E+02 -0.36236624776E+02  0.30430521841E+03  0.30705983190E+03  0.00000000000E+00 0. -1.
        -14    1    5    5    0    0  0.15153015858E+01 -0.53586494412E+01  0.22844232916E+03  0.22851019456E+03  0.00000000000E+00 0.  1.
<mgrwt>
<rscale>  2 0.18988682E+03</rscale>
<asrwt>0</asrwt>
<pdfrwt beam="1">  1       21 0.22126446E+00 0.19019378E+03</pdfrwt>
<pdfrwt beam="2">  1       21 0.38468523E-02 0.19019378E+03</pdfrwt>
<totfact> 0.41412298E+04</totfact>
</mgrwt>
</event>
<event>
12    1  0.1050690E-001  0.2208180E+03  0.7546771E-02  0.1133397E+00
         21   -1    0    0  503  502  0.00000000000E+00  0.00000000000E+00  0.22874949526E+02  0.22874949526E+02  0.00000000000E+00 0. -1.
         21   -1    0    0  501  503 -0.00000000000E+00 -0.00000000000E+00 -0.28695802538E+04  0.28695802538E+04  0.00000000000E+00 0. -1.
          6    2    1    2  501    0  0.96528173366E+02 -0.97699848740E+02 -0.68523695720E+03  0.71973662444E+03  0.17207025413E+03 0.  0.
         24    2    3    3    0    0  0.94629317238E+02 -0.10631107200E+02 -0.48729067038E+03  0.50342806272E+03  0.83185868851E+02 0.  0.
         -6    2    1    2    0  502 -0.96528173366E+02  0.97699848740E+02 -0.21614683471E+04  0.21727185789E+04  0.17290939513E+03 0.  0.
        -24    2    5    5    0    0 -0.42855528907E+02  0.19257473048E+02 -0.50527353354E+03  0.51379202552E+03  0.80457785010E+02 0.  0.
          5    1    3    3  501    0  0.18988561283E+01 -0.87068741540E+02 -0.19794628682E+03  0.21630856172E+03  0.47000000000E+01 0. -1.
        -13    1    4    4    0    0  0.50618377149E+02  0.29455164901E+02 -0.33184477053E+03  0.33697296416E+03  0.00000000000E+00 0.  1.
         14    1    4    4    0    0  0.44010940088E+02 -0.40086272102E+02 -0.15544589985E+03  0.16645509857E+03  0.00000000000E+00 0. -1.
         -5    1    5    5    0  502 -0.53672644459E+02  0.78442375692E+02 -0.16561948136E+04  0.16589265534E+04  0.47000000000E+01 0.  1.
         11    1    6    6    0    0  0.99290159975E+01  0.33407610617E+02 -0.27084559824E+03  0.27307872837E+03  0.00000000000E+00 0. -1.
        -12    1    6    6    0    0 -0.52784544904E+02 -0.14150137569E+02 -0.23442793530E+03  0.24071329715E+03  0.00000000000E+00 0.  1.
<mgrwt>
<rscale>  2 0.22065374E+03</rscale>
<asrwt>0</asrwt>
<pdfrwt beam="1">  1       21 0.35192243E-02 0.22081804E+03</pdfrwt>
<pdfrwt beam="2">  1       21 0.44147372E+00 0.22081804E+03</pdfrwt>
<totfact> 0.22094668E+03</totfact>
</mgrwt>
</event>
<event>
12    1  0.1050690E-001  0.1844825E+03  0.7546771E-02  0.1164510E+00
         21   -1    0    0  501  502  0.00000000000E+00  0.00000000000E+00  0.32853223947E+03  0.32853223947E+03  0.00000000000E+00 0. -1.
         21   -1    0    0  502  503 -0.00000000000E+00 -0.00000000000E+00 -0.48863879040E+03  0.48863879040E+03  0.00000000000E+00 0.  1.
         -6    2    1    2    0  503 -0.27423156039E+02 -0.58197002882E+02 -0.44363961769E+03  0.47890369690E+03  0.16850436164E+03 0.  0.
        -24    2    3    3    0    0 -0.41526407631E+02 -0.94672889256E+02 -0.39420581696E+03  0.41569623969E+03  0.81961814765E+02 0.  0.
          6    2    1    2  501    0  0.27423156039E+02  0.58197002882E+02  0.28353306676E+03  0.33826733296E+03  0.17290132438E+03 0.  0.
         24    2    5    5    0    0 -0.15515536420E+02  0.15750822580E+02  0.45523963486E+02  0.92674513901E+02  0.77635777789E+02 0.  0.
          5    1    5    5  501    0  0.42938692459E+02  0.42446180302E+02  0.23800910328E+03  0.24559281906E+03  0.47000000000E+01 0. -1.
        -11    1    6    6    0    0 -0.16811872232E+02 -0.29597340385E+02  0.27873682405E+02  0.43995269935E+02  0.00000000000E+00 0.  1.
         12    1    6    6    0    0  0.12963358115E+01  0.45348162965E+02  0.17650281081E+02  0.48679243966E+02  0.00000000000E+00 0. -1.
         -5    1    3    3    0  503  0.14103251592E+02  0.36475886374E+02 -0.49433800731E+02  0.63207457210E+02  0.47000000000E+01 0.  1.
         13    1    4    4    0    0 -0.50500948879E+02 -0.18133327770E+02 -0.19005740486E+03  0.19748665919E+03  0.00000000000E+00 0. -1.
        -14    1    4    4    0    0  0.89745412483E+01 -0.76539561485E+02 -0.20414841210E+03  0.21820958050E+03  0.00000000000E+00 0.  1.
<mgrwt>
<rscale>  2 0.18344517E+03</rscale>
<asrwt>0</asrwt>
<pdfrwt beam="1">  1       21 0.50543421E-01 0.18448249E+03</pdfrwt>
<pdfrwt beam="2">  1       21 0.75175199E-01 0.18448249E+03</pdfrwt>
<totfact> 0.59292466E+03</totfact>
</mgrwt>
</event>
<event>
12    1  0.1050690E-001  0.2439361E+03  0.7546771E-02  0.1117725E+00
         21   -1    0    0  503  502  0.00000000000E+00  0.00000000000E+00  0.10864379609E+04  0.10864379609E+04  0.00000000000E+00 0.  1.
         21   -1    0    0  501  503 -0.00000000000E+00 -0.00000000000E+00 -0.54775262223E+02  0.54775262223E+02  0.00000000000E+00 0.  1.
          6    2    1    2  501    0 -0.14228088097E+03 -0.92821271265E+02  0.45364499480E+03  0.51507146694E+03  0.17505769693E+03 0.  0.
         24    2    3    3    0    0 -0.59985297614E+02 -0.98820896574E+02  0.17614308722E+03  0.22552361725E+03  0.80440718760E+02 0.  0.
         -6    2    1    2    0  502  0.14228088097E+03  0.92821271265E+02  0.57801770388E+03  0.62614175619E+03  0.17055613550E+03 0.  0.
        -24    2    5    5    0    0  0.13258345058E+03  0.89663026332E+02  0.32319296080E+03  0.37106969902E+03  0.87299495731E+02 0.  0.
          5    1    3    3  501    0 -0.82295583358E+02  0.59996253097E+01  0.27750190759E+03  0.28954784969E+03  0.47000000000E+01 0. -1.
        -11    1    4    4    0    0 -0.77557010412E+02 -0.70594365913E+02  0.15096025235E+03  0.18381417832E+03  0.00000000000E+00 0.  1.
         12    1    4    4    0    0  0.17571712799E+02 -0.28226530661E+02  0.25182834865E+02  0.41709438928E+02  0.00000000000E+00 0. -1.
         -5    1    5    5    0  502  0.96974303878E+01  0.31582449322E+01  0.25482474308E+03  0.25507205718E+03  0.47000000000E+01 0.  1.
         13    1    6    6    0    0 -0.10499605091E+02  0.63928296356E+01  0.51214053973E+02  0.52668674771E+02  0.00000000000E+00 0. -1.
        -14    1    6    6    0    0  0.14308305568E+03  0.83270196697E+02  0.27197890683E+03  0.31840102425E+03  0.00000000000E+00 0.  1.
<mgrwt>
<rscale>  2 0.24312962E+03</rscale>
<asrwt>0</asrwt>
<pdfrwt beam="1">  1       21 0.16714429E+00 0.24393613E+03</pdfrwt>
<pdfrwt beam="2">  1       21 0.84269642E-02 0.24393613E+03</pdfrwt>
<totfact> 0.23726421E+04</totfact>
</mgrwt>
</event>
<event>
12    1  0.1050690E-001  0.1981564E+03  0.7546771E-02  0.1151482E+00
         21   -1    0    0  503  502  0.00000000000E+00  0.00000000000E+00  0.15618910729E+04  0.15618910729E+04  0.00000000000E+00 0. -1.
         21   -1    0    0  501  503 -0.00000000000E+00 -0.00000000000E+00 -0.29844671030E+02  0.29844671030E+02  0.00000000000E+00 0. -1.
          6    2    1    2  501    0  0.96111805757E+02 -0.36444995015E+01  0.44786159938E+03  0.48974071703E+03  0.17324894267E+03 0.  0.
         24    2    3    3    0    0  0.13000707686E+03  0.22136695633E+02  0.34041669954E+03  0.37406852536E+03  0.81558929675E+02 0.  0.
         -6    2    1    2    0  502 -0.96111805757E+02  0.36444995015E+01  0.10841848025E+04  0.11019950269E+04  0.17229507183E+03 0.  0.
        -24    2    5    5    0    0 -0.75948523085E+02 -0.22964070005E+02  0.36991185814E+03  0.38692684626E+03  0.81129987610E+02 0.  0.
          5    1    3    3  501    0 -0.33895271101E+02 -0.25781195135E+02  0.10744489984E+03  0.11567219167E+03  0.47000000000E+01 0. -1.
        -11    1    4    4    0    0  0.11763081978E+02  0.14862623512E+02  0.69581009375E+01  0.20191157568E+02  0.00000000000E+00 0.  1.
         12    1    4    4    0    0  0.11824399488E+03  0.72740721206E+01  0.33345859860E+03  0.35387736779E+03  0.00000000000E+00 0. -1.
         -5    1    5    5    0  502 -0.20163282672E+02  0.26608569507E+02  0.71427294440E+03  0.71506818069E+03  0.47000000000E+01 0.  1.
         11    1    6    6    0    0  0.27510233388E+01  0.14147492094E+02  0.12505762880E+02  0.19081765306E+02  0.00000000000E+00 0. -1.
        -12    1    6    6    0    0 -0.78699546424E+02 -0.37111562100E+02  0.35740609526E+03  0.36784508095E+03  0.00000000000E+00 0.  1.
<mgrwt>
<rscale>  2 0.19794771E+03</rscale>
<asrwt>0</asrwt>
<pdfrwt beam="1">  1       21 0.24029087E+00 0.19815640E+03</pdfrwt>
<pdfrwt beam="2">  1       21 0.45914891E-02 0.19815640E+03</pdfrwt>
<totfact> 0.23471032E+04</totfact>
</mgrwt>
</event>
<event>
12    1  0.1050690E-001  0.2522007E+03  0.7546771E-02  0.1111966E+00
         21   -1    0    0  503  502  0.00000000000E+00  0.00000000000E+00  0.33349428981E+03  0.33349428981E+03  0.00000000000E+00 0.  1.
         21   -1    0    0  501  503 -0.00000000000E+00 -0.00000000000E+00 -0.37842230490E+03  0.37842230490E+03  0.00000000000E+00 0. -1.
          6    2    1    2  501    0  0.58133722022E+02 -0.17435814933E+03 -0.27329156174E+03  0.37168858432E+03  0.17228996523E+03 0.  0.
         24    2    3    3    0    0  0.66965200086E+02 -0.11080069381E+03 -0.88640102898E+02  0.17614882772E+03  0.80063786411E+02 0.  0.
         -6    2    1    2    0  502 -0.58133722022E+02  0.17435814933E+03  0.22836354665E+03  0.34022801039E+03  0.17269885856E+03 0.  0.
        -24    2    5    5    0    0 -0.52304647747E+01  0.13986166603E+02  0.94585735553E+02  0.12473666437E+03  0.79936246158E+02 0.  0.
          5    1    3    3  501    0 -0.88314780639E+01 -0.63557455516E+02 -0.18465145884E+03  0.19553975659E+03  0.47000000000E+01 0. -1.
        -11    1    4    4    0    0  0.32667747950E+02 -0.72325803118E+02 -0.95478615347E+02  0.12415461949E+03  0.00000000000E+00 0.  1.
         12    1    4    4    0    0  0.34297452135E+02 -0.38474890694E+02  0.68385124491E+01  0.51994208230E+02  0.00000000000E+00 0. -1.
         -5    1    5    5    0  502 -0.52903257247E+02  0.16037198273E+03  0.13377781109E+03  0.21549134602E+03  0.47000000000E+01 0.  1.
         13    1    6    6    0    0  0.27031800604E+02 -0.83046865375E+01  0.75414023202E+01  0.29267026007E+02  0.00000000000E+00 0. -1.
        -14    1    6    6    0    0 -0.32262265378E+02  0.22290853140E+02  0.87044333232E+02  0.95469638362E+02  0.00000000000E+00 0.  1.
<mgrwt>
<rscale>  2 0.25213071E+03</rscale>
<asrwt>0</asrwt>
<pdfrwt beam="1">  1       21 0.51306814E-01 0.25220069E+03</pdfrwt>
<pdfrwt beam="2">  1       21 0.58218816E-01 0.25220069E+03</pdfrwt>
<totfact> 0.96152755E+03</totfact>
</mgrwt>
</event>
<event>
12    1  0.1050690E-001  0.2045161E+03  0.7546771E-02  0.1146094E+00
         21   -1    0    0  503  502  0.00000000000E+00  0.00000000000E+00  0.25121964375E+03  0.25121964375E+03  0.00000000000E+00 0.  1.
         21   -1    0    0  501  503 -0.00000000000E+00 -0.00000000000E+00 -0.37575511792E+03  0.37575511792E+03  0.00000000000E+00 0.  1.
          6    2    1    2  501    0 -0.87276598995E+02 -0.67025693304E+02 -0.29641883400E+03  0.35982174328E+03  0.17174956622E+03 0.  0.
         24    2    3    3    0    0 -0.56664639989E+02 -0.44924344416E+02 -0.30211987380E+03  0.32134898004E+03  0.82217216450E+02 0.  0.
         -6    2    1    2    0  502  0.87276598995E+02  0.67025693304E+02  0.17188335983E+03  0.26715301839E+03  0.17238676734E+03 0.  0.
        -24    2    5    5    0    0  0.52697773249E+02  0.73692613527E+02  0.45329747379E+02  0.13570702249E+03  0.90299243410E+02 0.  0.
          5    1    3    3  501    0 -0.30611959006E+02 -0.22101348888E+02  0.57010398029E+01  0.38472763245E+02  0.47000000000E+01 0. -1.
        -11    1    4    4    0    0 -0.35550863723E+02  0.92483393270E+01 -0.20412486969E+03  0.20740385271E+03  0.00000000000E+00 0.  1.
         12    1    4    4    0    0 -0.21113776266E+02 -0.54172683743E+02 -0.97995004110E+02  0.11394512733E+03  0.00000000000E+00 0. -1.
         -5    1    5    5    0  502  0.34578825746E+02 -0.66669202226E+01  0.12655361245E+03  0.13144599590E+03  0.47000000000E+01 0.  1.
         13    1    6    6    0    0 -0.19447721285E+02  0.30228307786E+00 -0.64632073555E+01  0.20495811464E+02  0.00000000000E+00 0. -1.
        -14    1    6    6    0    0  0.72145494534E+02  0.73390330449E+02  0.51792954734E+02  0.11521121102E+03  0.00000000000E+00 0.  1.
<mgrwt>
<rscale>  2 0.20438179E+03</rscale>
<asrwt>0</asrwt>
<pdfrwt beam="1">  1       21 0.38649176E-01 0.20451613E+03</pdfrwt>
<pdfrwt beam="2">  1       21 0.57808479E-01 0.20451613E+03</pdfrwt>
<totfact> 0.17982349E+04</totfact>
</mgrwt>
</event>
<event>
12    1  0.1050690E-001  0.3404595E+03  0.7546771E-02  0.1066650E+00
         21   -1    0    0  503  502  0.00000000000E+00  0.00000000000E+00  0.30233710401E+04  0.30233710401E+04  0.00000000000E+00 0. -1.
         21   -1    0    0  501  503 -0.00000000000E+00 -0.00000000000E+00 -0.56316537769E+02  0.56316537769E+02  0.00000000000E+00 0.  1.
          6    2    1    2  501    0  0.28379304640E+03 -0.73138992238E+02  0.23541145049E+04  0.23785398478E+04  0.17236269984E+03 0.  0.
         24    2    3    3    0    0  0.26490156911E+03 -0.10739612889E+03  0.21816866037E+04  0.22016672654E+04  0.76652076217E+02 0.  0.
         -6    2    1    2    0  502 -0.28379304640E+03  0.73138992238E+02  0.61293999742E+03  0.70114773000E+03  0.17327692712E+03 0.  0.
        -24    2    5    5    0    0 -0.20320182550E+03  0.98027005261E+02  0.53505760257E+03  0.58624727088E+03  0.80616058570E+02 0.  0.
          5    1    3    3  501    0  0.18891477297E+02  0.34257136657E+02  0.17242790118E+03  0.17687258248E+03  0.47000000000E+01 0. -1.
        -11    1    4    4    0    0 -0.34353539058E+01  0.11811070922E+01  0.79429028590E+01  0.87342072479E+01  0.00000000000E+00 0.  1.
         12    1    4    4    0    0  0.26833692301E+03 -0.10857723599E+03  0.21737437008E+04  0.21929330581E+04  0.00000000000E+00 0. -1.
         -5    1    5    5    0  502 -0.80591220900E+02 -0.24888013022E+02  0.77882394857E+02  0.11490045912E+03  0.47000000000E+01 0.  1.
         13    1    6    6    0    0 -0.66819976106E+02  0.24148161379E+01  0.21911599606E+03  0.22909072498E+03  0.00000000000E+00 0. -1.
        -14    1    6    6    0    0 -0.13638184940E+03  0.95612189123E+02  0.31594160651E+03  0.35715654590E+03  0.00000000000E+00 0.  1.
<mgrwt>
<rscale>  2 0.34034338E+03</rscale>
<asrwt>0</asrwt>
<pdfrwt beam="1">  1       21 0.46513388E+00 0.34045954E+03</pdfrwt>
<pdfrwt beam="2">  1       21 0.86640851E-02 0.34045954E+03</pdfrwt>
<totfact> 0.28561854E+02</totfact>
</mgrwt>
</event>
<event>
12    1  0.1050690E-001  0.2463299E+03  0.7546771E-02  0.1118282E+00
         21   -1    0    0  501  502  0.00000000000E+00  0.00000000000E+00  0.22561650675E+03  0.22561650675E+03  0.00000000000E+00 0. -1.
         21   -1    0    0  502  503 -0.00000000000E+00 -0.00000000000E+00 -0.25293915049E+03  0.25293915049E+03  0.00000000000E+00 0.  1.
         -6    2    1    2    0  503 -0.32166327202E+02 -0.16963207396E+03 -0.27995786082E+02  0.23222486087E+03  0.15275768015E+03 0.  0.
        -24    2    3    3    0    0 -0.22906821504E+02 -0.85826759774E+02  0.37347845527E+02  0.12544963283E+03  0.80323058001E+02 0.  0.
          6    2    1    2  501    0  0.32166327202E+02  0.16963207396E+03  0.67314233815E+00  0.24633079637E+03  0.17569489178E+03 0.  0.
         24    2    5    5    0    0 -0.12305341174E+01  0.33781732973E+02  0.45022941846E+02  0.99498714698E+02  0.82037852466E+02 0.  0.
          5    1    5    5  501    0  0.33396861319E+02  0.13585034098E+03 -0.44349799508E+02  0.14683208167E+03  0.47000000000E+01 0. -1.
        -11    1    6    6    0    0 -0.19350395068E+02  0.50300537613E+02  0.71286158171E+01  0.54363581899E+02  0.00000000000E+00 0.  1.
         12    1    6    6    0    0  0.18119860951E+02 -0.16518804640E+02  0.37894326029E+02  0.45135132799E+02  0.00000000000E+00 0. -1.
         -5    1    3    3    0  503 -0.92595056982E+01 -0.83805314182E+02 -0.65343631609E+02  0.10677522804E+03  0.47000000000E+01 0.  1.
         13    1    4    4    0    0 -0.26460710736E+02 -0.50292164629E+00  0.29592166658E+02  0.39700358568E+02  0.00000000000E+00 0. -1.
        -14    1    4    4    0    0  0.35538892328E+01 -0.85323838128E+02  0.77556788684E+01  0.85749274261E+02  0.00000000000E+00 0.  1.
<mgrwt>
<rscale>  2 0.24228149E+03</rscale>
<asrwt>0</asrwt>
<pdfrwt beam="1">  1       21 0.34710232E-01 0.24632988E+03</pdfrwt>
<pdfrwt beam="2">  1       21 0.38913715E-01 0.24632988E+03</pdfrwt>
<totfact> 0.49731086E+04</totfact>
</mgrwt>
</event>
<event>
12    1  0.1050690E-001  0.1778746E+03  0.7546771E-02  0.1170055E+00
         21   -1    0    0  503  502  0.00000000000E+00  0.00000000000E+00  0.27212857558E+03  0.27212857558E+03  0.00000000000E+00 0. -1.
         21   -1    0    0  501  503 -0.00000000000E+00 -0.00000000000E+00 -0.13154857464E+03  0.13154857464E+03  0.00000000000E+00 0. -1.
          6    2    1    2  501    0  0.19618017532E+02 -0.35388920924E+02  0.30827168591E+00  0.17714781956E+03  0.17246452565E+03 0.  0.
         24    2    3    3    0    0 -0.55242503276E+02 -0.32438090814E+02 -0.13648276221E+01  0.10206323901E+03  0.79442294149E+02 0.  0.
         -6    2    1    2    0  502 -0.19618017532E+02  0.35388920924E+02  0.14027172926E+03  0.22652933066E+03  0.17321125045E+03 0.  0.
        -24    2    5    5    0    0 -0.71343127661E+02  0.46849919068E+02  0.62175711527E+02  0.13204166225E+03  0.79274363349E+02 0.  0.
          5    1    3    3  501    0  0.74860520808E+02 -0.29508301093E+01  0.16730993080E+01  0.75084580543E+02  0.47000000000E+01 0. -1.
        -11    1    4    4    0    0 -0.50509041853E+02  0.15926051175E+02  0.43217408302E+01  0.53136426854E+02  0.00000000000E+00 0.  1.
         12    1    4    4    0    0 -0.47334614228E+01 -0.48364141989E+02 -0.56865684523E+01  0.48926812160E+02  0.00000000000E+00 0. -1.
         -5    1    5    5    0  502  0.51725110129E+02 -0.11460998145E+02  0.78096017730E+02  0.94487668410E+02  0.47000000000E+01 0.  1.
         11    1    6    6    0    0 -0.85216919774E+02  0.22820907092E+02  0.52482982709E+02  0.10265077053E+03  0.00000000000E+00 0. -1.
        -12    1    6    6    0    0  0.13873792112E+02  0.24029011977E+02  0.96927288186E+01  0.29390891720E+02  0.00000000000E+00 0.  1.
<mgrwt>
<rscale>  2 0.17769257E+03</rscale>
<asrwt>0</asrwt>
<pdfrwt beam="1">  1       21 0.41865935E-01 0.17787462E+03</pdfrwt>
<pdfrwt beam="2">  1       21 0.20238242E-01 0.17787462E+03</pdfrwt>
<totfact> 0.12463375E+05</totfact>
</mgrwt>
</event>
<event>
12    1  0.1050690E-001  0.2075673E+03  0.7546771E-02  0.1143627E+00
         21   -1    0    0  503  502  0.00000000000E+00  0.00000000000E+00  0.14581838335E+04  0.14581838335E+04  0.00000000000E+00 0.  1.
         21   -1    0    0  501  503 -0.00000000000E+00 -0.00000000000E+00 -0.10169826604E+03  0.10169826604E+03  0.00000000000E+00 0.  1.
          6    2    1    2  501    0  0.60289990341E+02  0.97733783146E+02  0.20628465277E+02  0.20799512620E+03  0.17219077688E+03 0.  0.
         24    2    3    3    0    0  0.66426935281E+02  0.53717018444E+02 -0.49411885156E+02  0.12491156371E+03  0.76572244005E+02 0.  0.
         -6    2    1    2    0  502 -0.60289990341E+02 -0.97733783146E+02  0.13358571022E+04  0.13518869733E+04  0.17290869239E+03 0.  0.
        -24    2    5    5    0    0 -0.32481870575E+02 -0.10373400753E+03  0.57715814211E+03  0.59264030970E+03  0.79342292905E+02 0.  0.
          5    1    3    3  501    0 -0.61369449407E+01  0.44016764701E+02  0.70040350433E+02  0.83083562494E+02  0.47000000000E+01 0. -1.
        -11    1    4    4    0    0 -0.93450713020E+01  0.13574660563E+02 -0.34007515793E+02  0.37790381018E+02  0.00000000000E+00 0.  1.
         12    1    4    4    0    0  0.75772006583E+02  0.40142357882E+02 -0.15404369363E+02  0.87121182691E+02  0.00000000000E+00 0. -1.
         -5    1    5    5    0  502 -0.27808119766E+02  0.60002243859E+01  0.75869896006E+03  0.75924666362E+03  0.47000000000E+01 0.  1.
         13    1    6    6    0    0 -0.85520207010E+01 -0.41379875486E+01  0.38456216960E+01  0.10249331942E+02  0.00000000000E+00 0. -1.
        -14    1    6    6    0    0 -0.23929849874E+02 -0.99596019983E+02  0.57331252041E+03  0.58239097776E+03  0.00000000000E+00 0.  1.
<mgrwt>
<rscale>  2 0.20741774E+03</rscale>
<asrwt>0</asrwt>
<pdfrwt beam="1">  1       21 0.22433596E+00 0.20756732E+03</pdfrwt>
<pdfrwt beam="2">  1       21 0.15645888E-01 0.20756732E+03</pdfrwt>
<totfact> 0.33869052E+03</totfact>
</mgrwt>
</event>
<event>
12    1  0.1050690E-001  0.1901684E+03  0.7546771E-02  0.1158408E+00
         21   -1    0    0  501  502  0.00000000000E+00  0.00000000000E+00  0.53132024319E+02  0.53132024319E+02  0.00000000000E+00 0. -1.
         21   -1    0    0  502  503 -0.00000000000E+00 -0.00000000000E+00 -0.73268134492E+03  0.73268134492E+03  0.00000000000E+00 0.  1.
         -6    2    1    2    0  503  0.76988082853E+02  0.13729524712E+02 -0.44568327117E+03  0.48438781402E+03  0.17286500923E+03 0.  0.
        -24    2    3    3    0    0  0.39460256040E+02  0.74784906850E+02 -0.22225802011E+03  0.24970285437E+03  0.76177384288E+02 0.  0.
          6    2    1    2  501    0 -0.76988082853E+02 -0.13729524712E+02 -0.23386604943E+03  0.30142555522E+03  0.17334466105E+03 0.  0.
         24    2    5    5    0    0 -0.82874598084E+02 -0.39384790613E+02 -0.24363879971E+03  0.27295732068E+03  0.82015080626E+02 0.  0.
          5    1    5    5  501    0  0.58865152319E+01  0.25655265901E+02  0.97727502787E+01  0.28468234543E+02  0.47000000000E+01 0. -1.
        -11    1    6    6    0    0 -0.47337505945E+02 -0.36626695560E+01 -0.20225545468E+03  0.20775351637E+03  0.00000000000E+00 0.  1.
         12    1    6    6    0    0 -0.35537092139E+02 -0.35722121057E+02 -0.41383345031E+02  0.65203804310E+02  0.00000000000E+00 0. -1.
         -5    1    3    3    0  503  0.37527826813E+02 -0.61055382138E+02 -0.22342525106E+03  0.23468495965E+03  0.47000000000E+01 0.  1.
         11    1    4    4    0    0  0.57191041977E+02  0.28410972362E+02 -0.13400977243E+03  0.14844735680E+03  0.00000000000E+00 0. -1.
        -12    1    4    4    0    0 -0.17730785938E+02  0.46373934488E+02 -0.88248247679E+02  0.10125549757E+03  0.00000000000E+00 0.  1.
<mgrwt>
<rscale>  2 0.19005907E+03</rscale>
<asrwt>0</asrwt>
<pdfrwt beam="1">  1       21 0.81741574E-02 0.19016844E+03</pdfrwt>
<pdfrwt beam="2">  1       21 0.11272021E+00 0.19016844E+03</pdfrwt>
<totfact> 0.71230100E+04</totfact>
</mgrwt>
</event>
<event>
12    1  0.1050690E-001  0.1935047E+03  0.7546771E-02  0.1155781E+00
         21   -1    0    0  503  502  0.00000000000E+00  0.00000000000E+00  0.94126828245E+03  0.94126828245E+03  0.00000000000E+00 0.  1.
         21   -1    0    0  501  503 -0.00000000000E+00 -0.00000000000E+00 -0.78499298985E+02  0.78499298985E+02  0.00000000000E+00 0.  1.
          6    2    1    2  501    0  0.68645330883E+02  0.48941372911E+02  0.72522498584E+02  0.20664840541E+03  0.17417408310E+03 0.  0.
         24    2    3    3    0    0  0.91106428968E+02  0.70203270329E+01  0.67789866994E+00  0.12036044825E+03  0.78335889382E+02 0.  0.
         -6    2    1    2    0  502 -0.68645330883E+02 -0.48941372911E+02  0.79024648488E+03  0.81311917602E+03  0.17194722478E+03 0.  0.
        -24    2    5    5    0    0 -0.74344985325E+02 -0.94733140416E+02  0.56293305078E+03  0.58112163432E+03  0.79417815879E+02 0.  0.
          5    1    3    3  501    0 -0.22461098085E+02  0.41921045878E+02  0.71844599914E+02  0.86287957164E+02  0.47000000000E+01 0. -1.
        -11    1    4    4    0    0  0.43861815584E+02 -0.10687116429E+02 -0.36199520139E+02  0.57866039973E+02  0.00000000000E+00 0.  1.
         12    1    4    4    0    0  0.47244613384E+02  0.17707443462E+02  0.36877418809E+02  0.62494408277E+02  0.00000000000E+00 0. -1.
         -5    1    5    5    0  502  0.56996544418E+01  0.45791767505E+02  0.22731343410E+03  0.23199754170E+03  0.47000000000E+01 0.  1.
         11    1    6    6    0    0  0.10497451935E+02 -0.44126860692E+02  0.16698375407E+03  0.17303453544E+03  0.00000000000E+00 0. -1.
        -12    1    6    6    0    0 -0.84842437260E+02 -0.50606279724E+02  0.39594929671E+03  0.40808709888E+03  0.00000000000E+00 0.  1.
<mgrwt>
<rscale>  2 0.19300221E+03</rscale>
<asrwt>0</asrwt>
<pdfrwt beam="1">  1       21 0.14481050E+00 0.19350465E+03</pdfrwt>
<pdfrwt beam="2">  1       21 0.12076816E-01 0.19350465E+03</pdfrwt>
<totfact> 0.19006599E+04</totfact>
</mgrwt>
</event>
<event>
12    1  0.1050690E-001  0.2073699E+03  0.7546771E-02  0.1145174E+00
         21   -1    0    0  503  502  0.00000000000E+00  0.00000000000E+00  0.62151550772E+03  0.62151550772E+03  0.00000000000E+00 0. -1.
         21   -1    0    0  501  503 -0.00000000000E+00 -0.00000000000E+00 -0.80706512763E+02  0.80706512763E+02  0.00000000000E+00 0. -1.
          6    2    1    2  501    0  0.10020519609E+03 -0.41514130763E+02  0.12041972347E+03  0.23346897445E+03  0.16805459783E+03 0.  0.
         24    2    3    3    0    0  0.88870096266E+02 -0.49716408834E+02  0.15114522468E+03  0.19938219874E+03  0.80862642261E+02 0.  0.
         -6    2    1    2    0  502 -0.10020519609E+03  0.41514130763E+02  0.42038927148E+03  0.46875304603E+03  0.17674211217E+03 0.  0.
        -24    2    5    5    0    0 -0.84385667491E+02  0.23049624869E+02  0.42721339888E+03  0.44306541909E+03  0.78380171775E+02 0.  0.
          5    1    3    3  501    0  0.11335099819E+02  0.82022780705E+01 -0.30725501209E+02  0.34086775706E+02  0.47000000000E+01 0. -1.
        -11    1    4    4    0    0  0.68888102452E+01  0.18680212801E+02  0.43142647005E+02  0.47515198069E+02  0.00000000000E+00 0.  1.
         12    1    4    4    0    0  0.81981286021E+02 -0.68396621635E+02  0.10800257768E+03  0.15186700067E+03  0.00000000000E+00 0. -1.
         -5    1    5    5    0  502 -0.15819528594E+02  0.18464505894E+02 -0.68241274032E+01  0.25687626937E+02  0.47000000000E+01 0.  1.
         11    1    6    6    0    0 -0.83414189878E+02  0.23565971759E+02  0.22910304247E+03  0.24495200788E+03  0.00000000000E+00 0. -1.
        -12    1    6    6    0    0 -0.97147761351E+00 -0.51634689002E+00  0.19811035641E+03  0.19811341121E+03  0.00000000000E+00 0.  1.
<mgrwt>
<rscale>  2 0.20550675E+03</rscale>
<asrwt>0</asrwt>
<pdfrwt beam="1">  1       21 0.95617767E-01 0.20736991E+03</pdfrwt>
<pdfrwt beam="2">  1       21 0.12416387E-01 0.20736991E+03</pdfrwt>
<totfact> 0.49992721E+04</totfact>
</mgrwt>
</event>
<event>
12    1  0.1050690E-001  0.2053203E+03  0.7546771E-02  0.1148660E+00
         21   -1    0    0  503  502  0.00000000000E+00  0.00000000000E+00  0.11043188973E+03  0.11043188973E+03  0.00000000000E+00 0.  1.
         21   -1    0    0  501  503 -0.00000000000E+00 -0.00000000000E+00 -0.42130421799E+03  0.42130421799E+03  0.00000000000E+00 0.  1.
          6    2    1    2  501    0 -0.47190151497E+02 -0.60753762562E+02 -0.26746695462E+03  0.33718689166E+03  0.19036411960E+03 0.  0.
         24    2    3    3    0    0 -0.78823924114E+02  0.16540575311E+02 -0.10687909889E+03  0.15611878392E+03  0.80393602150E+02 0.  0.
         -6    2    1    2    0  502  0.47190151497E+02  0.60753762562E+02 -0.43405373640E+02  0.19454921606E+03  0.17334197687E+03 0.  0.
        -24    2    5    5    0    0 -0.10795693229E+02  0.91021662721E+02 -0.35617742095E+02  0.12850952214E+03  0.82731998959E+02 0.  0.
          5    1    3    3  501    0  0.31633772617E+02 -0.77294337873E+02 -0.16058785572E+03  0.18106810775E+03  0.47000000000E+01 0. -1.
        -13    1    4    4    0    0 -0.22006846208E+02 -0.32090890592E+02 -0.33528416805E+02  0.51364202247E+02  0.00000000000E+00 0.  1.
         14    1    4    4    0    0 -0.56817077905E+02  0.48631465903E+02 -0.73350682090E+02  0.10475458167E+03  0.00000000000E+00 0. -1.
         -5    1    5    5    0  502  0.57985844726E+02 -0.30267900159E+02 -0.77876315446E+01  0.66039693925E+02  0.47000000000E+01 0.  1.
         11    1    6    6    0    0 -0.30751170360E+02  0.37731628171E+02  0.16449036255E+02  0.51379772641E+02  0.00000000000E+00 0. -1.
        -12    1    6    6    0    0  0.19955477131E+02  0.53290034550E+02 -0.52066778350E+02  0.77129749498E+02  0.00000000000E+00 0.  1.
<mgrwt>
<rscale>  2 0.20128411E+03</rscale>
<asrwt>0</asrwt>
<pdfrwt beam="1">  1       21 0.16989522E-01 0.20532031E+03</pdfrwt>
<pdfrwt beam="2">  1       21 0.64816033E-01 0.20532031E+03</pdfrwt>
<totfact> 0.68098115E+04</totfact>
</mgrwt>
</event>
<event>
12    1  0.1050690E-001  0.2802246E+03  0.7546771E-02  0.1095962E+00
         21   -1    0    0  503  502  0.00000000000E+00  0.00000000000E+00  0.93868588392E+02  0.93868588392E+02  0.00000000000E+00 0. -1.
         21   -1    0    0  501  503 -0.00000000000E+00 -0.00000000000E+00 -0.98763721771E+03  0.98763721771E+03  0.00000000000E+00 0.  1.
          6    2    1    2  501    0 -0.16836017623E+03  0.14087870618E+03 -0.66237527348E+03  0.71809324656E+03  0.16948436222E+03 0.  0.
         24    2    3    3    0    0 -0.81085267650E+02  0.78855795453E+02 -0.51716490175E+03  0.53761639713E+03  0.93695238670E+02 0.  0.
         -6    2    1    2    0  502  0.16836017623E+03 -0.14087870618E+03 -0.23139335584E+03  0.36341255955E+03  0.17416614055E+03 0.  0.
        -24    2    5    5    0    0  0.36229614914E+02 -0.26703759748E+02 -0.35833473754E+02  0.10119097175E+03  0.83246015765E+02 0.  0.
          5    1    3    3  501    0 -0.87274908581E+02  0.62022910723E+02 -0.14521037173E+03  0.18047684943E+03  0.47000000000E+01 0. -1.
        -13    1    4    4    0    0 -0.80252805616E+02  0.79532713750E+02 -0.30191987485E+03  0.32236869605E+03  0.00000000000E+00 0.  1.
         14    1    4    4    0    0 -0.83246203386E+00 -0.67691829725E+00 -0.21524502690E+03  0.21524770107E+03  0.00000000000E+00 0. -1.
         -5    1    5    5    0  502  0.13213056132E+03 -0.11417494643E+03 -0.19555988208E+03  0.26222158780E+03  0.47000000000E+01 0.  1.
         11    1    6    6    0    0  0.38210426728E+01 -0.33974659566E+02  0.17464206161E+02  0.38391097361E+02  0.00000000000E+00 0. -1.
        -12    1    6    6    0    0  0.32408572241E+02  0.72708998183E+01 -0.53297679915E+02  0.62799874388E+02  0.00000000000E+00 0.  1.
<mgrwt>
<rscale>  2 0.27950036E+03</rscale>
<asrwt>0</asrwt>
<pdfrwt beam="1">  1       21 0.14441322E-01 0.28022456E+03</pdfrwt>
<pdfrwt beam="2">  1       21 0.15194418E+00 0.28022456E+03</pdfrwt>
<totfact> 0.11490674E+04</totfact>
</mgrwt>
</event>
<event>
12    1  0.1050690E-001  0.1903703E+03  0.7546771E-02  0.1158205E+00
         21   -1    0    0  503  502  0.00000000000E+00  0.00000000000E+00  0.10769418957E+03  0.10769418957E+03  0.00000000000E+00 0.  1.
         21   -1    0    0  501  503 -0.00000000000E+00 -0.00000000000E+00 -0.33982087529E+03  0.33982087529E+03  0.00000000000E+00 0. -1.
          6    2    1    2  501    0 -0.78909954655E+02 -0.64000712103E+01 -0.92171229999E+02  0.21150982421E+03  0.17312749129E+03 0.  0.
         24    2    3    3    0    0  0.78713401131E+01  0.20873431794E+01  0.49449104875E+01  0.80908660094E+02  0.80345778618E+02 0.  0.
         -6    2    1    2    0  502  0.78909954655E+02  0.64000712103E+01 -0.13995545571E+03  0.23600524065E+03  0.17275185144E+03 0.  0.
        -24    2    5    5    0    0  0.48777736107E+02 -0.63302829602E+02 -0.90337087267E+02  0.14517288153E+03  0.80795175727E+02 0.  0.
          5    1    3    3  501    0 -0.86781294768E+02 -0.84874143897E+01 -0.97116140487E+02  0.13060116411E+03  0.47000000000E+01 0. -1.
        -11    1    4    4    0    0  0.33672534786E+02 -0.25763505584E+02  0.65923319028E+01  0.42907536154E+02  0.00000000000E+00 0.  1.
         12    1    4    4    0    0 -0.25801194673E+02  0.27850848763E+02 -0.16474214152E+01  0.38001123940E+02  0.00000000000E+00 0. -1.
         -5    1    5    5    0  502  0.30132218548E+02  0.69702900813E+02 -0.49618368445E+02  0.90832359121E+02  0.47000000000E+01 0.  1.
         11    1    6    6    0    0  0.52450855543E+02 -0.48089543115E+02 -0.10289693117E+03  0.12510585457E+03  0.00000000000E+00 0. -1.
        -12    1    6    6    0    0 -0.36731194356E+01 -0.15213286488E+02  0.12559843902E+02  0.20067026960E+02  0.00000000000E+00 0.  1.
<mgrwt>
<rscale>  2 0.19028490E+03</rscale>
<asrwt>0</asrwt>
<pdfrwt beam="1">  1       21 0.16568337E-01 0.19037035E+03</pdfrwt>
<pdfrwt beam="2">  1       21 0.52280135E-01 0.19037035E+03</pdfrwt>
<totfact> 0.11362384E+05</totfact>
</mgrwt>
</event>
<event>
12    1  0.1050690E-001  0.1960509E+03  0.7546771E-02  0.1153712E+00
         21   -1    0    0  503  502  0.00000000000E+00  0.00000000000E+00  0.15121763036E+03  0.15121763036E+03  0.00000000000E+00 0. -1.
         21   -1    0    0  501  503 -0.00000000000E+00 -0.00000000000E+00 -0.83678861784E+03  0.83678861784E+03  0.00000000000E+00 0. -1.
          6    2    1    2  501    0  0.81309226463E+02 -0.43427305884E+02 -0.75695912954E+03  0.78193545871E+03  0.17302836934E+03 0.  0.
         24    2    3    3    0    0  0.65369509463E+02  0.37914454737E+02 -0.35308291947E+03  0.36961441916E+03  0.78972097505E+02 0.  0.
         -6    2    1    2    0  502 -0.81309226463E+02  0.43427305884E+02  0.71388142060E+02  0.20607078949E+03  0.16991698636E+03 0.  0.
        -24    2    5    5    0    0  0.60580140284E+01  0.32049121504E+01 -0.73807833426E+01  0.81662151219E+02  0.81038632658E+02 0.  0.
          5    1    3    3  501    0  0.15939716999E+02 -0.81341760621E+02 -0.40387621007E+03  0.41232103956E+03  0.47000000000E+01 0. -1.
        -11    1    4    4    0    0  0.52123570764E+02  0.23466483663E+02 -0.95598307912E+02  0.11138482374E+03  0.00000000000E+00 0.  1.
         12    1    4    4    0    0  0.13245938700E+02  0.14447971074E+02 -0.25748461155E+03  0.25822959541E+03  0.00000000000E+00 0. -1.
         -5    1    5    5    0  502 -0.87367240491E+02  0.40222393733E+02  0.78768925402E+02  0.12440863828E+03  0.47000000000E+01 0.  1.
         11    1    6    6    0    0 -0.26374455107E+02  0.16884593944E+02 -0.27013875512E+02  0.41357597428E+02  0.00000000000E+00 0. -1.
        -12    1    6    6    0    0  0.32432469135E+02 -0.13679681793E+02  0.19633092169E+02  0.40304553791E+02  0.00000000000E+00 0.  1.
<mgrwt>
<rscale>  2 0.19536212E+03</rscale>
<asrwt>0</asrwt>
<pdfrwt beam="1">  1       21 0.23264251E-01 0.19605086E+03</pdfrwt>
<pdfrwt beam="2">  1       21 0.12873671E+00 0.19605086E+03</pdfrwt>
<totfact> 0.76748350E+03</totfact>
</mgrwt>
</event>
<event>
12    1  0.1050690E-001  0.1914564E+03  0.7546771E-02  0.1157257E+00
         21   -1    0    0  503  502  0.00000000000E+00  0.00000000000E+00  0.23022383315E+03  0.23022383315E+03  0.00000000000E+00 0. -1.
         21   -1    0    0  501  503 -0.00000000000E+00 -0.00000000000E+00 -0.16836859720E+03  0.16836859720E+03  0.00000000000E+00 0.  1.
          6    2    1    2  501    0  0.28409905781E+02  0.80134701604E+02  0.78313173461E+02  0.20642997986E+03  0.17103125533E+03 0.  0.
         24    2    3    3    0    0  0.10004458973E+01 -0.19395078519E+02  0.82930955756E+01  0.81600668680E+02  0.78820833110E+02 0.  0.
         -6    2    1    2    0  502 -0.28409905781E+02 -0.80134701604E+02 -0.16457937513E+02  0.19216245049E+03  0.17154256185E+03 0.  0.
        -24    2    5    5    0    0 -0.12645541183E+02 -0.31416805851E+02 -0.74453528327E+02  0.11465421150E+03  0.80345098999E+02 0.  0.
          5    1    3    3  501    0  0.27409459884E+02  0.99529780123E+02  0.70020077886E+02  0.12482931118E+03  0.47000000000E+01 0. -1.
        -13    1    4    4    0    0 -0.35479686722E+01  0.30674944487E+02  0.22228541026E+01  0.30959350467E+02  0.00000000000E+00 0.  1.
         14    1    4    4    0    0  0.45484145694E+01 -0.50070023006E+02  0.60702414730E+01  0.50641318214E+02  0.00000000000E+00 0. -1.
         -5    1    5    5    0  502 -0.15764364597E+02 -0.48717895754E+02  0.57995590814E+02  0.77508238992E+02  0.47000000000E+01 0.  1.
         13    1    6    6    0    0  0.11089839177E+02  0.24103377134E+02 -0.18606934396E+02  0.32406408777E+02  0.00000000000E+00 0. -1.
        -14    1    6    6    0    0 -0.23735380360E+02 -0.55520182984E+02 -0.55846593931E+02  0.82247802725E+02  0.00000000000E+00 0.  1.
<mgrwt>
<rscale>  2 0.19134178E+03</rscale>
<asrwt>0</asrwt>
<pdfrwt beam="1">  1       21 0.35419051E-01 0.19145638E+03</pdfrwt>
<pdfrwt beam="2">  1       21 0.25902861E-01 0.19145638E+03</pdfrwt>
<totfact> 0.10882607E+05</totfact>
</mgrwt>
</event>
<event>
12    1  0.1050690E-001  0.2172409E+03  0.7546771E-02  0.1136235E+00
         21   -1    0    0  503  502  0.00000000000E+00  0.00000000000E+00  0.94490814991E+03  0.94490814991E+03  0.00000000000E+00 0.  1.
         21   -1    0    0  501  503 -0.00000000000E+00 -0.00000000000E+00 -0.52810541978E+02  0.52810541978E+02  0.00000000000E+00 0.  1.
          6    2    1    2  501    0 -0.63122887212E+02  0.11233738707E+03  0.32182074687E+03  0.38746520033E+03  0.17307946421E+03 0.  0.
         24    2    3    3    0    0 -0.74137136530E+02  0.12186662778E+02  0.11821485626E+03  0.16024519692E+03  0.77839200475E+02 0.  0.
         -6    2    1    2    0  502  0.63122887212E+02 -0.11233738707E+03  0.57027686107E+03  0.61025349156E+03  0.17489836554E+03 0.  0.
        -24    2    5    5    0    0  0.86563015108E+02 -0.13336603272E+03  0.53133787530E+03  0.55995460344E+03  0.77133429305E+02 0.  0.
          5    1    3    3  501    0  0.11014249319E+02  0.10015072429E+03  0.20360589060E+03  0.22722000342E+03  0.47000000000E+01 0. -1.
        -13    1    4    4    0    0 -0.17242313357E+02  0.39613356587E+02  0.62771996355E+02  0.76202617516E+02  0.00000000000E+00 0.  1.
         14    1    4    4    0    0 -0.56894823174E+02 -0.27426693809E+02  0.55442859908E+02  0.84042579399E+02  0.00000000000E+00 0. -1.
         -5    1    5    5    0  502 -0.23440127896E+02  0.21028645649E+02  0.38938985766E+02  0.50298888120E+02  0.47000000000E+01 0.  1.
         13    1    6    6    0    0  0.31708584994E+02 -0.91776743325E+02  0.21051470495E+03  0.23182934667E+03  0.00000000000E+00 0. -1.
        -14    1    6    6    0    0  0.54854430114E+02 -0.41589289390E+02  0.32082317035E+03  0.32812525677E+03  0.00000000000E+00 0.  1.
<mgrwt>
<rscale>  2 0.21687459E+03</rscale>
<asrwt>0</asrwt>
<pdfrwt beam="1">  1       21 0.14537047E+00 0.21724094E+03</pdfrwt>
<pdfrwt beam="2">  1       21 0.81246995E-02 0.21724094E+03</pdfrwt>
<totfact> 0.37368248E+04</totfact>
</mgrwt>
</event>
<event>
12    1  0.1050690E-001  0.2156972E+03  0.7546771E-02  0.1137286E+00
         21   -1    0    0  501  502  0.00000000000E+00  0.00000000000E+00  0.27596462511E+03  0.27596462511E+03  0.00000000000E+00 0.  1.
         21   -1    0    0  502  503 -0.00000000000E+00 -0.00000000000E+00 -0.26885696073E+03  0.26885696073E+03  0.00000000000E+00 0.  1.
         -6    2    1    2    0  503  0.47573006216E+02 -0.11865597946E+03 -0.16332414430E+03  0.26991743279E+03  0.17273740774E+03 0.  0.
        -24    2    3    3    0    0  0.69677396238E+01 -0.90686135515E+02 -0.22400509456E+02  0.12054320241E+03  0.75870654758E+02 0.  0.
          6    2    1    2  501    0 -0.47573006216E+02  0.11865597946E+03  0.17043180867E+03  0.27490415306E+03  0.17373214895E+03 0.  0.
         24    2    5    5    0    0 -0.35244136535E+02  0.83313132641E+02  0.24237310174E+02  0.12392058031E+03  0.81151930281E+02 0.  0.
          5    1    5    5  501    0 -0.12328869681E+02  0.35342846821E+02  0.14619449850E+03  0.15098357275E+03  0.47000000000E+01 0. -1.
        -11    1    6    6    0    0 -0.53801309257E+02  0.38682287182E+02  0.34200603018E+02  0.74569306461E+02  0.00000000000E+00 0.  1.
         12    1    6    6    0    0  0.18557172722E+02  0.44630845459E+02 -0.99632928431E+01  0.49351273844E+02  0.00000000000E+00 0. -1.
         -5    1    3    3    0  503  0.40605266593E+02 -0.27969843947E+02 -0.14092363484E+03  0.14937423038E+03  0.47000000000E+01 0.  1.
         13    1    4    4    0    0 -0.88636664054E+01  0.11362634509E+02 -0.73684077035E+01  0.16185409393E+02  0.00000000000E+00 0. -1.
        -14    1    4    4    0    0  0.15831406029E+02 -0.10204877002E+03 -0.15032101753E+02  0.10435779302E+03  0.00000000000E+00 0.  1.
<mgrwt>
<rscale>  2 0.21549684E+03</rscale>
<asrwt>0</asrwt>
<pdfrwt beam="1">  1       21 0.42456096E-01 0.21569722E+03</pdfrwt>
<pdfrwt beam="2">  1       21 0.41362609E-01 0.21569722E+03</pdfrwt>
<totfact> 0.29670911E+04</totfact>
</mgrwt>
</event>
<event>
12    1  0.1050690E-001  0.1738993E+03  0.7546771E-02  0.1174520E+00
         21   -1    0    0  503  502  0.00000000000E+00  0.00000000000E+00  0.73558533796E+03  0.73558533796E+03  0.00000000000E+00 0. -1.
         21   -1    0    0  501  503 -0.00000000000E+00 -0.00000000000E+00 -0.66373584236E+02  0.66373584236E+02  0.00000000000E+00 0. -1.
          6    2    1    2  501    0  0.22463019429E+02 -0.72225261462E+01  0.82610309902E+02  0.19012379454E+03  0.16960495813E+03 0.  0.
         24    2    3    3    0    0  0.58426458509E+02 -0.51790485803E+02  0.39078166207E+02  0.11803489447E+03  0.79430647512E+02 0.  0.
         -6    2    1    2    0  502 -0.22463019429E+02  0.72225261462E+01  0.58660144382E+03  0.61183512766E+03  0.17229108339E+03 0.  0.
        -24    2    5    5    0    0 -0.57563879555E+02 -0.33561747855E+02  0.49317921014E+03  0.50392205554E+03  0.79194151291E+02 0.  0.
          5    1    3    3  501    0 -0.35963439081E+02  0.44567959657E+02  0.43532143694E+02  0.72088900069E+02  0.47000000000E+01 0. -1.
        -11    1    4    4    0    0 -0.15107768724E+02  0.64172651525E+01  0.12273849083E+02  0.20495690746E+02  0.00000000000E+00 0.  1.
         12    1    4    4    0    0  0.73534227233E+02 -0.58207750955E+02  0.26804317124E+02  0.97539203721E+02  0.00000000000E+00 0. -1.
         -5    1    5    5    0  502  0.35100860127E+02  0.40784274001E+02  0.93422233679E+02  0.10791307211E+03  0.47000000000E+01 0.  1.
         11    1    6    6    0    0  0.15768942145E+02  0.26456445563E+01  0.16228102116E+03  0.16306682311E+03  0.00000000000E+00 0. -1.
        -12    1    6    6    0    0 -0.73332821701E+02 -0.36207392411E+02  0.33089818898E+03  0.34085523243E+03  0.00000000000E+00 0.  1.
<mgrwt>
<rscale>  2 0.17323023E+03</rscale>
<asrwt>0</asrwt>
<pdfrwt beam="1">  1       21 0.11316697E+00 0.17389931E+03</pdfrwt>
<pdfrwt beam="2">  1       21 0.10211321E-01 0.17389931E+03</pdfrwt>
<totfact> 0.48145445E+04</totfact>
</mgrwt>
</event>
<event>
12    1  0.1050690E-001  0.2345614E+03  0.7546771E-02  0.1123700E+00
         21   -1    0    0  503  502  0.00000000000E+00  0.00000000000E+00  0.14045301327E+04  0.14045301327E+04  0.00000000000E+00 0.  1.
         21   -1    0    0  501  503 -0.00000000000E+00 -0.00000000000E+00 -0.57010232953E+02  0.57010232953E+02  0.00000000000E+00 0.  1.
          6    2    1    2  501    0  0.14819190360E+03  0.53483740671E+02  0.26113705449E+03  0.35012382036E+03  0.17196737349E+03 0.  0.
         24    2    3    3    0    0  0.45400325663E+02 -0.19277215423E+02  0.59928380860E+02  0.11270586490E+03  0.81721481548E+02 0.  0.
         -6    2    1    2    0  502 -0.14819190360E+03 -0.53483740671E+02  0.10863828453E+04  0.11114165453E+04  0.17377485400E+03 0.  0.
        -24    2    5    5    0    0 -0.11556286234E+03 -0.49474931771E+02  0.45267699897E+03  0.47684116404E+03  0.81599548387E+02 0.  0.
          5    1    3    3  501    0  0.10279157794E+03  0.72760956094E+02  0.20120867363E+03  0.23741795545E+03  0.47000000000E+01 0. -1.
        -11    1    4    4    0    0  0.62274997701E+02  0.82092916814E+01  0.34724135336E+02  0.71772789993E+02  0.00000000000E+00 0.  1.
         12    1    4    4    0    0 -0.16874672038E+02 -0.27486507105E+02  0.25204245524E+02  0.40933074911E+02  0.00000000000E+00 0. -1.
         -5    1    5    5    0  502 -0.32629041261E+02 -0.40088088999E+01  0.63370584633E+03  0.63457538130E+03  0.47000000000E+01 0.  1.
         11    1    6    6    0    0 -0.40668816288E+02 -0.61739522457E+02  0.22940505740E+03  0.24102365363E+03  0.00000000000E+00 0. -1.
        -12    1    6    6    0    0 -0.74894046055E+02  0.12264590686E+02  0.22327194158E+03  0.23581751041E+03  0.00000000000E+00 0.  1.
<mgrwt>
<rscale>  2 0.23422671E+03</rscale>
<asrwt>0</asrwt>
<pdfrwt beam="1">  1       21 0.21608153E+00 0.23456140E+03</pdfrwt>
<pdfrwt beam="2">  1       21 0.87708061E-02 0.23456140E+03</pdfrwt>
<totfact> 0.10505739E+04</totfact>
</mgrwt>
</event>
<event>
12    1  0.1050690E-001  0.1761033E+03  0.7546771E-02  0.1172233E+00
         21   -1    0    0  501  502  0.00000000000E+00  0.00000000000E+00  0.38749940598E+02  0.38749940598E+02  0.00000000000E+00 0. -1.
         21   -1    0    0  502  503 -0.00000000000E+00 -0.00000000000E+00 -0.79130243907E+03  0.79130243907E+03  0.00000000000E+00 0. -1.
         -6    2    1    2    0  503 -0.94926468031E+01  0.18231452019E+02 -0.35338227992E+03  0.39376205165E+03  0.17247324827E+03 0.  0.
        -24    2    3    3    0    0  0.37297662855E+02 -0.36599307203E+02 -0.13693559892E+03  0.16558010462E+03  0.77037574277E+02 0.  0.
          6    2    1    2  501    0  0.94926468031E+01 -0.18231452019E+02 -0.39917021855E+03  0.43629032802E+03  0.17489965912E+03 0.  0.
         24    2    5    5    0    0 -0.59190830206E+02 -0.31706460737E+02 -0.19811020674E+03  0.22334382248E+03  0.78268480189E+02 0.  0.
          5    1    5    5  501    0  0.68683477009E+02  0.13475008718E+02 -0.20106001181E+03  0.21294650554E+03  0.47000000000E+01 0. -1.
        -11    1    6    6    0    0 -0.40072183775E+02 -0.57985707808E+02 -0.13004066474E+03  0.14791449121E+03  0.00000000000E+00 0.  1.
         12    1    6    6    0    0 -0.19118646430E+02  0.26279247071E+02 -0.68069541998E+02  0.75429331269E+02  0.00000000000E+00 0. -1.
         -5    1    3    3    0  503 -0.46790309658E+02  0.54830759222E+02 -0.21644668100E+03  0.22818194703E+03  0.47000000000E+01 0.  1.
         13    1    4    4    0    0  0.28300787766E+01 -0.33845113649E+02 -0.12415442406E+03  0.12871605214E+03  0.00000000000E+00 0. -1.
        -14    1    4    4    0    0  0.34467584078E+02 -0.27541935547E+01 -0.12781174860E+02  0.36864052478E+02  0.00000000000E+00 0.  1.
<mgrwt>
<rscale>  2 0.17549783E+03</rscale>
<asrwt>0</asrwt>
<pdfrwt beam="1">  1       21 0.59615293E-02 0.17610334E+03</pdfrwt>
<pdfrwt beam="2">  1       21 0.12173884E+00 0.17610334E+03</pdfrwt>
<totfact> 0.10232066E+05</totfact>
</mgrwt>
</event>
<event>
12    1  0.1050690E-001  0.2024814E+03  0.7546771E-02  0.1147756E+00
         21   -1    0    0  501  502  0.00000000000E+00  0.00000000000E+00  0.70786473795E+03  0.70786473795E+03  0.00000000000E+00 0. -1.
         21   -1    0    0  502  503 -0.00000000000E+00 -0.00000000000E+00 -0.12145188483E+03  0.12145188483E+03  0.00000000000E+00 0. -1.
         -6    2    1    2    0  503  0.10394712154E+03 -0.15423720116E+02 -0.71601541729E+01  0.20215825385E+03  0.17255085213E+03 0.  0.
        -24    2    3    3    0    0  0.26824938591E+02 -0.42751885191E+02 -0.55890043596E+02  0.10680967319E+03  0.75745021594E+02 0.  0.
          6    2    1    2  501    0 -0.10394712154E+03  0.15423720116E+02  0.59357300729E+03  0.62715836893E+03  0.17307746680E+03 0.  0.
         24    2    5    5    0    0 -0.10627059419E+03  0.57117887213E+02  0.53978528883E+03  0.55890142238E+03  0.80291653817E+02 0.  0.
          5    1    5    5  501    0  0.23234726430E+01 -0.41694167097E+02  0.53787718460E+02  0.68256946549E+02  0.47000000000E+01 0. -1.
        -11    1    6    6    0    0 -0.21783808504E+02  0.39798772985E+02  0.88532189318E+02  0.99480777990E+02  0.00000000000E+00 0.  1.
         12    1    6    6    0    0 -0.84486785683E+02  0.17319114228E+02  0.45125309951E+03  0.45942064439E+03  0.00000000000E+00 0. -1.
         -5    1    3    3    0  503  0.77122182953E+02  0.27328165075E+02  0.48729889423E+02  0.95348580656E+02  0.47000000000E+01 0.  1.
         13    1    4    4    0    0  0.48341339579E+02 -0.10623814833E+02 -0.44347143032E+02  0.66456148316E+02  0.00000000000E+00 0. -1.
        -14    1    4    4    0    0 -0.21516400988E+02 -0.32128070358E+02 -0.11542900564E+02  0.40353524875E+02  0.00000000000E+00 0.  1.
<mgrwt>
<rscale>  2 0.20236879E+03</rscale>
<asrwt>0</asrwt>
<pdfrwt beam="1">  1       21 0.10890226E+00 0.20248137E+03</pdfrwt>
<pdfrwt beam="2">  1       21 0.18684906E-01 0.20248137E+03</pdfrwt>
<totfact> 0.17420282E+04</totfact>
</mgrwt>
</event>
<event>
12    1  0.1050690E-001  0.2646165E+03  0.7546771E-02  0.1105524E+00
         21   -1    0    0  501  502  0.00000000000E+00  0.00000000000E+00  0.13200811536E+04  0.13200811536E+04  0.00000000000E+00 0.  1.
         21   -1    0    0  502  503 -0.00000000000E+00 -0.00000000000E+00 -0.69319585431E+02  0.69319585431E+02  0.00000000000E+00 0.  1.
         -6    2    1    2    0  503 -0.18942914513E+03  0.11812851364E+02  0.28033899582E+03  0.38550207609E+03  0.18438805171E+03 0.  0.
        -24    2    3    3    0    0 -0.20725962518E+03 -0.16524534886E+02  0.26978240609E+03  0.35008364776E+03  0.80909834437E+02 0.  0.
          6    2    1    2  501    0  0.18942914513E+03 -0.11812851364E+02  0.97042257235E+03  0.10038986629E+04  0.17340591699E+03 0.  0.
         24    2    5    5    0    0  0.14834312917E+03 -0.67340476873E+02  0.79995453886E+03  0.81990730895E+03  0.76028331755E+02 0.  0.
          5    1    5    5  501    0  0.41086015953E+02  0.55527625509E+02  0.17046803350E+03  0.18399135400E+03  0.47000000000E+01 0. -1.
        -13    1    6    6    0    0  0.85458627257E+02 -0.44748978682E+01  0.29410291575E+03  0.30630005997E+03  0.00000000000E+00 0.  1.
         14    1    6    6    0    0  0.62884501917E+02 -0.62865579005E+02  0.50585162310E+03  0.51360724898E+03  0.00000000000E+00 0. -1.
         -5    1    3    3    0  503  0.17830480057E+02  0.28337386251E+02  0.10556589726E+02  0.35418428328E+02  0.47000000000E+01 0.  1.
         13    1    4    4    0    0 -0.71431567251E+02 -0.24252231443E+01  0.37699748346E+02  0.80806073612E+02  0.00000000000E+00 0. -1.
        -14    1    4    4    0    0 -0.13582805793E+03 -0.14099311742E+02  0.23208265775E+03  0.26927757415E+03  0.00000000000E+00 0.  1.
<mgrwt>
<rscale>  2 0.26271313E+03</rscale>
<asrwt>0</asrwt>
<pdfrwt beam="1">  1       21 0.20308939E+00 0.26461651E+03</pdfrwt>
<pdfrwt beam="2">  1       21 0.10664553E-01 0.26461651E+03</pdfrwt>
<totfact> 0.88012490E+03</totfact>
</mgrwt>
</event>
<event>
12    1  0.1050690E-001  0.1760021E+03  0.7546771E-02  0.1172180E+00
         21   -1    0    0  503  502  0.00000000000E+00  0.00000000000E+00  0.12364588533E+04  0.12364588533E+04  0.00000000000E+00 0. -1.
         21   -1    0    0  501  503 -0.00000000000E+00 -0.00000000000E+00 -0.24897750747E+02  0.24897750747E+02  0.00000000000E+00 0. -1.
          6    2    1    2  501    0  0.28194139474E+02 -0.93879294092E+01  0.56883952872E+03  0.59544533374E+03  0.17347533925E+03 0.  0.
         24    2    3    3    0    0  0.74454850717E+02 -0.71309022963E+01  0.25170912028E+03  0.27491618759E+03  0.81406722118E+02 0.  0.
         -6    2    1    2    0  502 -0.28194139474E+02  0.93879294092E+01  0.64272157383E+03  0.66591127030E+03  0.17165009677E+03 0.  0.
        -24    2    5    5    0    0 -0.39200079222E+02 -0.16310078463E+02  0.17616997698E+03  0.19849924559E+03  0.81014966763E+02 0.  0.
          5    1    3    3  501    0 -0.46260711243E+02 -0.22570271130E+01  0.31713040844E+03  0.32052914615E+03  0.47000000000E+01 0. -1.
        -11    1    4    4    0    0  0.60710224614E+02  0.65136054971E+01  0.73037037585E+02  0.95197517239E+02  0.00000000000E+00 0.  1.
         12    1    4    4    0    0  0.13744626103E+02 -0.13644507793E+02  0.17867208269E+03  0.17971867035E+03  0.00000000000E+00 0. -1.
         -5    1    5    5    0  502  0.11005939748E+02  0.25698007872E+02  0.46655159685E+03  0.46741202471E+03  0.47000000000E+01 0.  1.
         11    1    6    6    0    0 -0.16035173095E+01 -0.38108285062E+02  0.38755929948E+02  0.54376785159E+02  0.00000000000E+00 0. -1.
        -12    1    6    6    0    0 -0.37596561912E+02  0.21798206599E+02  0.13741404703E+03  0.14412246043E+03  0.00000000000E+00 0.  1.
<mgrwt>
<rscale>  2 0.17555067E+03</rscale>
<asrwt>0</asrwt>
<pdfrwt beam="1">  1       21 0.19022439E+00 0.17600209E+03</pdfrwt>
<pdfrwt beam="2">  1       21 0.38304241E-02 0.17600209E+03</pdfrwt>
<totfact> 0.66160406E+04</totfact>
</mgrwt>
</event>
<event>
12    1  0.1050690E-001  0.1852112E+03  0.7546771E-02  0.1162962E+00
         21   -1    0    0  501  502  0.00000000000E+00  0.00000000000E+00  0.88558721084E+03  0.88558721084E+03  0.00000000000E+00 0.  1.
         21   -1    0    0  502  503 -0.00000000000E+00 -0.00000000000E+00 -0.42426223793E+02  0.42426223793E+02  0.00000000000E+00 0.  1.
         -6    2    1    2    0  503  0.15587893687E+02 -0.60655155603E+02  0.28243395360E+03  0.33748993129E+03  0.17380588382E+03 0.  0.
        -24    2    3    3    0    0 -0.16471129631E+01  0.15545242112E+02  0.22751622435E+03  0.24187825286E+03  0.80604524273E+02 0.  0.
          6    2    1    2  501    0 -0.15587893687E+02  0.60655155603E+02  0.56072703345E+03  0.59052350334E+03  0.17430195531E+03 0.  0.
         24    2    5    5    0    0  0.38742809875E+02  0.71808050660E+02  0.19424349976E+03  0.21983700118E+03  0.62772354046E+02 0.  0.
          5    1    5    5  501    0 -0.54330703563E+02 -0.11152895057E+02  0.36648353369E+03  0.37068650216E+03  0.47000000000E+01 0. -1.
        -13    1    6    6    0    0  0.94317566864E+01  0.30487917089E+02  0.14747763394E+03  0.15089109860E+03  0.00000000000E+00 0.  1.
         14    1    6    6    0    0  0.29311053189E+02  0.41320133571E+02  0.46765865818E+02  0.68945902584E+02  0.00000000000E+00 0. -1.
         -5    1    3    3    0  503  0.17235006650E+02 -0.76200397715E+02  0.54917729249E+02  0.95611678429E+02  0.47000000000E+01 0.  1.
         11    1    4    4    0    0  0.31674261938E+02 -0.11551237244E+02  0.14484148299E+03  0.14871363470E+03  0.00000000000E+00 0. -1.
        -12    1    4    4    0    0 -0.33321374901E+02  0.27096479356E+02  0.82674741356E+02  0.93164618161E+02  0.00000000000E+00 0.  1.
<mgrwt>
<rscale>  2 0.18509443E+03</rscale>
<asrwt>0</asrwt>
<pdfrwt beam="1">  1       21 0.13624417E+00 0.18521124E+03</pdfrwt>
<pdfrwt beam="2">  1       21 0.65271120E-02 0.18521124E+03</pdfrwt>
<totfact> 0.65734509E+04</totfact>
</mgrwt>
</event>
<event>
12    1  0.1050690E-001  0.1735549E+03  0.7546771E-02  0.1174355E+00
         21   -1    0    0  501  502  0.00000000000E+00  0.00000000000E+00  0.18837234524E+03  0.18837234524E+03  0.00000000000E+00 0. -1.
         21   -1    0    0  502  503 -0.00000000000E+00 -0.00000000000E+00 -0.17111022307E+03  0.17111022307E+03  0.00000000000E+00 0. -1.
         -6    2    1    2    0  503 -0.53950894781E+01  0.88294999324E+01 -0.38557262936E+02  0.17778625403E+03  0.17324613282E+03 0.  0.
        -24    2    3    3    0    0  0.41934256809E+02 -0.28983018287E+02 -0.59483811452E+02  0.11352223621E+03  0.82161286779E+02 0.  0.
          6    2    1    2  501    0  0.53950894781E+01 -0.88294999324E+01  0.55819385105E+02  0.18169631427E+03  0.17259976769E+03 0.  0.
         24    2    5    5    0    0 -0.73103425615E+01  0.58949876233E+02  0.95584488330E+01  0.98523986776E+02  0.78019760380E+02 0.  0.
          5    1    5    5  501    0  0.12705432040E+02 -0.67779376166E+02  0.46260936272E+02  0.83172327498E+02  0.47000000000E+01 0. -1.
        -13    1    6    6    0    0 -0.69241908253E+01 -0.13748054707E+02 -0.15289247443E+02  0.21695956172E+02  0.00000000000E+00 0.  1.
         14    1    6    6    0    0 -0.38615173620E+00  0.72697930941E+02  0.24847696276E+02  0.76828030604E+02  0.00000000000E+00 0. -1.
         -5    1    3    3    0  503 -0.47329346287E+02  0.37812518220E+02  0.20926548516E+02  0.64264017824E+02  0.47000000000E+01 0.  1.
         13    1    4    4    0    0  0.22619632328E+02 -0.32508579812E+02 -0.77399300764E+02  0.86943126737E+02  0.00000000000E+00 0. -1.
        -14    1    4    4    0    0  0.19314624480E+02  0.35255615249E+01  0.17915489312E+02  0.26579109469E+02  0.00000000000E+00 0.  1.
<mgrwt>
<rscale>  2 0.17339333E+03</rscale>
<asrwt>0</asrwt>
<pdfrwt beam="1">  1       21 0.28980361E-01 0.17355486E+03</pdfrwt>
<pdfrwt beam="2">  1       21 0.26324650E-01 0.17355486E+03</pdfrwt>
<totfact> 0.15734312E+05</totfact>
</mgrwt>
</event>
<event>
12    1  0.1050690E-001  0.2270694E+03  0.7546771E-02  0.1128909E+00
         21   -1    0    0  503  502  0.00000000000E+00  0.00000000000E+00  0.83937196155E+02  0.83937196155E+02  0.00000000000E+00 0. -1.
         21   -1    0    0  501  503 -0.00000000000E+00 -0.00000000000E+00 -0.11906969733E+04  0.11906969733E+04  0.00000000000E+00 0. -1.
          6    2    1    2  501    0 -0.52379885303E+02 -0.13577273359E+03 -0.99856942331E+03  0.10240612368E+04  0.17430615577E+03 0.  0.
         24    2    3    3    0    0  0.97245106904E+01 -0.12150065775E+03 -0.48667545051E+03  0.50819480296E+03  0.80944349331E+02 0.  0.
         -6    2    1    2    0  502  0.52379885303E+02  0.13577273359E+03 -0.10819035384E+03  0.25057293268E+03  0.17292702031E+03 0.  0.
        -24    2    5    5    0    0  0.34777334874E+01 -0.16106251877E+01 -0.33985507848E+02  0.86884029904E+02  0.79869463282E+02 0.  0.
          5    1    3    3  501    0 -0.62104395993E+02 -0.14272075840E+02 -0.51189397280E+03  0.51586643382E+03  0.47000000000E+01 0. -1.
        -13    1    4    4    0    0 -0.29228737679E+02 -0.48764483006E+02 -0.12648856856E+03  0.13867823148E+03  0.00000000000E+00 0.  1.
         14    1    4    4    0    0  0.38953248370E+02 -0.72736174748E+02 -0.36018688195E+03  0.36951657149E+03  0.00000000000E+00 0. -1.
         -5    1    5    5    0  502  0.48902151816E+02  0.13738335878E+03 -0.74204845991E+02  0.16368890277E+03  0.47000000000E+01 0.  1.
         11    1    6    6    0    0 -0.12078370428E+02  0.32431358052E+02  0.23924538983E+01  0.34690111746E+02  0.00000000000E+00 0. -1.
        -12    1    6    6    0    0  0.15556103916E+02 -0.34041983240E+02 -0.36377961746E+02  0.52193918158E+02  0.00000000000E+00 0.  1.
<mgrwt>
<rscale>  2 0.22680473E+03</rscale>
<asrwt>0</asrwt>
<pdfrwt beam="1">  1       21 0.12913414E-01 0.22706942E+03</pdfrwt>
<pdfrwt beam="2">  1       21 0.18318415E+00 0.22706942E+03</pdfrwt>
<totfact> 0.86704363E+03</totfact>
</mgrwt>
</event>
<event>
12    1  0.1050690E-001  0.1760714E+03  0.7546771E-02  0.1171869E+00
         21   -1    0    0  503  502  0.00000000000E+00  0.00000000000E+00  0.85021195133E+02  0.85021195133E+02  0.00000000000E+00 0. -1.
         21   -1    0    0  501  503 -0.00000000000E+00 -0.00000000000E+00 -0.39968978405E+03  0.39968978405E+03  0.00000000000E+00 0. -1.
          6    2    1    2  501    0 -0.26713392075E+02 -0.44476208506E+00 -0.23120709777E+03  0.29061632020E+03  0.17403252678E+03 0.  0.
         24    2    3    3    0    0  0.35973911947E+02  0.30750940934E+02 -0.88638704766E+02  0.13171161084E+03  0.85155068777E+02 0.  0.
         -6    2    1    2    0  502  0.26713392075E+02  0.44476208506E+00 -0.83461491151E+02  0.19409465899E+03  0.17318519860E+03 0.  0.
        -24    2    5    5    0    0  0.99660582792E+01 -0.40954628184E+02  0.99151112433E+01  0.90481616476E+02  0.79448156692E+02 0.  0.
          5    1    3    3  501    0 -0.62687304022E+02 -0.31195703019E+02 -0.14256839300E+03  0.15890470936E+03  0.47000000000E+01 0. -1.
        -11    1    4    4    0    0 -0.16913070296E+02  0.29714716740E+02 -0.65681072267E+02  0.74047414485E+02  0.00000000000E+00 0.  1.
         12    1    4    4    0    0  0.52886982242E+02  0.10362241940E+01 -0.22957632498E+02  0.57664196355E+02  0.00000000000E+00 0. -1.
         -5    1    5    5    0  502  0.16747333796E+02  0.41399390269E+02 -0.93376602395E+02  0.10361304251E+03  0.47000000000E+01 0.  1.
         11    1    6    6    0    0 -0.26175968928E+02  0.47260883440E+00 -0.14944512400E+02  0.30145367128E+02  0.00000000000E+00 0. -1.
        -12    1    6    6    0    0  0.36142027207E+02 -0.41427237019E+02  0.24859623643E+02  0.60336249348E+02  0.00000000000E+00 0.  1.
<mgrwt>
<rscale>  2 0.17586162E+03</rscale>
<asrwt>0</asrwt>
<pdfrwt beam="1">  1       21 0.13080184E-01 0.17607136E+03</pdfrwt>
<pdfrwt beam="2">  1       21 0.61490738E-01 0.17607136E+03</pdfrwt>
<totfact> 0.12429763E+05</totfact>
</mgrwt>
</event>
<event>
12    1  0.1050690E-001  0.1805023E+03  0.7546771E-02  0.1167320E+00
         21   -1    0    0  501  502  0.00000000000E+00  0.00000000000E+00  0.28409955644E+03  0.28409955644E+03  0.00000000000E+00 0.  1.
         21   -1    0    0  502  503 -0.00000000000E+00 -0.00000000000E+00 -0.16402717126E+03  0.16402717126E+03  0.00000000000E+00 0. -1.
         -6    2    1    2    0  503 -0.53274666647E+02  0.15134725524E+01 -0.62866393767E+02  0.19112929874E+03  0.17244635301E+03 0.  0.
        -24    2    3    3    0    0 -0.54122843172E+02  0.64068383962E+02 -0.49235001777E+02  0.12692851064E+03  0.81564216651E+02 0.  0.
          6    2    1    2  501    0  0.53274666647E+02 -0.15134725524E+01  0.18293877894E+03  0.25699742896E+03  0.17245463445E+03 0.  0.
         24    2    5    5    0    0  0.93495338649E+02 -0.25461800136E+02  0.16193299269E+03  0.20547502697E+03  0.81289673222E+02 0.  0.
          5    1    5    5  501    0 -0.40220672001E+02  0.23948327584E+02  0.21005786254E+02  0.51522401986E+02  0.47000000000E+01 0. -1.
        -11    1    6    6    0    0  0.18662584963E+02 -0.44492629271E+02  0.49903643165E+02  0.69413685524E+02  0.00000000000E+00 0.  1.
         12    1    6    6    0    0  0.74832753685E+02  0.19030829134E+02  0.11202934953E+03  0.13606134145E+03  0.00000000000E+00 0. -1.
         -5    1    3    3    0  503  0.84817652489E+00 -0.62554911409E+02 -0.13631391991E+02  0.64200788098E+02  0.47000000000E+01 0.  1.
         13    1    4    4    0    0  0.12883527164E+02  0.28733171137E+02 -0.39557199327E+02  0.50560383843E+02  0.00000000000E+00 0. -1.
        -14    1    4    4    0    0 -0.67006370336E+02  0.35335212825E+02 -0.96778024503E+01  0.76368126802E+02  0.00000000000E+00 0.  1.
<mgrwt>
<rscale>  2 0.18050033E+03</rscale>
<asrwt>0</asrwt>
<pdfrwt beam="1">  1       21 0.43707624E-01 0.18050230E+03</pdfrwt>
<pdfrwt beam="2">  1       21 0.25234949E-01 0.18050230E+03</pdfrwt>
<totfact> 0.75221067E+04</totfact>
</mgrwt>
</event>
<event>
12    1  0.1050690E-001  0.1763481E+03  0.7546771E-02  0.1172219E+00
         21   -1    0    0  503  502  0.00000000000E+00  0.00000000000E+00  0.49411359880E+03  0.49411359880E+03  0.00000000000E+00 0.  1.
         21   -1    0    0  501  503 -0.00000000000E+00 -0.00000000000E+00 -0.97745895327E+02  0.97745895327E+02  0.00000000000E+00 0.  1.
          6    2    1    2  501    0 -0.32547648421E+01  0.23461513952E+02  0.17433205646E+02  0.17390016948E+03  0.17139520459E+03 0.  0.
         24    2    3    3    0    0 -0.26469724825E+02  0.41495592840E+02 -0.45219309207E+02  0.10453454409E+03  0.80375085856E+02 0.  0.
         -6    2    1    2    0  502  0.32547648421E+01 -0.23461513952E+02  0.37893449783E+03  0.41795932465E+03  0.17475012813E+03 0.  0.
        -24    2    5    5    0    0  0.42153856236E+02 -0.69854287690E+02  0.21654647386E+03  0.24458865499E+03  0.79212787520E+02 0.  0.
          5    1    3    3  501    0  0.23214959983E+02 -0.18034078889E+02  0.62652514853E+02  0.69365625390E+02  0.47000000000E+01 0. -1.
        -13    1    4    4    0    0 -0.48173713238E+02  0.13902158977E+02 -0.47878336262E+02  0.69327568503E+02  0.00000000000E+00 0.  1.
         14    1    4    4    0    0  0.21703988413E+02  0.27593433864E+02  0.26590270550E+01  0.35206975592E+02  0.00000000000E+00 0. -1.
         -5    1    5    5    0  502 -0.38899091394E+02  0.46392773738E+02  0.16238802397E+03  0.17337066966E+03  0.47000000000E+01 0.  1.
         11    1    6    6    0    0 -0.96559954005E+01 -0.28267599639E+02  0.17213781699E+02  0.34476219586E+02  0.00000000000E+00 0. -1.
        -12    1    6    6    0    0  0.51809851636E+02 -0.41586688051E+02  0.19933269216E+03  0.21011243541E+03  0.00000000000E+00 0.  1.
<mgrwt>
<rscale>  2 0.17551115E+03</rscale>
<asrwt>0</asrwt>
<pdfrwt beam="1">  1       21 0.76017475E-01 0.17634807E+03</pdfrwt>
<pdfrwt beam="2">  1       21 0.15037830E-01 0.17634807E+03</pdfrwt>
<totfact> 0.60695423E+04</totfact>
</mgrwt>
</event>
<event>
12    1  0.1050690E-001  0.2799559E+03  0.7546771E-02  0.1096321E+00
         21   -1    0    0  503  502  0.00000000000E+00  0.00000000000E+00  0.52232504091E+03  0.52232504091E+03  0.00000000000E+00 0.  1.
         21   -1    0    0  501  503 -0.00000000000E+00 -0.00000000000E+00 -0.14782062342E+03  0.14782062342E+03  0.00000000000E+00 0.  1.
          6    2    1    2  501    0  0.40821021449E+02 -0.21091910578E+03  0.17897002793E+03  0.33227334279E+03  0.17950509312E+03 0.  0.
         24    2    3    3    0    0  0.84131722665E+02 -0.93505627342E+02  0.63858767756E+02  0.16217209653E+03  0.80002484782E+02 0.  0.
         -6    2    1    2    0  502 -0.40821021449E+02  0.21091910578E+03  0.19553438956E+03  0.33787232154E+03  0.17254212005E+03 0.  0.
        -24    2    5    5    0    0 -0.37048177271E+01  0.54520689075E+02  0.36388692221E+02  0.11162572973E+03  0.90276992663E+02 0.  0.
          5    1    3    3  501    0 -0.43310701216E+02 -0.11741347844E+03  0.11511126017E+03  0.17010124625E+03  0.47000000000E+01 0. -1.
        -13    1    4    4    0    0  0.36900911635E+02 -0.87629744802E+02  0.63931754862E+02  0.11457713006E+03  0.00000000000E+00 0.  1.
         14    1    4    4    0    0  0.47230811030E+02 -0.58758825395E+01 -0.72987106255E-01  0.47594966470E+02  0.00000000000E+00 0. -1.
         -5    1    5    5    0  502 -0.37116203722E+02  0.15639841670E+03  0.15914569734E+03  0.22624659181E+03  0.47000000000E+01 0.  1.
         11    1    6    6    0    0 -0.19781280111E+02 -0.17329036278E+02  0.26507064311E+02  0.37339242086E+02  0.00000000000E+00 0. -1.
        -12    1    6    6    0    0  0.16076462384E+02  0.71849725353E+02  0.98816279091E+01  0.74286487642E+02  0.00000000000E+00 0.  1.
<mgrwt>
<rscale>  2 0.27884612E+03</rscale>
<asrwt>0</asrwt>
<pdfrwt beam="1">  1       21 0.80357698E-01 0.27995590E+03</pdfrwt>
<pdfrwt beam="2">  1       21 0.22741634E-01 0.27995590E+03</pdfrwt>
<totfact> 0.23626050E+04</totfact>
</mgrwt>
</event>
<event>
12    1  0.1050690E-001  0.1763556E+03  0.7546771E-02  0.1171562E+00
         21   -1    0    0  503  502  0.00000000000E+00  0.00000000000E+00  0.27923757160E+03  0.27923757160E+03  0.00000000000E+00 0.  1.
         21   -1    0    0  501  503 -0.00000000000E+00 -0.00000000000E+00 -0.15451235184E+03  0.15451235184E+03  0.00000000000E+00 0.  1.
          6    2    1    2  501    0  0.19324478783E+02 -0.30186307286E+02 -0.52938141658E+02  0.18341901943E+03  0.17191696024E+03 0.  0.
         24    2    3    3    0    0 -0.48569671510E+02 -0.20654916396E+02 -0.61335311436E+02  0.11418705054E+03  0.80566888487E+02 0.  0.
         -6    2    1    2    0  502 -0.19324478783E+02  0.30186307286E+02  0.17766336142E+03  0.25033090401E+03  0.17267496311E+03 0.  0.
        -24    2    5    5    0    0  0.32562031085E+02  0.67969542693E+02  0.13001357014E+03  0.17025359516E+03  0.80016333600E+02 0.  0.
          5    1    3    3  501    0  0.67894150293E+02 -0.95313908907E+01  0.83971697781E+01  0.69231968891E+02  0.47000000000E+01 0. -1.
        -13    1    4    4    0    0 -0.48207085811E+02  0.46637884778E+01 -0.65621404187E+00  0.48436604570E+02  0.00000000000E+00 0.  1.
         14    1    4    4    0    0 -0.36258569834E+00 -0.25318704873E+02 -0.60679097394E+02  0.65750445972E+02  0.00000000000E+00 0. -1.
         -5    1    5    5    0  502 -0.51886509869E+02 -0.37783235407E+02  0.47649791274E+02  0.80077308850E+02  0.47000000000E+01 0.  1.
         13    1    6    6    0    0  0.26761154513E+02  0.45141722423E+02  0.17526845143E+02  0.55327432570E+02  0.00000000000E+00 0. -1.
        -14    1    6    6    0    0  0.58008765726E+01  0.22827820270E+02  0.11248672500E+03  0.11492616259E+03  0.00000000000E+00 0.  1.
<mgrwt>
<rscale>  2 0.17616976E+03</rscale>
<asrwt>0</asrwt>
<pdfrwt beam="1">  1       21 0.42959626E-01 0.17635558E+03</pdfrwt>
<pdfrwt beam="2">  1       21 0.23771131E-01 0.17635558E+03</pdfrwt>
<totfact> 0.87442480E+04</totfact>
</mgrwt>
</event>
<event>
12    1  0.1050690E-001  0.1760949E+03  0.7546771E-02  0.1171742E+00
         21   -1    0    0  501  502  0.00000000000E+00  0.00000000000E+00  0.50562819461E+03  0.50562819461E+03  0.00000000000E+00 0.  1.
         21   -1    0    0  502  503 -0.00000000000E+00 -0.00000000000E+00 -0.71778698381E+02  0.71778698381E+02  0.00000000000E+00 0.  1.
         -6    2    1    2    0  503  0.30065343850E+01 -0.31839011597E+02  0.10577331498E+03  0.20505839249E+03  0.17273733893E+03 0.  0.
        -24    2    3    3    0    0 -0.71460135124E+01  0.48921228697E+02  0.61352518304E+02  0.11221127181E+03  0.79892965230E+02 0.  0.
          6    2    1    2  501    0 -0.30065343850E+01  0.31839011597E+02  0.32807618125E+03  0.37234850050E+03  0.17316657649E+03 0.  0.
         24    2    5    5    0    0 -0.40000662154E+02  0.19014663836E+02  0.86849496033E+02  0.12791971119E+03  0.82819123005E+02 0.  0.
          5    1    5    5  501    0  0.36994127769E+02  0.12824347761E+02  0.24122668522E+03  0.24442878932E+03  0.47000000000E+01 0. -1.
        -11    1    6    6    0    0 -0.62590424655E+02  0.24125194258E+02  0.78603634399E+02  0.10333497761E+03  0.00000000000E+00 0.  1.
         12    1    6    6    0    0  0.22589762501E+02 -0.51105304226E+01  0.82458616332E+01  0.24584733578E+02  0.00000000000E+00 0. -1.
         -5    1    3    3    0  503  0.10152547897E+02 -0.80760240293E+02  0.44420796679E+02  0.92847120680E+02  0.47000000000E+01 0.  1.
         13    1    4    4    0    0 -0.21663676983E+02 -0.11413173682E+02  0.39395011375E+02  0.46384721139E+02  0.00000000000E+00 0. -1.
        -14    1    4    4    0    0  0.14517663471E+02  0.60334402379E+02  0.21957506929E+02  0.65826550674E+02  0.00000000000E+00 0.  1.
<mgrwt>
<rscale>  2 0.17598932E+03</rscale>
<asrwt>0</asrwt>
<pdfrwt beam="1">  1       21 0.77788951E-01 0.17609493E+03</pdfrwt>
<pdfrwt beam="2">  1       21 0.11042877E-01 0.17609493E+03</pdfrwt>
<totfact> 0.10036683E+05</totfact>
</mgrwt>
</event>
<event>
12    1  0.1050690E-001  0.2335508E+03  0.7546771E-02  0.1124536E+00
         21   -1    0    0  503  502  0.00000000000E+00  0.00000000000E+00  0.76985335589E+03  0.76985335589E+03  0.00000000000E+00 0. -1.
         21   -1    0    0  501  503 -0.00000000000E+00 -0.00000000000E+00 -0.21076457331E+03  0.21076457331E+03  0.00000000000E+00 0. -1.
          6    2    1    2  501    0  0.73447920729E+01 -0.15495163773E+03 -0.12128797228E+03  0.26127204993E+03  0.17172173959E+03 0.  0.
         24    2    3    3    0    0  0.50777188993E+01 -0.72634810116E+02  0.81014999006E+01  0.10782849274E+03  0.79118586168E+02 0.  0.
         -6    2    1    2    0  502 -0.73447920729E+01  0.15495163773E+03  0.68037675486E+03  0.71934587928E+03  0.17459097763E+03 0.  0.
        -24    2    5    5    0    0  0.49365916374E+02  0.85029462198E+02  0.26856063806E+03  0.29777759402E+03  0.82943812545E+02 0.  0.
          5    1    3    3  501    0  0.22670731736E+01 -0.82316827615E+02 -0.12938947218E+03  0.15344355718E+03  0.47000000000E+01 0. -1.
        -13    1    4    4    0    0  0.17232373165E+02 -0.35885532509E+02  0.40914078234E+02  0.57084918552E+02  0.00000000000E+00 0.  1.
         14    1    4    4    0    0 -0.12154654266E+02 -0.36749277606E+02 -0.32812578334E+02  0.50743574192E+02  0.00000000000E+00 0. -1.
         -5    1    5    5    0  502 -0.56710708447E+02  0.69922175533E+02  0.41181611680E+03  0.42156828526E+03  0.47000000000E+01 0.  1.
         13    1    6    6    0    0 -0.12005320373E+02  0.58319979338E+02  0.15381967359E+03  0.16494192824E+03  0.00000000000E+00 0. -1.
        -14    1    6    6    0    0  0.61371236747E+02  0.26709482860E+02  0.11474096447E+03  0.13283566578E+03  0.00000000000E+00 0.  1.
<mgrwt>
<rscale>  2 0.23301467E+03</rscale>
<asrwt>0</asrwt>
<pdfrwt beam="1">  1       21 0.11843898E+00 0.23355078E+03</pdfrwt>
<pdfrwt beam="2">  1       21 0.32425319E-01 0.23355078E+03</pdfrwt>
<totfact> 0.48397286E+03</totfact>
</mgrwt>
</event>
<event>
12    1  0.1050690E-001  0.2138132E+03  0.7546771E-02  0.1138831E+00
         21   -1    0    0  503  502  0.00000000000E+00  0.00000000000E+00  0.87700210887E+03  0.87700210887E+03  0.00000000000E+00 0. -1.
         21   -1    0    0  501  503 -0.00000000000E+00 -0.00000000000E+00 -0.52967005287E+02  0.52967005287E+02  0.00000000000E+00 0.  1.
          6    2    1    2  501    0  0.97020961002E+02  0.78466606527E+02  0.47938809004E+03  0.52438603259E+03  0.17203980671E+03 0.  0.
         24    2    3    3    0    0  0.13204344843E+01  0.83442205921E+02  0.28236881610E+03  0.30524673518E+03  0.80492706242E+02 0.  0.
         -6    2    1    2    0  502 -0.97020961002E+02 -0.78466606527E+02  0.34464701355E+03  0.40558308157E+03  0.17362602597E+03 0.  0.
        -24    2    5    5    0    0 -0.11343619485E+03 -0.11085377974E+03  0.31469178774E+03  0.35827774948E+03  0.64619607793E+02 0.  0.
          5    1    3    3  501    0  0.95700526518E+02 -0.49755993932E+01  0.19701927394E+03  0.21913929741E+03  0.47000000000E+01 0. -1.
        -13    1    4    4    0    0 -0.11818533217E+02  0.42424511152E+02  0.41350069117E+02  0.60409809550E+02  0.00000000000E+00 0.  1.
         14    1    4    4    0    0  0.13138967702E+02  0.41017694769E+02  0.24101874698E+03  0.24483692563E+03  0.00000000000E+00 0. -1.
         -5    1    5    5    0  502  0.16415233853E+02  0.32387173217E+02  0.29955225811E+02  0.47305332097E+02  0.47000000000E+01 0.  1.
         11    1    6    6    0    0 -0.14032409077E+02  0.53752100115E+01  0.53836385524E+02  0.55894166005E+02  0.00000000000E+00 0. -1.
        -12    1    6    6    0    0 -0.99403785778E+02 -0.11622898976E+03  0.26085540222E+03  0.30238358347E+03  0.00000000000E+00 0.  1.
<mgrwt>
<rscale>  2 0.21349093E+03</rscale>
<asrwt>0</asrwt>
<pdfrwt beam="1">  1       21 0.13492339E+00 0.21381317E+03</pdfrwt>
<pdfrwt beam="2">  1       21 0.81487707E-02 0.21381317E+03</pdfrwt>
<totfact> 0.45189299E+04</totfact>
</mgrwt>
</event>
<event>
12    1  0.1050690E-001  0.2063636E+03  0.7546771E-02  0.1144481E+00
         21   -1    0    0  503  502  0.00000000000E+00  0.00000000000E+00  0.12919984087E+04  0.12919984087E+04  0.00000000000E+00 0. -1.
         21   -1    0    0  501  503 -0.00000000000E+00 -0.00000000000E+00 -0.84444479346E+02  0.84444479346E+02  0.00000000000E+00 0. -1.
          6    2    1    2  501    0 -0.79567057600E+02 -0.79097970256E+02  0.66386679491E+02  0.21676680471E+03  0.17318559656E+03 0.  0.
         24    2    3    3    0    0  0.33437902605E+02 -0.33145903127E+02  0.45664779801E+02  0.92939503072E+02  0.65846297484E+02 0.  0.
         -6    2    1    2    0  502  0.79567057600E+02  0.79097970256E+02  0.11411672499E+04  0.11596760834E+04  0.17320080989E+03 0.  0.
        -24    2    5    5    0    0  0.62098159212E+02  0.12020732614E+03  0.73379978633E+03  0.74984016264E+03  0.74109111770E+02 0.  0.
          5    1    3    3  501    0 -0.11300496021E+03 -0.45952067129E+02  0.20721899691E+02  0.12382730164E+03  0.47000000000E+01 0. -1.
        -11    1    4    4    0    0  0.29373318305E+02 -0.34080752893E+02 -0.20538468296E+01  0.45038959056E+02  0.00000000000E+00 0.  1.
         12    1    4    4    0    0  0.40645843000E+01  0.93484976632E+00  0.47718626630E+02  0.47900544017E+02  0.00000000000E+00 0. -1.
         -5    1    5    5    0  502  0.17468898388E+02 -0.41109355880E+02  0.40736746356E+03  0.40983592073E+03  0.47000000000E+01 0.  1.
         11    1    6    6    0    0  0.21430673942E+01  0.30864714871E+02  0.34632063858E+03  0.34769988218E+03  0.00000000000E+00 0. -1.
        -12    1    6    6    0    0  0.59955091817E+02  0.89342611265E+02  0.38747914775E+03  0.40214028046E+03  0.00000000000E+00 0.  1.
<mgrwt>
<rscale>  2 0.20636039E+03</rscale>
<asrwt>0</asrwt>
<pdfrwt beam="1">  1       21 0.19876897E+00 0.20636358E+03</pdfrwt>
<pdfrwt beam="2">  1       21 0.12991459E-01 0.20636358E+03</pdfrwt>
<totfact> 0.68760630E+03</totfact>
</mgrwt>
</event>
<event>
12    1  0.1050690E-001  0.2511600E+03  0.7546771E-02  0.1112587E+00
         21   -1    0    0  503  502  0.00000000000E+00  0.00000000000E+00  0.15668442231E+03  0.15668442231E+03  0.00000000000E+00 0. -1.
         21   -1    0    0  501  503 -0.00000000000E+00 -0.00000000000E+00 -0.53173141556E+03  0.53173141556E+03  0.00000000000E+00 0.  1.
          6    2    1    2  501    0  0.38905102010E+02 -0.17799875867E+03 -0.35726267072E+03  0.43671266280E+03  0.17287038182E+03 0.  0.
         24    2    3    3    0    0 -0.44156302501E+01 -0.13466903017E+02 -0.14506979759E+03  0.16469184967E+03  0.76663576150E+02 0.  0.
         -6    2    1    2    0  502 -0.38905102010E+02  0.17799875867E+03 -0.17784322531E+02  0.25170317508E+03  0.17274559666E+03 0.  0.
        -24    2    5    5    0    0 -0.66301188036E+02  0.18572637121E+03 -0.38468664231E+02  0.21620397062E+03  0.79838501284E+02 0.  0.
          5    1    3    3  501    0  0.43320732260E+02 -0.16453185565E+03 -0.21219287312E+03  0.27202081312E+03  0.47000000000E+01 0. -1.
        -13    1    4    4    0    0  0.30777037429E+02  0.16330251791E+01 -0.10429402454E+03  0.10875263840E+03  0.00000000000E+00 0.  1.
         14    1    4    4    0    0 -0.35192667679E+02 -0.15099928196E+02 -0.40775773051E+02  0.55939211273E+02  0.00000000000E+00 0. -1.
         -5    1    5    5    0  502  0.27396086026E+02 -0.77276125465E+01  0.20684341701E+02  0.35499204453E+02  0.47000000000E+01 0.  1.
         13    1    6    6    0    0 -0.14900429722E+02  0.51382128558E+02  0.24915447091E+02  0.59016315073E+02  0.00000000000E+00 0. -1.
        -14    1    6    6    0    0 -0.51400758313E+02  0.13434424265E+03 -0.63384111322E+02  0.15718765555E+03  0.00000000000E+00 0.  1.
<mgrwt>
<rscale>  2 0.25113851E+03</rscale>
<asrwt>0</asrwt>
<pdfrwt beam="1">  1       21 0.24105296E-01 0.25115998E+03</pdfrwt>
<pdfrwt beam="2">  1       21 0.81804834E-01 0.25115998E+03</pdfrwt>
<totfact> 0.20558827E+04</totfact>
</mgrwt>
</event>
<event>
12    1  0.1050690E-001  0.1757122E+03  0.7546771E-02  0.1172623E+00
         21   -1    0    0  503  502  0.00000000000E+00  0.00000000000E+00  0.22504723306E+02  0.22504723306E+02  0.00000000000E+00 0.  1.
         21   -1    0    0  501  503 -0.00000000000E+00 -0.00000000000E+00 -0.14981435638E+04  0.14981435638E+04  0.00000000000E+00 0.  1.
          6    2    1    2  501    0  0.14963141325E+01  0.25548081993E+02 -0.50593766039E+03  0.53558165507E+03  0.17383857338E+03 0.  0.
         24    2    3    3    0    0 -0.11794704812E+02  0.19006772085E+02 -0.10759568267E+03  0.13693662358E+03  0.81697218438E+02 0.  0.
         -6    2    1    2    0  502 -0.14963141325E+01 -0.25548081993E+02 -0.96970118006E+03  0.98506663200E+03  0.17140871451E+03 0.  0.
        -24    2    5    5    0    0 -0.15812147926E+02  0.44676503154E+02 -0.42533573414E+03  0.43598351974E+03  0.83217358698E+02 0.  0.
          5    1    3    3  501    0  0.13291018944E+02  0.65413099088E+01 -0.39834197772E+03  0.39864503149E+03  0.47000000000E+01 0. -1.
        -13    1    4    4    0    0 -0.38093098556E+02  0.25347353697E+02 -0.98135709559E+02  0.10827829878E+03  0.00000000000E+00 0.  1.
         14    1    4    4    0    0  0.26298393745E+02 -0.63405816128E+01 -0.94599731161E+01  0.28658324796E+02  0.00000000000E+00 0. -1.
         -5    1    5    5    0  502  0.14315833794E+02 -0.70224585148E+02 -0.54436544592E+03  0.54908311226E+03  0.47000000000E+01 0.  1.
         13    1    6    6    0    0  0.22090547963E+02  0.45138387192E+02 -0.15348095200E+03  0.16149882023E+03  0.00000000000E+00 0. -1.
        -14    1    6    6    0    0 -0.37902695889E+02 -0.46188403797E+00 -0.27185478214E+03  0.27448469951E+03  0.00000000000E+00 0.  1.
<mgrwt>
<rscale>  2 0.17510824E+03</rscale>
<asrwt>0</asrwt>
<pdfrwt beam="1">  1       21 0.34622658E-02 0.17571225E+03</pdfrwt>
<pdfrwt beam="2">  1       21 0.23048358E+00 0.17571225E+03</pdfrwt>
<totfact> 0.43884865E+04</totfact>
</mgrwt>
</event>
<event>
12    1  0.1050690E-001  0.1765103E+03  0.7546771E-02  0.1171230E+00
         21   -1    0    0  501  502  0.00000000000E+00  0.00000000000E+00  0.46899435275E+03  0.46899435275E+03  0.00000000000E+00 0.  1.
         21   -1    0    0  502  503 -0.00000000000E+00 -0.00000000000E+00 -0.95189119002E+02  0.95189119002E+02  0.00000000000E+00 0.  1.
         -6    2    1    2    0  503 -0.15354242722E+02 -0.29251509324E+02  0.31834768381E+02  0.17935815266E+03  0.17339114994E+03 0.  0.
        -24    2    3    3    0    0 -0.47744934857E+02  0.98177475084E+01  0.69631617312E+02  0.11590537056E+03  0.78800544572E+02 0.  0.
          6    2    1    2  501    0  0.15354242722E+02  0.29251509324E+02  0.34197046537E+03  0.38482531910E+03  0.17336471229E+03 0.  0.
         24    2    5    5    0    0  0.16665738553E+02  0.80923807438E+02  0.17117423048E+03  0.20631708324E+03  0.80247817465E+02 0.  0.
          5    1    5    5  501    0 -0.13114958308E+01 -0.51672298114E+02  0.17079623489E+03  0.17850823585E+03  0.47000000000E+01 0. -1.
        -13    1    6    6    0    0  0.46655787630E+02  0.30388028179E+02  0.94938526702E+02  0.11006143116E+03  0.00000000000E+00 0.  1.
         14    1    6    6    0    0 -0.29990049077E+02  0.50535779258E+02  0.76235703774E+02  0.96255652088E+02  0.00000000000E+00 0. -1.
         -5    1    3    3    0  503  0.32390692135E+02 -0.39069256832E+02 -0.37796848931E+02  0.63452782095E+02  0.47000000000E+01 0.  1.
         13    1    4    4    0    0 -0.54507245257E+02  0.76337775491E+01  0.83682188182E+02  0.10015998684E+03  0.00000000000E+00 0. -1.
        -14    1    4    4    0    0  0.67623104002E+01  0.21839699593E+01 -0.14050570870E+02  0.15745383720E+02  0.00000000000E+00 0.  1.
<mgrwt>
<rscale>  2 0.17650383E+03</rscale>
<asrwt>0</asrwt>
<pdfrwt beam="1">  1       21 0.72152976E-01 0.17651032E+03</pdfrwt>
<pdfrwt beam="2">  1       21 0.14644480E-01 0.17651032E+03</pdfrwt>
<totfact> 0.71510949E+04</totfact>
</mgrwt>
</event>
<event>
12    1  0.1050690E-001  0.3065798E+03  0.7546771E-02  0.1082087E+00
         21   -1    0    0  501  502  0.00000000000E+00  0.00000000000E+00  0.71318687843E+03  0.71318687843E+03  0.00000000000E+00 0.  1.
         21   -1    0    0  502  503 -0.00000000000E+00 -0.00000000000E+00 -0.20226596702E+03  0.20226596702E+03  0.00000000000E+00 0. -1.
         -6    2    1    2    0  503  0.17411015809E+03  0.18245376748E+03 -0.15135823446E+02  0.30695322712E+03  0.17432001054E+03 0.  0.
        -24    2    3    3    0    0  0.18637611407E+03  0.13773799509E+03 -0.47418163806E+02  0.25025936965E+03  0.81691239755E+02 0.  0.
          6    2    1    2  501    0 -0.17411015809E+03 -0.18245376748E+03  0.52605673486E+03  0.60849961832E+03  0.17300974767E+03 0.  0.
         24    2    5    5    0    0 -0.18089147347E+03 -0.98698099898E+02  0.39754111262E+03  0.45487880837E+03  0.80079672727E+02 0.  0.
          5    1    5    5  501    0  0.67813153808E+01 -0.83755667577E+02  0.12851562224E+03  0.15362080995E+03  0.47000000000E+01 0. -1.
        -13    1    6    6    0    0 -0.46792299190E+02  0.20835332705E+01  0.13905685548E+03  0.14673332760E+03  0.00000000000E+00 0.  1.
         14    1    6    6    0    0 -0.13409917428E+03 -0.10078163317E+03  0.25848425715E+03  0.30814548077E+03  0.00000000000E+00 0. -1.
         -5    1    3    3    0  503 -0.12265955975E+02  0.44715772387E+02  0.32282340360E+02  0.56693857474E+02  0.47000000000E+01 0.  1.
         11    1    4    4    0    0  0.13702979003E+03  0.72781548379E+02  0.14529489500E+01  0.15516580874E+03  0.00000000000E+00 0. -1.
        -12    1    4    4    0    0  0.49346324039E+02  0.64956446710E+02 -0.48871112756E+02  0.95093560914E+02  0.00000000000E+00 0.  1.
<mgrwt>
<rscale>  2 0.30639388E+03</rscale>
<asrwt>0</asrwt>
<pdfrwt beam="1">  1       21 0.10972106E+00 0.30657983E+03</pdfrwt>
<pdfrwt beam="2">  1       21 0.31117841E-01 0.30657983E+03</pdfrwt>
<totfact> 0.60734953E+03</totfact>
</mgrwt>
</event>
<event>
12    1  0.1050690E-001  0.1738844E+03  0.7546771E-02  0.1174084E+00
         21   -1    0    0  503  502  0.00000000000E+00  0.00000000000E+00  0.80946409945E+03  0.80946409945E+03  0.00000000000E+00 0. -1.
         21   -1    0    0  501  503 -0.00000000000E+00 -0.00000000000E+00 -0.37328940039E+02  0.37328940039E+02  0.00000000000E+00 0. -1.
          6    2    1    2  501    0 -0.64041004772E+01 -0.72248008497E+01  0.35660757305E+03  0.39634997410E+03  0.17271690874E+03 0.  0.
         24    2    3    3    0    0  0.15850562303E+02  0.60677319409E+02  0.17790733043E+03  0.20383546904E+03  0.77232783185E+02 0.  0.
         -6    2    1    2    0  502  0.64041004772E+01  0.72248008497E+01  0.41552758637E+03  0.45044306539E+03  0.17361615673E+03 0.  0.
        -24    2    5    5    0    0 -0.24173835414E+00 -0.36258748223E+02  0.38976384252E+03  0.39924885956E+03  0.78543259829E+02 0.  0.
          5    1    3    3  501    0 -0.22254662780E+02 -0.67902120259E+02  0.17870024261E+03  0.19251450507E+03  0.47000000000E+01 0. -1.
        -13    1    4    4    0    0 -0.27071482734E+02  0.25442360678E+01  0.46239543631E+02  0.53641716134E+02  0.00000000000E+00 0.  1.
         14    1    4    4    0    0  0.42922045036E+02  0.58133083342E+02  0.13166778680E+03  0.15019375290E+03  0.00000000000E+00 0. -1.
         -5    1    5    5    0  502  0.66458388313E+01  0.43483549073E+02  0.25763743851E+02  0.51194205834E+02  0.47000000000E+01 0.  1.
         11    1    6    6    0    0 -0.25262259610E+02 -0.34030538702E+01  0.29212920370E+03  0.29323920984E+03  0.00000000000E+00 0. -1.
        -12    1    6    6    0    0  0.25020521256E+02 -0.32855694353E+02  0.97634638818E+02  0.10600964971E+03  0.00000000000E+00 0.  1.
<mgrwt>
<rscale>  2 0.17365949E+03</rscale>
<asrwt>0</asrwt>
<pdfrwt beam="1">  1       21 0.12453293E+00 0.17388439E+03</pdfrwt>
<pdfrwt beam="2">  1       21 0.57429144E-02 0.17388439E+03</pdfrwt>
<totfact> 0.10317377E+05</totfact>
</mgrwt>
</event>
<event>
12    1  0.1050690E-001  0.1775026E+03  0.7546771E-02  0.1170389E+00
         21   -1    0    0  501  502  0.00000000000E+00  0.00000000000E+00  0.29127771214E+03  0.29127771214E+03  0.00000000000E+00 0.  1.
         21   -1    0    0  502  503 -0.00000000000E+00 -0.00000000000E+00 -0.13293232215E+03  0.13293232215E+03  0.00000000000E+00 0.  1.
         -6    2    1    2    0  503  0.39217569195E+02 -0.89882101234E+01 -0.12931835909E+02  0.17797300863E+03  0.17288248542E+03 0.  0.
        -24    2    3    3    0    0 -0.36313958351E+02  0.21942381425E+02 -0.24655736154E+02  0.95382131503E+02  0.81790427380E+02 0.  0.
          6    2    1    2  501    0 -0.39217569195E+02  0.89882101234E+01  0.17127722590E+03  0.24623702567E+03  0.17227297827E+03 0.  0.
         24    2    5    5    0    0 -0.72765120151E+02 -0.22528603088E+02  0.16661877015E+03  0.19973391932E+03  0.79558301209E+02 0.  0.
          5    1    5    5  501    0  0.33547550956E+02  0.31516813212E+02  0.46584557468E+01  0.46503106349E+02  0.47000000000E+01 0. -1.
        -13    1    6    6    0    0 -0.79704456907E+02  0.57205505859E+00  0.94161703697E+02  0.12336755708E+03  0.00000000000E+00 0.  1.
         14    1    6    6    0    0  0.69393367558E+01 -0.23100658147E+02  0.72457066458E+02  0.76366362236E+02  0.00000000000E+00 0. -1.
         -5    1    3    3    0  503  0.75531527546E+02 -0.30930591549E+02  0.11723900245E+02  0.82590877123E+02  0.47000000000E+01 0.  1.
         11    1    4    4    0    0 -0.45626483556E+01 -0.11736452468E+02  0.24696108208E+02  0.27721108152E+02  0.00000000000E+00 0. -1.
        -12    1    4    4    0    0 -0.31751309995E+02  0.33678833894E+02 -0.49351844362E+02  0.67661023350E+02  0.00000000000E+00 0.  1.
<mgrwt>
<rscale>  2 0.17735398E+03</rscale>
<asrwt>0</asrwt>
<pdfrwt beam="1">  1       21 0.44811956E-01 0.17750256E+03</pdfrwt>
<pdfrwt beam="2">  1       21 0.20451127E-01 0.17750256E+03</pdfrwt>
<totfact> 0.10641623E+05</totfact>
</mgrwt>
</event>
<event>
12    1  0.1050690E-001  0.1875316E+03  0.7546771E-02  0.1161192E+00
         21   -1    0    0  503  502  0.00000000000E+00  0.00000000000E+00  0.24613561415E+03  0.24613561415E+03  0.00000000000E+00 0.  1.
         21   -1    0    0  501  503 -0.00000000000E+00 -0.00000000000E+00 -0.14218604002E+03  0.14218604002E+03  0.00000000000E+00 0.  1.
          6    2    1    2  501    0  0.23240079094E+02 -0.61893679887E+02  0.36224794719E+02  0.18893577572E+03  0.17324422850E+03 0.  0.
         24    2    3    3    0    0 -0.22618040523E+02 -0.22205532604E+02 -0.37352845936E+02  0.93469156564E+02  0.79602680194E+02 0.  0.
         -6    2    1    2    0  502 -0.23240079094E+02  0.61893679887E+02  0.67724779418E+02  0.19938587844E+03  0.17549117895E+03 0.  0.
        -24    2    5    5    0    0  0.44433160508E+02  0.74081360025E+02  0.52243164616E+02  0.12874610705E+03  0.79899049904E+02 0.  0.
          5    1    3    3  501    0  0.45858119617E+02 -0.39688147283E+02  0.73577640655E+02  0.95466619160E+02  0.47000000000E+01 0. -1.
        -13    1    4    4    0    0 -0.37856303226E+02 -0.44513416234E+02 -0.22313653777E+02  0.62549524887E+02  0.00000000000E+00 0.  1.
         14    1    4    4    0    0  0.15238262703E+02  0.22307883630E+02 -0.15039192159E+02  0.30919631677E+02  0.00000000000E+00 0. -1.
         -5    1    5    5    0  502 -0.67673239603E+02 -0.12187680138E+02  0.15481614802E+02  0.70639771392E+02  0.47000000000E+01 0.  1.
         13    1    6    6    0    0  0.18754256359E+02  0.34796912783E+02  0.68491908235E+02  0.79080267858E+02  0.00000000000E+00 0. -1.
        -14    1    6    6    0    0  0.25678904149E+02  0.39284447242E+02 -0.16248743620E+02  0.49665839192E+02  0.00000000000E+00 0.  1.
<mgrwt>
<rscale>  2 0.18700408E+03</rscale>
<asrwt>0</asrwt>
<pdfrwt beam="1">  1       21 0.37867018E-01 0.18753155E+03</pdfrwt>
<pdfrwt beam="2">  1       21 0.21874775E-01 0.18753155E+03</pdfrwt>
<totfact> 0.13145985E+05</totfact>
</mgrwt>
</event>
<event>
12    1  0.1050690E-001  0.1994241E+03  0.7546771E-02  0.1150782E+00
         21   -1    0    0  501  502  0.00000000000E+00  0.00000000000E+00  0.29072539194E+02  0.29072539194E+02  0.00000000000E+00 0. -1.
         21   -1    0    0  502  503 -0.00000000000E+00 -0.00000000000E+00 -0.19743295745E+04  0.19743295745E+04  0.00000000000E+00 0. -1.
         -6    2    1    2    0  503 -0.46471487210E+02 -0.88079990988E+02 -0.15402480083E+04  0.15531046060E+04  0.17277819983E+03 0.  0.
        -24    2    3    3    0    0 -0.84453783713E+02 -0.96524931865E+02 -0.13866490847E+04  0.13945842881E+04  0.74967649366E+02 0.  0.
          6    2    1    2  501    0  0.46471487210E+02  0.88079990988E+02 -0.40500902708E+03  0.45029750771E+03  0.16975820894E+03 0.  0.
         24    2    5    5    0    0  0.94612336584E+02  0.43567337024E+02 -0.26487204219E+03  0.29550932252E+03  0.79491847847E+02 0.  0.
          5    1    5    5  501    0 -0.48140849374E+02  0.44512653964E+02 -0.14013698489E+03  0.15478818519E+03  0.47000000000E+01 0. -1.
        -13    1    6    6    0    0 -0.14282723653E+02  0.51103252295E+01 -0.38499194326E+02  0.41379941791E+02  0.00000000000E+00 0.  1.
         14    1    6    6    0    0  0.10889506024E+03  0.38457011795E+02 -0.22637284786E+03  0.25412938073E+03  0.00000000000E+00 0. -1.
         -5    1    3    3    0  503  0.37982296503E+02  0.84449408770E+01 -0.15359892358E+03  0.15852031794E+03  0.47000000000E+01 0.  1.
         11    1    4    4    0    0 -0.51001279827E+02 -0.32593945744E+02 -0.33217036804E+03  0.33763982177E+03  0.00000000000E+00 0. -1.
        -12    1    4    4    0    0 -0.33452503886E+02 -0.63930986121E+02 -0.10544787167E+04  0.10569444663E+04  0.00000000000E+00 0.  1.
<mgrwt>
<rscale>  2 0.19876824E+03</rscale>
<asrwt>0</asrwt>
<pdfrwt beam="1">  1       21 0.44726965E-02 0.19942415E+03</pdfrwt>
<pdfrwt beam="2">  1       21 0.30374314E+00 0.19942415E+03</pdfrwt>
<totfact> 0.10473458E+04</totfact>
</mgrwt>
</event>
<event>
12    1  0.1050690E-001  0.3076044E+03  0.7546771E-02  0.1081511E+00
         21   -1    0    0  503  502  0.00000000000E+00  0.00000000000E+00  0.93372799562E+02  0.93372799562E+02  0.00000000000E+00 0.  1.
         21   -1    0    0  501  503 -0.00000000000E+00 -0.00000000000E+00 -0.13647072460E+04  0.13647072460E+04  0.00000000000E+00 0. -1.
          6    2    1    2  501    0  0.23606747392E+03 -0.94865519396E+02 -0.10056698446E+04  0.10516343065E+04  0.17272972933E+03 0.  0.
         24    2    3    3    0    0  0.62129963070E+02 -0.28964633424E+01 -0.45298672163E+03  0.46495441994E+03  0.84363030056E+02 0.  0.
         -6    2    1    2    0  502 -0.23606747392E+03  0.94865519396E+02 -0.26566460182E+03  0.40644573898E+03  0.17289632459E+03 0.  0.
        -24    2    5    5    0    0 -0.22730729120E+03  0.92040675934E+02 -0.16732043128E+03  0.30756001493E+03  0.80355120540E+02 0.  0.
          5    1    3    3  501    0  0.17393751085E+03 -0.91969056054E+02 -0.55268312295E+03  0.58667988660E+03  0.47000000000E+01 0. -1.
        -11    1    4    4    0    0  0.25698540149E+02  0.39999901572E+02 -0.17603671208E+03  0.18234399110E+03  0.00000000000E+00 0.  1.
         12    1    4    4    0    0  0.36431422921E+02 -0.42896364915E+02 -0.27695000955E+03  0.28261042884E+03  0.00000000000E+00 0. -1.
         -5    1    5    5    0  502 -0.87601827206E+01  0.28248434623E+01 -0.98344170542E+02  0.98885724053E+02  0.47000000000E+01 0.  1.
         13    1    6    6    0    0  0.67259864075E+01  0.99908036468E+00 -0.61691628859E+01  0.91812649151E+01  0.00000000000E+00 0. -1.
        -14    1    6    6    0    0 -0.23403327761E+03  0.91041595569E+02 -0.16115126840E+03  0.29837875001E+03  0.00000000000E+00 0.  1.
<mgrwt>
<rscale>  2 0.30758098E+03</rscale>
<asrwt>0</asrwt>
<pdfrwt beam="1">  1       21 0.14365047E-01 0.30760439E+03</pdfrwt>
<pdfrwt beam="2">  1       21 0.20995495E+00 0.30760439E+03</pdfrwt>
<totfact> 0.45152204E+03</totfact>
</mgrwt>
</event>
<event>
12    1  0.1050690E-001  0.1970771E+03  0.7546771E-02  0.1152415E+00
         21   -1    0    0  503  502  0.00000000000E+00  0.00000000000E+00  0.64344266607E+02  0.64344266607E+02  0.00000000000E+00 0. -1.
         21   -1    0    0  501  503 -0.00000000000E+00 -0.00000000000E+00 -0.86186510146E+03  0.86186510146E+03  0.00000000000E+00 0. -1.
          6    2    1    2  501    0 -0.16091035255E+02  0.94957802834E+02 -0.65294332882E+03  0.68178752011E+03  0.17094831438E+03 0.  0.
         24    2    3    3    0    0 -0.67760483231E+02  0.22524811894E+02 -0.34623513509E+03  0.36240017513E+03  0.79726206006E+02 0.  0.
         -6    2    1    2    0  502  0.16091035255E+02 -0.94957802834E+02 -0.14457750603E+03  0.24442184796E+03  0.17194033493E+03 0.  0.
        -24    2    5    5    0    0 -0.54782119328E+02 -0.70146825035E+02 -0.52864807802E+02  0.12579681824E+03  0.71473728840E+02 0.  0.
          5    1    3    3  501    0  0.51669447977E+02  0.72432990940E+02 -0.30670819373E+03  0.31938734498E+03  0.47000000000E+01 0. -1.
        -13    1    4    4    0    0  0.14091519979E+02  0.47345092712E+01 -0.16574428907E+02  0.22264280966E+02  0.00000000000E+00 0.  1.
         14    1    4    4    0    0 -0.81852003210E+02  0.17790302623E+02 -0.32966070618E+03  0.34013589416E+03  0.00000000000E+00 0. -1.
         -5    1    5    5    0  502  0.70873154583E+02 -0.24810977798E+02 -0.91712698230E+02  0.11862502972E+03  0.47000000000E+01 0.  1.
         11    1    6    6    0    0  0.28381143950E+01 -0.53970803127E+02 -0.29301002743E+02  0.61477241685E+02  0.00000000000E+00 0. -1.
        -12    1    6    6    0    0 -0.57620233723E+02 -0.16176021909E+02 -0.23563805059E+02  0.64319576553E+02  0.00000000000E+00 0.  1.
<mgrwt>
<rscale>  2 0.19686052E+03</rscale>
<asrwt>0</asrwt>
<pdfrwt beam="1">  1       21 0.98991181E-02 0.19707710E+03</pdfrwt>
<pdfrwt beam="2">  1       21 0.13259463E+00 0.19707710E+03</pdfrwt>
<totfact> 0.33879894E+04</totfact>
</mgrwt>
</event>
<event>
12    1  0.1050690E-001  0.1847250E+03  0.7546771E-02  0.1163447E+00
         21   -1    0    0  503  502  0.00000000000E+00  0.00000000000E+00  0.21018094736E+03  0.21018094736E+03  0.00000000000E+00 0. -1.
         21   -1    0    0  501  503 -0.00000000000E+00 -0.00000000000E+00 -0.16681595611E+03  0.16681595611E+03  0.00000000000E+00 0.  1.
          6    2    1    2  501    0 -0.59619730271E+02 -0.18524665615E+02 -0.10954651747E+02  0.18445096494E+03  0.17321800888E+03 0.  0.
         24    2    3    3    0    0 -0.79038872100E+02 -0.29809562861E+02 -0.59264234763E+02  0.13096865210E+03  0.80652247156E+02 0.  0.
         -6    2    1    2    0  502  0.59619730271E+02  0.18524665615E+02  0.54319642994E+02  0.19254593853E+03  0.17385522528E+03 0.  0.
        -24    2    5    5    0    0  0.35289379002E+02 -0.48749020901E+02 -0.27259742860E+01  0.10092712310E+03  0.80975588496E+02 0.  0.
          5    1    3    3  501    0  0.19419141830E+02  0.11284897246E+02  0.48309583015E+02  0.53482312837E+02  0.47000000000E+01 0. -1.
        -13    1    4    4    0    0 -0.10400474493E+02  0.18325677565E+02 -0.39602524465E+02  0.44859338737E+02  0.00000000000E+00 0.  1.
         14    1    4    4    0    0 -0.68638397607E+02 -0.48135240426E+02 -0.19661710298E+02  0.86109313368E+02  0.00000000000E+00 0. -1.
         -5    1    5    5    0  502  0.24330351268E+02  0.67273686516E+02  0.57045617280E+02  0.91618815432E+02  0.47000000000E+01 0.  1.
         11    1    6    6    0    0 -0.18599078601E+02 -0.39442779119E+02  0.10088295735E+02  0.44759716937E+02  0.00000000000E+00 0. -1.
        -12    1    6    6    0    0  0.53888457603E+02 -0.93062417828E+01 -0.12814270021E+02  0.56167406164E+02  0.00000000000E+00 0.  1.
<mgrwt>
<rscale>  2 0.18457489E+03</rscale>
<asrwt>0</asrwt>
<pdfrwt beam="1">  1       21 0.32335530E-01 0.18472497E+03</pdfrwt>
<pdfrwt beam="2">  1       21 0.25663993E-01 0.18472497E+03</pdfrwt>
<totfact> 0.13291751E+05</totfact>
</mgrwt>
</event>
<event>
12    1  0.1050690E-001  0.1753387E+03  0.7546771E-02  0.1173692E+00
         21   -1    0    0  501  502  0.00000000000E+00  0.00000000000E+00  0.28142368241E+03  0.28142368241E+03  0.00000000000E+00 0. -1.
         21   -1    0    0  502  503 -0.00000000000E+00 -0.00000000000E+00 -0.10778010558E+03  0.10778010558E+03  0.00000000000E+00 0. -1.
         -6    2    1    2    0  503 -0.35226740351E+01 -0.58766460432E+01  0.11249701556E+03  0.20832487201E+03  0.17520482182E+03 0.  0.
        -24    2    3    3    0    0  0.32136924381E+02  0.56058596540E+02  0.68659726565E+02  0.12435238164E+03  0.81080260311E+02 0.  0.
          6    2    1    2  501    0  0.35226740351E+01  0.58766460432E+01  0.61146561270E+02  0.18087891598E+03  0.17009214000E+03 0.  0.
         24    2    5    5    0    0 -0.35840335304E+02 -0.30729030292E+02 -0.19416108769E+02  0.83915748503E+02  0.66603788403E+02 0.  0.
          5    1    5    5  501    0  0.39363009339E+02  0.36605676335E+02  0.80562670039E+02  0.96963167481E+02  0.47000000000E+01 0. -1.
        -13    1    6    6    0    0  0.47511686633E+01  0.17586040948E+02 -0.12966288819E+01  0.18262630872E+02  0.00000000000E+00 0.  1.
         14    1    6    6    0    0 -0.40591503967E+02 -0.48315071240E+02 -0.18119479887E+02  0.65653117631E+02  0.00000000000E+00 0. -1.
         -5    1    3    3    0  503 -0.35659598416E+02 -0.61935242584E+02  0.43837288996E+02  0.83972490374E+02  0.47000000000E+01 0.  1.
         13    1    4    4    0    0  0.17875958751E+02 -0.14394479748E+02 -0.26454181064E+01  0.23103012475E+02  0.00000000000E+00 0. -1.
        -14    1    4    4    0    0  0.14260965630E+02  0.70453076288E+02  0.71305144671E+02  0.10124936916E+03  0.00000000000E+00 0.  1.
<mgrwt>
<rscale>  2 0.17404738E+03</rscale>
<asrwt>0</asrwt>
<pdfrwt beam="1">  1       21 0.43295951E-01 0.17533874E+03</pdfrwt>
<pdfrwt beam="2">  1       21 0.16581555E-01 0.17533874E+03</pdfrwt>
<totfact> 0.16839605E+05</totfact>
</mgrwt>
</event>
<event>
12    1  0.1050690E-001  0.2068929E+03  0.7546771E-02  0.1144136E+00
         21   -1    0    0  503  502  0.00000000000E+00  0.00000000000E+00  0.13852313663E+03  0.13852313663E+03  0.00000000000E+00 0. -1.
         21   -1    0    0  501  503 -0.00000000000E+00 -0.00000000000E+00 -0.42471057028E+03  0.42471057028E+03  0.00000000000E+00 0. -1.
          6    2    1    2  501    0 -0.42095715954E+02  0.10639698340E+03 -0.29037681018E+03  0.35629840345E+03  0.17186475215E+03 0.  0.
         24    2    3    3    0    0  0.13823015712E+02  0.10611981507E+03 -0.13273020629E+03  0.18896184710E+03  0.81466441459E+02 0.  0.
         -6    2    1    2    0  502  0.42095715954E+02 -0.10639698340E+03  0.41893765299E+01  0.20693530346E+03  0.17237256616E+03 0.  0.
        -24    2    5    5    0    0  0.30517496460E+01 -0.11303034322E+03 -0.42442364377E+02  0.14557536516E+03  0.81275217528E+02 0.  0.
          5    1    3    3  501    0 -0.55918731666E+02  0.27716833695E+00 -0.15764660389E+03  0.16733655635E+03  0.47000000000E+01 0. -1.
        -13    1    4    4    0    0  0.20646199708E+02 -0.64551851678E+01 -0.23856392597E+02  0.32203453940E+02  0.00000000000E+00 0.  1.
         14    1    4    4    0    0 -0.68231839965E+01  0.11257500023E+03 -0.10887381369E+03  0.15675839316E+03  0.00000000000E+00 0. -1.
         -5    1    5    5    0  502  0.39043966308E+02  0.66333598191E+01  0.46631740907E+02  0.61359938295E+02  0.47000000000E+01 0.  1.
         11    1    6    6    0    0  0.38067215370E+02 -0.68636388775E+02 -0.42032768578E+02  0.89032692784E+02  0.00000000000E+00 0. -1.
        -12    1    6    6    0    0 -0.35015465724E+02 -0.44393954446E+02 -0.40959579928E+00  0.56542672381E+02  0.00000000000E+00 0.  1.
<mgrwt>
<rscale>  2 0.20678709E+03</rscale>
<asrwt>0</asrwt>
<pdfrwt beam="1">  1       21 0.21311252E-01 0.20689289E+03</pdfrwt>
<pdfrwt beam="2">  1       21 0.65340088E-01 0.20689289E+03</pdfrwt>
<totfact> 0.43844351E+04</totfact>
</mgrwt>
</event>
<event>
12    1  0.1050690E-001  0.1932448E+03  0.7546771E-02  0.1155713E+00
         21   -1    0    0  501  502  0.00000000000E+00  0.00000000000E+00  0.13902979606E+03  0.13902979606E+03  0.00000000000E+00 0.  1.
         21   -1    0    0  502  503 -0.00000000000E+00 -0.00000000000E+00 -0.39551089059E+03  0.39551089059E+03  0.00000000000E+00 0.  1.
         -6    2    1    2    0  503  0.24368281104E+02 -0.82446052522E+02 -0.28003629845E+03  0.33986556433E+03  0.17232849059E+03 0.  0.
        -24    2    3    3    0    0 -0.22250700460E+02  0.41177125667E+01 -0.19147904285E+03  0.20746053275E+03  0.76574144278E+02 0.  0.
          6    2    1    2  501    0 -0.24368281104E+02  0.82446052522E+02  0.23555203922E+02  0.19467512232E+03  0.17306759061E+03 0.  0.
         24    2    5    5    0    0 -0.20268259196E+02 -0.79776175443E+01  0.53750574790E+02  0.99139261464E+02  0.80405373955E+02 0.  0.
          5    1    5    5  501    0 -0.41000219079E+01  0.90423670066E+02 -0.30195370868E+02  0.95535860857E+02  0.47000000000E+01 0. -1.
        -11    1    6    6    0    0 -0.98599827723E+00 -0.13316973071E+02  0.71291320927E+02  0.72531140925E+02  0.00000000000E+00 0.  1.
         12    1    6    6    0    0 -0.19282260918E+02  0.53393555272E+01 -0.17540746137E+02  0.26608120539E+02  0.00000000000E+00 0. -1.
         -5    1    3    3    0  503  0.46618981563E+02 -0.86563765088E+02 -0.88557255596E+02  0.13240503158E+03  0.47000000000E+01 0.  1.
         13    1    4    4    0    0 -0.46928933213E+02 -0.13888099343E+02 -0.10814385832E+03  0.11870256176E+03  0.00000000000E+00 0. -1.
        -14    1    4    4    0    0  0.24678232753E+02  0.18005811910E+02 -0.83335184528E+02  0.88757970993E+02  0.00000000000E+00 0.  1.
<mgrwt>
<rscale>  2 0.19307918E+03</rscale>
<asrwt>0</asrwt>
<pdfrwt beam="1">  1       21 0.21389200E-01 0.19324481E+03</pdfrwt>
<pdfrwt beam="2">  1       21 0.60847828E-01 0.19324481E+03</pdfrwt>
<totfact> 0.51162672E+04</totfact>
</mgrwt>
</event>
<event>
12    1  0.1050690E-001  0.1732483E+03  0.7546771E-02  0.1174642E+00
         21   -1    0    0  503  502  0.00000000000E+00  0.00000000000E+00  0.62674415319E+03  0.62674415319E+03  0.00000000000E+00 0. -1.
         21   -1    0    0  501  503 -0.00000000000E+00 -0.00000000000E+00 -0.71426634526E+02  0.71426634526E+02  0.00000000000E+00 0. -1.
          6    2    1    2  501    0  0.22734559577E+01  0.93796415313E+01  0.76334873862E+02  0.18881888407E+03  0.17243088974E+03 0.  0.
         24    2    3    3    0    0 -0.10249763344E+02  0.43650809377E+02  0.10710287072E+03  0.14085948877E+03  0.79749105651E+02 0.  0.
         -6    2    1    2    0  502 -0.22734559577E+01 -0.93796415313E+01  0.47898264480E+03  0.50935190364E+03  0.17297930930E+03 0.  0.
        -24    2    5    5    0    0 -0.11689220388E+02  0.60375607052E+02  0.30422785097E+03  0.32089559758E+03  0.81471144865E+02 0.  0.
          5    1    3    3  501    0  0.12523219302E+02 -0.34271167845E+02 -0.30767996857E+02  0.47959395303E+02  0.47000000000E+01 0. -1.
        -13    1    4    4    0    0 -0.11051556806E+01  0.10579534175E+02 -0.12510874150E+02  0.16421628556E+02  0.00000000000E+00 0.  1.
         14    1    4    4    0    0 -0.91446076638E+01  0.33071275202E+02  0.11961374487E+03  0.12443786021E+03  0.00000000000E+00 0. -1.
         -5    1    5    5    0  502  0.94157644302E+01 -0.69755248583E+02  0.17475479383E+03  0.18845630606E+03  0.47000000000E+01 0.  1.
         11    1    6    6    0    0 -0.29644494000E+02  0.37860958497E+02  0.70124127438E+02  0.85027298274E+02  0.00000000000E+00 0. -1.
        -12    1    6    6    0    0  0.17955273612E+02  0.22514648555E+02  0.23410372353E+03  0.23586829931E+03  0.00000000000E+00 0.  1.
<mgrwt>
<rscale>  2 0.17311129E+03</rscale>
<asrwt>0</asrwt>
<pdfrwt beam="1">  1       21 0.96422174E-01 0.17324834E+03</pdfrwt>
<pdfrwt beam="2">  1       21 0.10988713E-01 0.17324834E+03</pdfrwt>
<totfact> 0.61992847E+04</totfact>
</mgrwt>
</event>
<event>
12    1  0.1050690E-001  0.1879045E+03  0.7546771E-02  0.1160390E+00
         21   -1    0    0  501  502  0.00000000000E+00  0.00000000000E+00  0.36968184822E+03  0.36968184822E+03  0.00000000000E+00 0. -1.
         21   -1    0    0  502  503 -0.00000000000E+00 -0.00000000000E+00 -0.35329068161E+03  0.35329068161E+03  0.00000000000E+00 0.  1.
         -6    2    1    2    0  503 -0.30178601094E+02  0.67120664439E+02 -0.30061960730E+03  0.35445668603E+03  0.17277575762E+03 0.  0.
        -24    2    3    3    0    0  0.37916332279E+02  0.23763280863E+02 -0.22833900153E+03  0.24599766782E+03  0.79836152097E+02 0.  0.
          6    2    1    2  501    0  0.30178601094E+02 -0.67120664439E+02  0.31701077391E+03  0.36851584380E+03  0.17289350710E+03 0.  0.
         24    2    5    5    0    0  0.25312529588E+02  0.23867598946E+02  0.97076839890E+02  0.13040753219E+03  0.79823713108E+02 0.  0.
          5    1    5    5  501    0  0.48660715061E+01 -0.90988263385E+02  0.21993393402E+03  0.23810831161E+03  0.47000000000E+01 0. -1.
        -11    1    6    6    0    0  0.37267367360E+02 -0.19045879819E+02  0.55153859195E+02  0.69235470621E+02  0.00000000000E+00 0.  1.
         12    1    6    6    0    0 -0.11954837772E+02  0.42913478765E+02  0.41922980695E+02  0.61172061566E+02  0.00000000000E+00 0. -1.
         -5    1    3    3    0  503 -0.68094933373E+02  0.43357383576E+02 -0.72280605770E+02  0.10845901821E+03  0.47000000000E+01 0.  1.
         11    1    4    4    0    0 -0.10163600976E+02  0.19297449799E+02 -0.13172432345E+02  0.25479468743E+02  0.00000000000E+00 0. -1.
        -12    1    4    4    0    0  0.48079933254E+02  0.44658310638E+01 -0.21516656918E+03  0.22051819907E+03  0.00000000000E+00 0.  1.
<mgrwt>
<rscale>  2 0.18787740E+03</rscale>
<asrwt>0</asrwt>
<pdfrwt beam="1">  1       21 0.56874131E-01 0.18790449E+03</pdfrwt>
<pdfrwt beam="2">  1       21 0.54352413E-01 0.18790449E+03</pdfrwt>
<totfact> 0.93223007E+03</totfact>
</mgrwt>
</event>
<event>
12    1  0.1050690E-001  0.2377220E+03  0.7546771E-02  0.1121537E+00
         21   -1    0    0  501  502  0.00000000000E+00  0.00000000000E+00  0.53179884257E+03  0.53179884257E+03  0.00000000000E+00 0. -1.
         21   -1    0    0  502  503 -0.00000000000E+00 -0.00000000000E+00 -0.11205059581E+03  0.11205059581E+03  0.00000000000E+00 0.  1.
         -6    2    1    2    0  503  0.15964485621E+03 -0.28892432287E+02  0.13371613893E+03  0.27274850953E+03  0.17375411041E+03 0.  0.
        -24    2    3    3    0    0  0.48344082726E+02 -0.70092586064E+01  0.12494144497E+03  0.15888095171E+03  0.85126447738E+02 0.  0.
          6    2    1    2  501    0 -0.15964485621E+03  0.28892432287E+02  0.28603210784E+03  0.37110092885E+03  0.17198918547E+03 0.  0.
         24    2    5    5    0    0 -0.67566506219E+02 -0.37356265369E+02  0.81170404161E+02  0.13688367903E+03  0.78662467211E+02 0.  0.
          5    1    5    5  501    0 -0.92078349996E+02  0.66248697656E+02  0.20486170368E+03  0.23421724982E+03  0.47000000000E+01 0. -1.
        -13    1    6    6    0    0 -0.34934846548E+02 -0.28208883622E+01 -0.79045993589E+01  0.35928868692E+02  0.00000000000E+00 0.  1.
         14    1    6    6    0    0 -0.32631659671E+02 -0.34535377007E+02  0.89075003520E+02  0.10095481034E+03  0.00000000000E+00 0. -1.
         -5    1    3    3    0  503  0.11130077349E+03 -0.21883173680E+02  0.87746939505E+01  0.11386755782E+03  0.47000000000E+01 0.  1.
         13    1    4    4    0    0  0.19672411454E+02 -0.44954868789E+02  0.49509775376E+02  0.69707688658E+02  0.00000000000E+00 0. -1.
        -14    1    4    4    0    0  0.28671671272E+02  0.37945610183E+02  0.75431669599E+02  0.89173263057E+02  0.00000000000E+00 0.  1.
<mgrwt>
<rscale>  2 0.23739960E+03</rscale>
<asrwt>0</asrwt>
<pdfrwt beam="1">  1       21 0.81815205E-01 0.23772199E+03</pdfrwt>
<pdfrwt beam="2">  1       21 0.17238554E-01 0.23772199E+03</pdfrwt>
<totfact> 0.38869593E+04</totfact>
</mgrwt>
</event>
<event>
12    1  0.1050690E-001  0.1940266E+03  0.7546771E-02  0.1155548E+00
         21   -1    0    0  501  502  0.00000000000E+00  0.00000000000E+00  0.90007182539E+02  0.90007182539E+02  0.00000000000E+00 0.  1.
         21   -1    0    0  502  503 -0.00000000000E+00 -0.00000000000E+00 -0.15944194040E+04  0.15944194040E+04  0.00000000000E+00 0.  1.
         -6    2    1    2    0  503 -0.31788782543E+02 -0.78614306858E+02 -0.14790769188E+04  0.14917489211E+04  0.17451525944E+03 0.  0.
        -24    2    3    3    0    0 -0.55840304670E+01 -0.11519192009E+03 -0.12660063229E+04  0.12739283994E+04  0.82590539906E+02 0.  0.
          6    2    1    2  501    0  0.31788782543E+02  0.78614306858E+02 -0.25335302652E+02  0.19267766548E+03  0.17114926023E+03 0.  0.
         24    2    5    5    0    0  0.55729981482E+02  0.11205154563E+03 -0.29970317449E+02  0.15102669544E+03  0.79053545726E+02 0.  0.
          5    1    5    5  501    0 -0.23941198939E+02 -0.33437238775E+02  0.46350147971E+01  0.41650970046E+02  0.47000000000E+01 0. -1.
        -13    1    6    6    0    0  0.21171223874E+01  0.68933319532E+02  0.12619109482E+02  0.70110817090E+02  0.00000000000E+00 0.  1.
         14    1    6    6    0    0  0.53612859095E+02  0.43118226101E+02 -0.42589426931E+02  0.80915878347E+02  0.00000000000E+00 0. -1.
         -5    1    3    3    0  503 -0.26204752076E+02  0.36577613230E+02 -0.21307059595E+03  0.21782052171E+03  0.47000000000E+01 0.  1.
         13    1    4    4    0    0  0.18899220879E+02 -0.60202463929E+02 -0.32935745454E+03  0.33534735734E+03  0.00000000000E+00 0. -1.
        -14    1    4    4    0    0 -0.24483251346E+02 -0.54989456158E+02 -0.93664886833E+03  0.93858104201E+03  0.00000000000E+00 0.  1.
<mgrwt>
<rscale>  2 0.19326666E+03</rscale>
<asrwt>0</asrwt>
<pdfrwt beam="1">  1       21 0.13847258E-01 0.19402657E+03</pdfrwt>
<pdfrwt beam="2">  1       21 0.24529530E+00 0.19402657E+03</pdfrwt>
<totfact> 0.32100042E+03</totfact>
</mgrwt>
</event>
<event>
12    1  0.1050690E-001  0.1837818E+03  0.7546771E-02  0.1164250E+00
         21   -1    0    0  501  502  0.00000000000E+00  0.00000000000E+00  0.29559049783E+03  0.29559049783E+03  0.00000000000E+00 0. -1.
         21   -1    0    0  502  503 -0.00000000000E+00 -0.00000000000E+00 -0.17427657338E+03  0.17427657338E+03  0.00000000000E+00 0.  1.
         -6    2    1    2    0  503  0.33657884326E+02 -0.48293739700E+02 -0.77404870103E+02  0.19919213261E+03  0.17384146027E+03 0.  0.
        -24    2    3    3    0    0  0.39628965986E+02 -0.89498911878E+02 -0.25600900131E+02  0.13256435061E+03  0.85658571033E+02 0.  0.
          6    2    1    2  501    0 -0.33657884326E+02  0.48293739700E+02  0.19871879456E+03  0.27067493860E+03  0.17409946755E+03 0.  0.
         24    2    5    5    0    0  0.13746906067E+02  0.88086674121E+01  0.24176318223E+02  0.85490027952E+02  0.80358449888E+02 0.  0.
          5    1    5    5  501    0 -0.47404790393E+02  0.39485072288E+02  0.17454247633E+03  0.18518491064E+03  0.47000000000E+01 0. -1.
        -13    1    6    6    0    0 -0.12101481250E+01 -0.27657555299E+02 -0.13645356977E+02  0.30864228334E+02  0.00000000000E+00 0.  1.
         14    1    6    6    0    0  0.14957054192E+02  0.36466222711E+02  0.37821675201E+02  0.54625799618E+02  0.00000000000E+00 0. -1.
         -5    1    3    3    0  503 -0.59710816604E+01  0.41205172178E+02 -0.51803969972E+02  0.66627782008E+02  0.47000000000E+01 0.  1.
         13    1    4    4    0    0  0.28251372763E+02 -0.92326820237E+02 -0.47591001637E+02  0.10764425314E+03  0.00000000000E+00 0. -1.
        -14    1    4    4    0    0  0.11377593224E+02  0.28279083595E+01  0.21990101506E+02  0.24920097461E+02  0.00000000000E+00 0.  1.
<mgrwt>
<rscale>  2 0.18372071E+03</rscale>
<asrwt>0</asrwt>
<pdfrwt beam="1">  1       21 0.45475461E-01 0.18378184E+03</pdfrwt>
<pdfrwt beam="2">  1       21 0.26811780E-01 0.18378184E+03</pdfrwt>
<totfact> 0.61668690E+04</totfact>
</mgrwt>
</event>
<event>
12    1  0.1050690E-001  0.2537649E+03  0.7546771E-02  0.1111008E+00
         21   -1    0    0  503  502  0.00000000000E+00  0.00000000000E+00  0.34137776233E+02  0.34137776233E+02  0.00000000000E+00 0.  1.
         21   -1    0    0  501  503 -0.00000000000E+00 -0.00000000000E+00 -0.19003283422E+04  0.19003283422E+04  0.00000000000E+00 0. -1.
          6    2    1    2  501    0  0.41396339060E+02 -0.18064353785E+03 -0.10247476628E+04  0.10557009029E+04  0.17335189440E+03 0.  0.
         24    2    3    3    0    0 -0.30567771959E+02 -0.15143908657E+03 -0.64313635766E+03  0.66623843812E+03  0.79881764306E+02 0.  0.
         -6    2    1    2    0  502 -0.41396339060E+02  0.18064353785E+03 -0.84144290312E+03  0.87876521550E+03  0.17279004629E+03 0.  0.
        -24    2    5    5    0    0  0.30506904128E+02  0.15362757916E+03 -0.56616425882E+03  0.59293246648E+03  0.80590555011E+02 0.  0.
          5    1    3    3  501    0  0.71964111019E+02 -0.29204451281E+02 -0.38161130514E+03  0.38946246477E+03  0.47000000000E+01 0. -1.
        -13    1    4    4    0    0 -0.21502599903E+02 -0.28972499326E+02 -0.57628553689E+02  0.67991306209E+02  0.00000000000E+00 0.  1.
         14    1    4    4    0    0 -0.90651720564E+01 -0.12246658724E+03 -0.58550780397E+03  0.59824713191E+03  0.00000000000E+00 0. -1.
         -5    1    5    5    0  502 -0.71903243188E+02  0.27015958692E+02 -0.27527864430E+03  0.28583274902E+03  0.47000000000E+01 0.  1.
         13    1    6    6    0    0  0.21098265653E+02  0.46725293374E+02 -0.32432312641E+03  0.32835024011E+03  0.00000000000E+00 0. -1.
        -14    1    6    6    0    0  0.94086384754E+01  0.10690228578E+03 -0.24184113241E+03  0.26458222637E+03  0.00000000000E+00 0.  1.
<mgrwt>
<rscale>  2 0.25366898E+03</rscale>
<asrwt>0</asrwt>
<pdfrwt beam="1">  1       21 0.52519662E-02 0.25376490E+03</pdfrwt>
<pdfrwt beam="2">  1       21 0.29235817E+00 0.25376490E+03</pdfrwt>
<totfact> 0.88242909E+03</totfact>
</mgrwt>
</event>
<event>
12    1  0.1050690E-001  0.2039835E+03  0.7546771E-02  0.1150876E+00
         21   -1    0    0  503  502  0.00000000000E+00  0.00000000000E+00  0.21413242852E+03  0.21413242852E+03  0.00000000000E+00 0. -1.
         21   -1    0    0  501  503 -0.00000000000E+00 -0.00000000000E+00 -0.23039795397E+03  0.23039795397E+03  0.00000000000E+00 0. -1.
          6    2    1    2  501    0 -0.13121697666E+02  0.63641237395E+02 -0.11704262144E+03  0.23517708133E+03  0.19335691945E+03 0.  0.
         24    2    3    3    0    0 -0.50349238215E+02 -0.33085516031E+02 -0.41730943911E+02  0.10697453308E+03  0.77925489339E+02 0.  0.
         -6    2    1    2    0  502  0.13121697666E+02 -0.63641237395E+02  0.10077709599E+03  0.20935330117E+03  0.17161117558E+03 0.  0.
        -24    2    5    5    0    0  0.50930343141E+02 -0.82745253229E+02  0.10520843266E+03  0.16650258544E+03  0.84933031686E+02 0.  0.
          5    1    3    3  501    0  0.37227540549E+02  0.96726753426E+02 -0.75311677529E+02  0.12820254824E+03  0.47000000000E+01 0. -1.
        -13    1    4    4    0    0 -0.13477029374E+01 -0.45845525620E+02 -0.91691280619E+01  0.46772870684E+02  0.00000000000E+00 0.  1.
         14    1    4    4    0    0 -0.49001535277E+02  0.12760009588E+02 -0.32561815849E+02  0.60201662399E+02  0.00000000000E+00 0. -1.
         -5    1    5    5    0  502 -0.37808645475E+02  0.19104015834E+02 -0.44313366650E+01  0.42850715726E+02  0.47000000000E+01 0.  1.
         11    1    6    6    0    0  0.59586158891E+01 -0.75142229981E+02  0.92165457647E+02  0.11906440028E+03  0.00000000000E+00 0. -1.
        -12    1    6    6    0    0  0.44971727252E+02 -0.76030232480E+01  0.13042975012E+02  0.47438185164E+02  0.00000000000E+00 0.  1.
<mgrwt>
<rscale>  2 0.19865807E+03</rscale>
<asrwt>0</asrwt>
<pdfrwt beam="1">  1       21 0.32943451E-01 0.20398354E+03</pdfrwt>
<pdfrwt beam="2">  1       21 0.35445839E-01 0.20398354E+03</pdfrwt>
<totfact> 0.67726262E+04</totfact>
</mgrwt>
</event>
<event>
12    1  0.1050690E-001  0.2092223E+03  0.7546771E-02  0.1142785E+00
         21   -1    0    0  503  502  0.00000000000E+00  0.00000000000E+00  0.16371833621E+03  0.16371833621E+03  0.00000000000E+00 0.  1.
         21   -1    0    0  501  503 -0.00000000000E+00 -0.00000000000E+00 -0.48710184396E+03  0.48710184396E+03  0.00000000000E+00 0. -1.
          6    2    1    2  501    0 -0.11290787344E+03 -0.59186020166E+01 -0.38277109593E+03  0.43621976864E+03  0.17604191813E+03 0.  0.
         24    2    3    3    0    0 -0.12048038304E+03 -0.56473560713E+02 -0.30954333316E+03  0.34679079128E+03  0.82109634387E+02 0.  0.
         -6    2    1    2    0  502  0.11290787344E+03  0.59186020166E+01  0.59387588185E+02  0.21460041153E+03  0.17246226620E+03 0.  0.
        -24    2    5    5    0    0  0.68796813505E+02  0.17876433531E+02  0.10384150443E+03  0.15067063745E+03  0.82861417582E+02 0.  0.
          5    1    3    3  501    0  0.75725095973E+01  0.50554958696E+02 -0.73227762773E+02  0.89428977357E+02  0.47000000000E+01 0. -1.
        -13    1    4    4    0    0 -0.26921178215E+02 -0.26408851696E+02 -0.23733859882E+02  0.44558651116E+02  0.00000000000E+00 0.  1.
         14    1    4    4    0    0 -0.93559204826E+02 -0.30064709017E+02 -0.28580947327E+03  0.30223214017E+03  0.00000000000E+00 0. -1.
         -5    1    5    5    0  502  0.44111059939E+02 -0.11957831515E+02 -0.44453916249E+02  0.63929774075E+02  0.47000000000E+01 0.  1.
         11    1    6    6    0    0  0.29039002730E+02  0.20954294878E+02 -0.36744622142E+01  0.35997886410E+02  0.00000000000E+00 0. -1.
        -12    1    6    6    0    0  0.39757810775E+02 -0.30778613464E+01  0.10751596665E+03  0.11467275105E+03  0.00000000000E+00 0.  1.
<mgrwt>
<rscale>  2 0.20846751E+03</rscale>
<asrwt>0</asrwt>
<pdfrwt beam="1">  1       21 0.25187437E-01 0.20922231E+03</pdfrwt>
<pdfrwt beam="2">  1       21 0.74938744E-01 0.20922231E+03</pdfrwt>
<totfact> 0.23556255E+04</totfact>
</mgrwt>
</event>
<event>
12    1  0.1050690E-001  0.2308266E+03  0.7546771E-02  0.1126238E+00
         21   -1    0    0  501  502  0.00000000000E+00  0.00000000000E+00  0.95228840036E+03  0.95228840036E+03  0.00000000000E+00 0. -1.
         21   -1    0    0  502  503 -0.00000000000E+00 -0.00000000000E+00 -0.55731717667E+02  0.55731717667E+02  0.00000000000E+00 0.  1.
         -6    2    1    2    0  503  0.15061439507E+03 -0.64908282911E+01  0.45854103104E+03  0.51290536375E+03  0.17345088112E+03 0.  0.
        -24    2    3    3    0    0  0.13843724866E+03  0.18863724355E+01  0.46798122795E+03  0.49474861006E+03  0.81248552142E+02 0.  0.
          6    2    1    2  501    0 -0.15061439507E+03  0.64908282911E+01  0.43801565165E+03  0.49511475428E+03  0.17479725958E+03 0.  0.
         24    2    5    5    0    0 -0.34049271966E+02 -0.30128251772E+02  0.10485786628E+03  0.14022803305E+03  0.81250628651E+02 0.  0.
          5    1    5    5  501    0 -0.11656512310E+03  0.36619080063E+02  0.33315778538E+03  0.35488672123E+03  0.47000000000E+01 0. -1.
        -11    1    6    6    0    0 -0.34513407245E+02 -0.54989868780E+02  0.90924879843E+02  0.11172463794E+03  0.00000000000E+00 0.  1.
         12    1    6    6    0    0  0.46413527897E+00  0.24861617008E+02  0.13932986432E+02  0.28503395108E+02  0.00000000000E+00 0. -1.
         -5    1    3    3    0  503  0.12177146410E+02 -0.83772007266E+01 -0.94401969116E+01  0.18156753686E+02  0.47000000000E+01 0.  1.
         13    1    4    4    0    0  0.13974091998E+03 -0.91385656538E+01  0.36128403415E+03  0.38747540752E+03  0.00000000000E+00 0. -1.
        -14    1    4    4    0    0 -0.13036713221E+01  0.11024938089E+02  0.10669719380E+03  0.10727320254E+03  0.00000000000E+00 0.  1.
<mgrwt>
<rscale>  2 0.23057168E+03</rscale>
<asrwt>0</asrwt>
<pdfrwt beam="1">  1       21 0.14650590E+00 0.23082658E+03</pdfrwt>
<pdfrwt beam="2">  1       21 0.85741111E-02 0.23082658E+03</pdfrwt>
<totfact> 0.33070968E+04</totfact>
</mgrwt>
</event>
<event>
12    1  0.1050690E-001  0.2246480E+03  0.7546771E-02  0.1131970E+00
         21   -1    0    0  501  502  0.00000000000E+00  0.00000000000E+00  0.16559565463E+03  0.16559565463E+03  0.00000000000E+00 0. -1.
         21   -1    0    0  502  503 -0.00000000000E+00 -0.00000000000E+00 -0.29819467261E+03  0.29819467261E+03  0.00000000000E+00 0.  1.
         -6    2    1    2    0  503 -0.10710502787E+03  0.94519588382E+02 -0.95587291158E+02  0.24413860241E+03  0.17338191189E+03 0.  0.
        -24    2    3    3    0    0 -0.20063180657E+02 -0.13504493073E+02 -0.50221221519E+02  0.98105538973E+02  0.80731797547E+02 0.  0.
          6    2    1    2  501    0  0.10710502787E+03 -0.94519588382E+02 -0.37011726827E+02  0.21965172483E+03  0.16270086882E+03 0.  0.
         24    2    5    5    0    0  0.11695689847E+03 -0.78349570412E+02 -0.73781524507E+02  0.17802677010E+03  0.80201285710E+02 0.  0.
          5    1    5    5  501    0 -0.98518705930E+01 -0.16170017969E+02  0.36769797680E+02  0.41624954735E+02  0.47000000000E+01 0. -1.
        -13    1    6    6    0    0  0.10784761651E+03 -0.30839544336E+02 -0.40279352748E+02  0.11918310342E+03  0.00000000000E+00 0.  1.
         14    1    6    6    0    0  0.91092819521E+01 -0.47510026077E+02 -0.33502171759E+02  0.58843666677E+02  0.00000000000E+00 0. -1.
         -5    1    3    3    0  503 -0.87041847216E+02  0.10802408145E+03 -0.45366069639E+02  0.14603306343E+03  0.47000000000E+01 0.  1.
         11    1    4    4    0    0 -0.42116318312E+01  0.29090022342E+02  0.12763424563E+01  0.29421017871E+02  0.00000000000E+00 0. -1.
        -12    1    4    4    0    0 -0.15851548826E+02 -0.42594515415E+02 -0.51497563976E+02  0.68684521102E+02  0.00000000000E+00 0.  1.
<mgrwt>
<rscale>  2 0.22258552E+03</rscale>
<asrwt>0</asrwt>
<pdfrwt beam="1">  1       21 0.25476255E-01 0.22464801E+03</pdfrwt>
<pdfrwt beam="2">  1       21 0.45876103E-01 0.22464801E+03</pdfrwt>
<totfact> 0.65615760E+04</totfact>
</mgrwt>
</event>
<event>
12    1  0.1050690E-001  0.1831879E+03  0.7546771E-02  0.1165111E+00
         21   -1    0    0  503  502  0.00000000000E+00  0.00000000000E+00  0.12370870867E+04  0.12370870867E+04  0.00000000000E+00 0.  1.
         21   -1    0    0  501  503 -0.00000000000E+00 -0.00000000000E+00 -0.28930947506E+02  0.28930947506E+02  0.00000000000E+00 0.  1.
          6    2    1    2  501    0 -0.46821937105E+02  0.33672345615E+02  0.76931583655E+03  0.79047769500E+03  0.17228467507E+03 0.  0.
         24    2    3    3    0    0 -0.64778453113E+02  0.55300252089E+02  0.74231609570E+03  0.75121857107E+03  0.77728950303E+02 0.  0.
         -6    2    1    2    0  502  0.46821937105E+02 -0.33672345615E+02  0.43884030259E+03  0.47554033916E+03  0.17387260375E+03 0.  0.
        -24    2    5    5    0    0  0.40789032799E+02  0.12007274468E+02  0.41226755615E+03  0.42214348084E+03  0.80203869736E+02 0.  0.
          5    1    3    3  501    0  0.17956516008E+02 -0.21627906474E+02  0.26999740855E+02  0.39259123931E+02  0.47000000000E+01 0. -1.
        -13    1    4    4    0    0 -0.11910378391E+02  0.56577153397E+02  0.49143247304E+03  0.49482189418E+03  0.00000000000E+00 0.  1.
         14    1    4    4    0    0 -0.52868074722E+02 -0.12769013074E+01  0.25088362266E+03  0.25639667689E+03  0.00000000000E+00 0. -1.
         -5    1    5    5    0  502  0.60329043053E+01 -0.45679620083E+02  0.26572746438E+02  0.53396858321E+02  0.47000000000E+01 0.  1.
         11    1    6    6    0    0  0.36666214334E+02  0.26307846636E+02  0.10221233856E+03  0.11173126788E+03  0.00000000000E+00 0. -1.
        -12    1    6    6    0    0  0.41228184654E+01 -0.14300572168E+02  0.31005521759E+03  0.31041221296E+03  0.00000000000E+00 0.  1.
<mgrwt>
<rscale>  2 0.18281010E+03</rscale>
<asrwt>0</asrwt>
<pdfrwt beam="1">  1       21 0.19032105E+00 0.18318789E+03</pdfrwt>
<pdfrwt beam="2">  1       21 0.44509160E-02 0.18318789E+03</pdfrwt>
<totfact> 0.51129014E+04</totfact>
</mgrwt>
</event>
<event>
12    1  0.1050690E-001  0.2064719E+03  0.7546771E-02  0.1144415E+00
         21   -1    0    0  501  502  0.00000000000E+00  0.00000000000E+00  0.46504597062E+03  0.46504597062E+03  0.00000000000E+00 0. -1.
         21   -1    0    0  502  503 -0.00000000000E+00 -0.00000000000E+00 -0.15235661009E+03  0.15235661009E+03  0.00000000000E+00 0.  1.
         -6    2    1    2    0  503 -0.11080344395E+03  0.19162771574E+01 -0.38541994761E+02  0.21003839135E+03  0.17421126592E+03 0.  0.
        -24    2    3    3    0    0 -0.99021741841E+02  0.49514289631E+02  0.15096046996E+02  0.13721319778E+03  0.79640446847E+02 0.  0.
          6    2    1    2  501    0  0.11080344395E+03 -0.19162771574E+01  0.35123135529E+03  0.40736418935E+03  0.17407194639E+03 0.  0.
         24    2    5    5    0    0  0.13117486493E+02 -0.31988494524E+01  0.69909685492E+02  0.10952503280E+03  0.83222999197E+02 0.  0.
          5    1    5    5  501    0  0.97685957459E+02  0.12825722949E+01  0.28132166980E+03  0.29783915655E+03  0.47000000000E+01 0. -1.
        -11    1    6    6    0    0  0.45433545021E+02  0.13739597950E+02  0.34479448845E+02  0.58666992062E+02  0.00000000000E+00 0.  1.
         12    1    6    6    0    0 -0.32316058528E+02 -0.16938447403E+02  0.35430236647E+02  0.50858040741E+02  0.00000000000E+00 0. -1.
         -5    1    3    3    0  503 -0.11781702110E+02 -0.47598012474E+02 -0.53638041758E+02  0.72825193578E+02  0.47000000000E+01 0.  1.
         11    1    4    4    0    0 -0.69414534751E+00  0.18125418468E+02  0.27824997056E+02  0.33215103395E+02  0.00000000000E+00 0. -1.
        -12    1    4    4    0    0 -0.98327596494E+02  0.31388871163E+02 -0.12728950060E+02  0.10399809438E+03  0.00000000000E+00 0.  1.
<mgrwt>
<rscale>  2 0.20644250E+03</rscale>
<asrwt>0</asrwt>
<pdfrwt beam="1">  1       21 0.71545533E-01 0.20647189E+03</pdfrwt>
<pdfrwt beam="2">  1       21 0.23439479E-01 0.20647189E+03</pdfrwt>
<totfact> 0.30002626E+04</totfact>
</mgrwt>
</event>
<event>
12    1  0.1050690E-001  0.3161899E+03  0.7546771E-02  0.1078339E+00
         21   -1    0    0  501  502  0.00000000000E+00  0.00000000000E+00  0.13004284953E+03  0.13004284953E+03  0.00000000000E+00 0. -1.
         21   -1    0    0  502  503 -0.00000000000E+00 -0.00000000000E+00 -0.75958434024E+03  0.75958434024E+03  0.00000000000E+00 0.  1.
         -6    2    1    2    0  503 -0.24841390996E+03  0.62046830218E+02 -0.26860068465E+03  0.41487631490E+03  0.18551751688E+03 0.  0.
        -24    2    3    3    0    0 -0.22008663167E+03  0.13894327280E+02 -0.14262906350E+03  0.27699216944E+03  0.88036551525E+02 0.  0.
          6    2    1    2  501    0  0.24841390996E+03 -0.62046830218E+02 -0.36094080606E+03  0.47475087486E+03  0.17190360061E+03 0.  0.
         24    2    5    5    0    0  0.41549758479E+02 -0.20355536816E+02 -0.13772999506E+03  0.16754394580E+03  0.83430761284E+02 0.  0.
          5    1    5    5  501    0  0.20686415148E+03 -0.41691293402E+02 -0.22321081100E+03  0.30720692906E+03  0.47000000000E+01 0. -1.
        -11    1    6    6    0    0 -0.11674209739E+02  0.23611593442E+02 -0.36308255172E+02  0.44856258332E+02  0.00000000000E+00 0.  1.
         12    1    6    6    0    0  0.53223968218E+02 -0.43967130258E+02 -0.10142173988E+03  0.12268768747E+03  0.00000000000E+00 0. -1.
         -5    1    3    3    0  503 -0.28327278287E+02  0.48152502937E+02 -0.12597162115E+03  0.13788414546E+03  0.47000000000E+01 0.  1.
         11    1    4    4    0    0 -0.75708226556E+02  0.47280506740E+02 -0.53269434754E+02  0.10394620996E+03  0.00000000000E+00 0. -1.
        -12    1    4    4    0    0 -0.14437840511E+03 -0.33386179460E+02 -0.89359628747E+02  0.17304595948E+03  0.00000000000E+00 0.  1.
<mgrwt>
<rscale>  2 0.31422396E+03</rscale>
<asrwt>0</asrwt>
<pdfrwt beam="1">  1       21 0.20006592E-01 0.31618986E+03</pdfrwt>
<pdfrwt beam="2">  1       21 0.11685913E+00 0.31618986E+03</pdfrwt>
<totfact> 0.12148488E+04</totfact>
</mgrwt>
</event>
<event>
12    1  0.1050690E-001  0.2234029E+03  0.7546771E-02  0.1131617E+00
         21   -1    0    0  501  502  0.00000000000E+00  0.00000000000E+00  0.24560722366E+04  0.24560722366E+04  0.00000000000E+00 0. -1.
         21   -1    0    0  502  503 -0.00000000000E+00 -0.00000000000E+00 -0.20338297750E+02  0.20338297750E+02  0.00000000000E+00 0. -1.
         -6    2    1    2    0  503 -0.19630130380E+02 -0.13730828117E+03  0.13241180455E+04  0.13428318835E+04  0.17512841872E+03 0.  0.
        -24    2    3    3    0    0 -0.57463101207E+01 -0.87910657282E+02  0.12268876268E+04  0.12327922087E+04  0.82231851983E+02 0.  0.
          6    2    1    2  501    0  0.19630130380E+02  0.13730828117E+03  0.11116158933E+04  0.11335786508E+04  0.17341210176E+03 0.  0.
         24    2    5    5    0    0  0.46566899037E+01  0.13539718782E+03  0.56084534029E+03  0.58258123851E+03  0.80618363354E+02 0.  0.
          5    1    5    5  501    0  0.14973440477E+02  0.19110933465E+01  0.55077055304E+03  0.55099741224E+03  0.47000000000E+01 0. -1.
        -11    1    6    6    0    0  0.11652633142E+02  0.10110629965E+02  0.11919363369E+02  0.19495638500E+02  0.00000000000E+00 0.  1.
         12    1    6    6    0    0 -0.69959432378E+01  0.12528655786E+03  0.54892597692E+03  0.56308560001E+03  0.00000000000E+00 0. -1.
         -5    1    3    3    0  503 -0.13883820260E+02 -0.49397623886E+02  0.97230418715E+02  0.11003967482E+03  0.47000000000E+01 0.  1.
         13    1    4    4    0    0  0.35574533659E+02 -0.61439423598E+02  0.67259781490E+03  0.67633436318E+03  0.00000000000E+00 0. -1.
        -14    1    4    4    0    0 -0.41320843780E+02 -0.26471233684E+02  0.55428981186E+03  0.55645784555E+03  0.00000000000E+00 0.  1.
<mgrwt>
<rscale>  2 0.22306645E+03</rscale>
<asrwt>0</asrwt>
<pdfrwt beam="1">  1       21 0.37785703E+00 0.22340293E+03</pdfrwt>
<pdfrwt beam="2">  1       21 0.31289708E-02 0.22340293E+03</pdfrwt>
<totfact> 0.67754318E+03</totfact>
</mgrwt>
</event>
<event>
12    1  0.1050690E-001  0.2393563E+03  0.7546771E-02  0.1120288E+00
         21   -1    0    0  501  502  0.00000000000E+00  0.00000000000E+00  0.13084198521E+04  0.13084198521E+04  0.00000000000E+00 0. -1.
         21   -1    0    0  502  503 -0.00000000000E+00 -0.00000000000E+00 -0.51958987768E+02  0.51958987768E+02  0.00000000000E+00 0. -1.
         -6    2    1    2    0  503 -0.10877887636E+02 -0.16568488828E+03  0.35686293589E+03  0.42948257940E+03  0.17185552173E+03 0.  0.
        -24    2    3    3    0    0  0.12892991600E+01 -0.39597005810E+02  0.24636554321E+03  0.26132206581E+03  0.77612215772E+02 0.  0.
          6    2    1    2  501    0  0.10877887636E+02  0.16568488828E+03  0.89959792847E+03  0.93089626050E+03  0.17239954832E+03 0.  0.
         24    2    5    5    0    0 -0.24852303705E+02  0.42360585487E+02  0.22315761415E+03  0.24236222425E+03  0.80796477583E+02 0.  0.
          5    1    5    5  501    0  0.35730191341E+02  0.12332430279E+03  0.67644031432E+03  0.68853403625E+03  0.47000000000E+01 0. -1.
        -11    1    6    6    0    0 -0.11145341328E+01  0.46557874089E+02  0.53203611061E+02  0.70707157035E+02  0.00000000000E+00 0.  1.
         12    1    6    6    0    0 -0.23737769572E+02 -0.41972886021E+01  0.16995400309E+03  0.17165506722E+03  0.00000000000E+00 0. -1.
         -5    1    3    3    0  503 -0.12167186796E+02 -0.12608788247E+03  0.11049739268E+03  0.16816051359E+03  0.47000000000E+01 0.  1.
         11    1    4    4    0    0 -0.22369310443E+01 -0.28500508186E+02  0.20552878398E+02  0.35209425411E+02  0.00000000000E+00 0. -1.
        -12    1    4    4    0    0  0.35262302043E+01 -0.11096497624E+02  0.22581266481E+03  0.22611264040E+03  0.00000000000E+00 0.  1.
<mgrwt>
<rscale>  2 0.23925830E+03</rscale>
<asrwt>0</asrwt>
<pdfrwt beam="1">  1       21 0.20129534E+00 0.23935625E+03</pdfrwt>
<pdfrwt beam="2">  1       21 0.79936914E-02 0.23935625E+03</pdfrwt>
<totfact> 0.15295961E+04</totfact>
</mgrwt>
</event>
<event>
12    1  0.1050690E-001  0.2135815E+03  0.7546771E-02  0.1139098E+00
         21   -1    0    0  503  502  0.00000000000E+00  0.00000000000E+00  0.70464074444E+02  0.70464074444E+02  0.00000000000E+00 0. -1.
         21   -1    0    0  501  503 -0.00000000000E+00 -0.00000000000E+00 -0.69119400275E+03  0.69119400275E+03  0.00000000000E+00 0.  1.
          6    2    1    2  501    0  0.89317423773E+02  0.84576964147E+02 -0.20772728034E+03  0.29669759371E+03  0.17247601011E+03 0.  0.
         24    2    3    3    0    0  0.69589314759E+02  0.12576106904E+03 -0.17418105791E+03  0.23984015954E+03  0.80782064729E+02 0.  0.
         -6    2    1    2    0  502 -0.89317423773E+02 -0.84576964147E+02 -0.41300264797E+03  0.46496048348E+03  0.17460297511E+03 0.  0.
        -24    2    5    5    0    0 -0.11671102327E+03 -0.60500703946E+02 -0.39358489768E+03  0.42337665700E+03  0.84005499091E+02 0.  0.
          5    1    3    3  501    0  0.19728109014E+02 -0.41184104891E+02 -0.33546222431E+02  0.56857434169E+02  0.47000000000E+01 0. -1.
        -11    1    4    4    0    0  0.90725614204E+01  0.31143336921E+02 -0.10027165092E+03  0.10538796318E+03  0.00000000000E+00 0.  1.
         12    1    4    4    0    0  0.60516753338E+02  0.94617732117E+02 -0.73909406991E+02  0.13445219637E+03  0.00000000000E+00 0. -1.
         -5    1    5    5    0  502  0.27393599502E+02 -0.24076260201E+02 -0.19417750293E+02  0.41583826488E+02  0.47000000000E+01 0.  1.
         13    1    6    6    0    0 -0.95700821627E+02 -0.17387160587E+02 -0.18132855668E+03  0.20576930305E+03  0.00000000000E+00 0. -1.
        -14    1    6    6    0    0 -0.21010201648E+02 -0.43113543359E+02 -0.21225634100E+03  0.21760735394E+03  0.00000000000E+00 0.  1.
<mgrwt>
<rscale>  2 0.21314637E+03</rscale>
<asrwt>0</asrwt>
<pdfrwt beam="1">  1       21 0.10840626E-01 0.21358152E+03</pdfrwt>
<pdfrwt beam="2">  1       21 0.10633754E+00 0.21358152E+03</pdfrwt>
<totfact> 0.49315960E+04</totfact>
</mgrwt>
</event>
<event>
12    1  0.1050690E-001  0.1855758E+03  0.7546771E-02  0.1163191E+00
         21   -1    0    0  501  502  0.00000000000E+00  0.00000000000E+00  0.17889163212E+03  0.17889163212E+03  0.00000000000E+00 0. -1.
         21   -1    0    0  502  503 -0.00000000000E+00 -0.00000000000E+00 -0.21450895838E+03  0.21450895838E+03  0.00000000000E+00 0. -1.
         -6    2    1    2    0  503 -0.62666628988E+02 -0.95348086230E+01 -0.84813169760E+02  0.20141464277E+03  0.17133757788E+03 0.  0.
        -24    2    3    3    0    0  0.16644272477E+02  0.10844282003E+02  0.50145111954E+01  0.79773248942E+02  0.77097312961E+02 0.  0.
          6    2    1    2  501    0  0.62666628988E+02  0.95348086230E+01  0.49195843508E+02  0.19198594773E+03  0.17441431749E+03 0.  0.
         24    2    5    5    0    0  0.10812645433E+03 -0.11051694331E+02  0.39009565187E+02  0.14083665556E+03  0.80621010293E+02 0.  0.
          5    1    5    5  501    0 -0.45459825338E+02  0.20586502954E+02  0.10186278321E+02  0.51149292172E+02  0.47000000000E+01 0. -1.
        -11    1    6    6    0    0  0.51076405518E+02  0.17486379335E+02 -0.16314518157E+02  0.56398015618E+02  0.00000000000E+00 0.  1.
         12    1    6    6    0    0  0.57050048808E+02 -0.28538073666E+02  0.55324083344E+02  0.84438639943E+02  0.00000000000E+00 0. -1.
         -5    1    3    3    0  503 -0.79310901466E+02 -0.20379090626E+02 -0.89827680955E+02  0.12164139383E+03  0.47000000000E+01 0.  1.
         13    1    4    4    0    0  0.26737253224E+02 -0.18969712272E+02 -0.21004982184E+02  0.38935073779E+02  0.00000000000E+00 0. -1.
        -14    1    4    4    0    0 -0.10092980746E+02  0.29813994274E+02  0.26019493380E+02  0.40838175163E+02  0.00000000000E+00 0.  1.
<mgrwt>
<rscale>  2 0.18484937E+03</rscale>
<asrwt>0</asrwt>
<pdfrwt beam="1">  1       21 0.27521790E-01 0.18557579E+03</pdfrwt>
<pdfrwt beam="2">  1       21 0.33001378E-01 0.18557579E+03</pdfrwt>
<totfact> 0.11162882E+05</totfact>
</mgrwt>
</event>
<event>
12    1  0.1050690E-001  0.1859586E+03  0.7546771E-02  0.1163127E+00
         21   -1    0    0  501  502  0.00000000000E+00  0.00000000000E+00  0.10867906809E+03  0.10867906809E+03  0.00000000000E+00 0.  1.
         21   -1    0    0  502  503 -0.00000000000E+00 -0.00000000000E+00 -0.33930340931E+03  0.33930340931E+03  0.00000000000E+00 0.  1.
         -6    2    1    2    0  503 -0.41413783639E+02 -0.37056847485E+02 -0.17862440662E+03  0.25489032326E+03  0.17313025972E+03 0.  0.
        -24    2    3    3    0    0  0.36862009460E+02 -0.43750820114E+02 -0.12651428671E+03  0.16050036801E+03  0.80508144862E+02 0.  0.
          6    2    1    2  501    0  0.41413783639E+02  0.37056847485E+02 -0.51999934592E+02  0.19309215413E+03  0.17746063047E+03 0.  0.
         24    2    5    5    0    0 -0.48304918273E+01  0.50199901781E+02  0.26917496790E+02  0.10056473190E+03  0.82736629600E+02 0.  0.
          5    1    5    5  501    0  0.46244275466E+02 -0.13143054296E+02 -0.78917431382E+02  0.92527422235E+02  0.47000000000E+01 0. -1.
        -13    1    6    6    0    0  0.22059711638E+02 -0.13078764726E+02  0.17777852855E+02  0.31204759515E+02  0.00000000000E+00 0.  1.
         14    1    6    6    0    0 -0.26890203465E+02  0.63278666507E+02  0.91396439353E+01  0.69359972380E+02  0.00000000000E+00 0. -1.
         -5    1    3    3    0  503 -0.78275793099E+02  0.66939726284E+01 -0.52110119918E+02  0.94389955253E+02  0.47000000000E+01 0.  1.
         11    1    4    4    0    0  0.11210324830E+02 -0.51420192341E+02 -0.30509193156E+02  0.60831886623E+02  0.00000000000E+00 0. -1.
        -12    1    4    4    0    0  0.25651684631E+02  0.76693722271E+01 -0.96005093550E+02  0.99668481388E+02  0.00000000000E+00 0.  1.
<mgrwt>
<rscale>  2 0.18491789E+03</rscale>
<asrwt>0</asrwt>
<pdfrwt beam="1">  1       21 0.16719857E-01 0.18595856E+03</pdfrwt>
<pdfrwt beam="2">  1       21 0.52200524E-01 0.18595856E+03</pdfrwt>
<totfact> 0.11227450E+05</totfact>
</mgrwt>
</event>
<event>
12    1  0.1050690E-001  0.1965916E+03  0.7546771E-02  0.1152689E+00
         21   -1    0    0  501  502  0.00000000000E+00  0.00000000000E+00  0.10216907239E+03  0.10216907239E+03  0.00000000000E+00 0. -1.
         21   -1    0    0  502  503 -0.00000000000E+00 -0.00000000000E+00 -0.40359821927E+03  0.40359821927E+03  0.00000000000E+00 0. -1.
         -6    2    1    2    0  503  0.44218018400E+02 -0.79065349896E+02 -0.21444859253E+03  0.29079313170E+03  0.17425809565E+03 0.  0.
        -24    2    3    3    0    0  0.16800014327E+02 -0.89637518955E+02 -0.64159498814E+02  0.13758601896E+03  0.80599913388E+02 0.  0.
          6    2    1    2  501    0 -0.44218018400E+02  0.79065349896E+02 -0.86980554362E+02  0.21497415996E+03  0.17447552811E+03 0.  0.
         24    2    5    5    0    0 -0.63266538427E+02  0.95318239381E+02 -0.15345852245E+02  0.13894375105E+03  0.77341121866E+02 0.  0.
          5    1    5    5  501    0  0.19048520027E+02 -0.16252889485E+02 -0.71634702117E+02  0.76030408911E+02  0.47000000000E+01 0. -1.
        -11    1    6    6    0    0  0.12224760303E+02  0.24977440222E+02 -0.22127581291E+02  0.35537967560E+02  0.00000000000E+00 0.  1.
         12    1    6    6    0    0 -0.75491298730E+02  0.70340799159E+02  0.67817290457E+01  0.10340578349E+03  0.00000000000E+00 0. -1.
         -5    1    3    3    0  503  0.27418004073E+02  0.10572169059E+02 -0.15028909371E+03  0.15320711274E+03  0.47000000000E+01 0. -1.
         11    1    4    4    0    0 -0.13374231992E+02 -0.82989472818E+02 -0.24988734736E+02  0.87695835384E+02  0.00000000000E+00 0. -1.
        -12    1    4    4    0    0  0.30174246319E+02 -0.66480461372E+01 -0.39170764078E+02  0.49890183571E+02  0.00000000000E+00 0.  1.
<mgrwt>
<rscale>  2 0.19654338E+03</rscale>
<asrwt>0</asrwt>
<pdfrwt beam="1">  1       21 0.15718319E-01 0.19659164E+03</pdfrwt>
<pdfrwt beam="2">  1       21 0.62092033E-01 0.19659164E+03</pdfrwt>
<totfact> 0.86550418E+04</totfact>
</mgrwt>
</event>
<event>
12    1  0.1050690E-001  0.1811288E+03  0.7546771E-02  0.1166745E+00
         21   -1    0    0  503  502  0.00000000000E+00  0.00000000000E+00  0.21308489572E+03  0.21308489572E+03  0.00000000000E+00 0. -1.
         21   -1    0    0  501  503 -0.00000000000E+00 -0.00000000000E+00 -0.48453205041E+03  0.48453205041E+03  0.00000000000E+00 0. -1.
          6    2    1    2  501    0 -0.41708878547E+02 -0.28531375567E+02 -0.42389288141E+03  0.46096943548E+03  0.17393669995E+03 0.  0.
         24    2    3    3    0    0  0.33016194498E+02  0.20208275857E+02 -0.24704219420E+03  0.26283401278E+03  0.80953252210E+02 0.  0.
         -6    2    1    2    0  502  0.41708878547E+02  0.28531375567E+02  0.15244572673E+03  0.23664751065E+03  0.17380642899E+03 0.  0.
        -24    2    5    5    0    0 -0.31086263956E+02 -0.35920483304E+01  0.18285451870E+02  0.80595863802E+02  0.71986643857E+02 0.  0.
          5    1    3    3  501    0 -0.74725073045E+02 -0.48739651424E+02 -0.17685068721E+03  0.19813542270E+03  0.47000000000E+01 0. -1.
        -11    1    4    4    0    0 -0.12116286503E+02  0.29592498138E+02 -0.17057688445E+03  0.17354824647E+03  0.00000000000E+00 0.  1.
         12    1    4    4    0    0  0.45132481001E+02 -0.93842222808E+01 -0.76465309756E+02  0.89285766308E+02  0.00000000000E+00 0. -1.
         -5    1    5    5    0  502  0.72795142503E+02  0.32123423897E+02  0.13416027486E+03  0.15605164685E+03  0.47000000000E+01 0.  1.
         13    1    6    6    0    0 -0.29773977089E+02  0.26270810620E+02  0.28643801858E+02  0.48960316454E+02  0.00000000000E+00 0. -1.
        -14    1    6    6    0    0 -0.13122868675E+01 -0.29862858951E+02 -0.10358349989E+02  0.31635547348E+02  0.00000000000E+00 0.  1.
<mgrwt>
<rscale>  2 0.18109753E+03</rscale>
<asrwt>0</asrwt>
<pdfrwt beam="1">  1       21 0.32782292E-01 0.18112881E+03</pdfrwt>
<pdfrwt beam="2">  1       21 0.74543392E-01 0.18112881E+03</pdfrwt>
<totfact> 0.14543363E+04</totfact>
</mgrwt>
</event>
<event>
12    1  0.1050690E-001  0.2071961E+03  0.7546771E-02  0.1144003E+00
         21   -1    0    0  501  502  0.00000000000E+00  0.00000000000E+00  0.42719154687E+02  0.42719154687E+02  0.00000000000E+00 0.  1.
         21   -1    0    0  502  503 -0.00000000000E+00 -0.00000000000E+00 -0.13415268151E+04  0.13415268151E+04  0.00000000000E+00 0.  1.
         -6    2    1    2    0  503  0.79561104050E+02  0.79916903475E+02 -0.99736775413E+03  0.10184642954E+04  0.17265689461E+03 0.  0.
        -24    2    3    3    0    0 -0.19625825809E+02  0.12206421352E+02 -0.43205497074E+03  0.44051672899E+03  0.82760624770E+02 0.  0.
          6    2    1    2  501    0 -0.79561104050E+02 -0.79916903475E+02 -0.30143990633E+03  0.36578167445E+03  0.17382041162E+03 0.  0.
         24    2    5    5    0    0  0.10308215810E+02  0.85684268484E+01 -0.87164514238E+02  0.11710079060E+03  0.77040673452E+02 0.  0.
          5    1    5    5  501    0 -0.89869319860E+02 -0.88485330323E+02 -0.21427539209E+03  0.24868088385E+03  0.47000000000E+01 0. -1.
        -11    1    6    6    0    0  0.18106288635E+02 -0.25151341189E+02 -0.10056357477E+02  0.32581558855E+02  0.00000000000E+00 0.  1.
         12    1    6    6    0    0 -0.77980728246E+01  0.33719768038E+02 -0.77108156761E+02  0.84519231749E+02  0.00000000000E+00 0. -1.
         -5    1    3    3    0  503  0.99186929859E+02  0.67710482123E+02 -0.56531278338E+03  0.57794756640E+03  0.47000000000E+01 0.  1.
         11    1    4    4    0    0  0.12094902196E+02 -0.81394544754E+01 -0.12302161485E+02  0.19075653475E+02  0.00000000000E+00 0. -1.
        -12    1    4    4    0    0 -0.31720728005E+02  0.20345875827E+02 -0.41975280926E+03  0.42144107551E+03  0.00000000000E+00 0.  1.
<mgrwt>
<rscale>  2 0.20695187E+03</rscale>
<asrwt>0</asrwt>
<pdfrwt beam="1">  1       21 0.65721779E-02 0.20719608E+03</pdfrwt>
<pdfrwt beam="2">  1       21 0.20638873E+00 0.20719608E+03</pdfrwt>
<totfact> 0.20392169E+04</totfact>
</mgrwt>
</event>
<event>
12    1  0.1050690E-001  0.2844827E+03  0.7546771E-02  0.1093463E+00
         21   -1    0    0  503  502  0.00000000000E+00  0.00000000000E+00  0.13713547186E+03  0.13713547186E+03  0.00000000000E+00 0.  1.
         21   -1    0    0  501  503 -0.00000000000E+00 -0.00000000000E+00 -0.64624953925E+03  0.64624953925E+03  0.00000000000E+00 0.  1.
          6    2    1    2  501    0  0.99481861588E+02  0.20035713825E+03 -0.13665988923E+03  0.31560473420E+03  0.17575778587E+03 0.  0.
         24    2    3    3    0    0  0.40125717055E+02  0.74155964225E+02  0.47322752973E+01  0.11694995221E+03  0.80905603594E+02 0.  0.
         -6    2    1    2    0  502 -0.99481861588E+02 -0.20035713825E+03 -0.37245417817E+03  0.46778027691E+03  0.17336853520E+03 0.  0.
        -24    2    5    5    0    0 -0.35971742334E+02 -0.13984221741E+03 -0.13160582377E+03  0.21141021097E+03  0.80773587496E+02 0.  0.
          5    1    3    3  501    0  0.59356144533E+02  0.12620117403E+03 -0.14139216452E+03  0.19865478199E+03  0.47000000000E+01 0. -1.
        -11    1    4    4    0    0  0.68831050175E+01 -0.15551113691E+02 -0.10631212615E+02  0.20055845865E+02  0.00000000000E+00 0.  1.
         12    1    4    4    0    0  0.33242612038E+02  0.89707077916E+02  0.15363487913E+02  0.96894106344E+02  0.00000000000E+00 0. -1.
         -5    1    5    5    0  502 -0.63510119254E+02 -0.60514920842E+02 -0.24084835440E+03  0.25637006594E+03  0.47000000000E+01 0.  1.
         11    1    6    6    0    0  0.74042564329E+01 -0.95589268086E+02 -0.10968529749E+03  0.14568114385E+03  0.00000000000E+00 0. -1.
        -12    1    6    6    0    0 -0.43375998767E+02 -0.44252949326E+02 -0.21920526274E+02  0.65729067126E+02  0.00000000000E+00 0.  1.
<mgrwt>
<rscale>  2 0.28411454E+03</rscale>
<asrwt>0</asrwt>
<pdfrwt beam="1">  1       21 0.21097765E-01 0.28448273E+03</pdfrwt>
<pdfrwt beam="2">  1       21 0.99423005E-01 0.28448273E+03</pdfrwt>
<totfact> 0.16535372E+04</totfact>
</mgrwt>
</event>
<event>
12    1  0.1050690E-001  0.2003351E+03  0.7546771E-02  0.1150527E+00
         21   -1    0    0  501  502  0.00000000000E+00  0.00000000000E+00  0.85690622792E+03  0.85690622792E+03  0.00000000000E+00 0. -1.
         21   -1    0    0  502  503 -0.00000000000E+00 -0.00000000000E+00 -0.14201028567E+03  0.14201028567E+03  0.00000000000E+00 0.  1.
         -6    2    1    2    0  503 -0.19899063215E+02  0.91310236256E+02 -0.55378136835E+02  0.20301683397E+03  0.17150966408E+03 0.  0.
        -24    2    3    3    0    0 -0.41807784505E+02  0.10313460190E+03  0.50437082168E+01  0.13749815685E+03  0.80595702067E+02 0.  0.
          6    2    1    2  501    0  0.19899063215E+02 -0.91310236256E+02  0.77027407909E+03  0.79589967962E+03  0.17720217592E+03 0.  0.
         24    2    5    5    0    0  0.52200033614E+01  0.23675828762E+02  0.36157706416E+03  0.37105546117E+03  0.79726963025E+02 0.  0.
          5    1    5    5  501    0  0.14679059853E+02 -0.11498606502E+03  0.40869701492E+03  0.42484421845E+03  0.47000000000E+01 0. -1.
        -13    1    6    6    0    0 -0.91242591385E+00 -0.72383720759E+01 -0.77378207640E+00  0.73365720919E+01  0.00000000000E+00 0.  1.
         14    1    6    6    0    0  0.61324292753E+01  0.30914200838E+02  0.36235084624E+03  0.36371888908E+03  0.00000000000E+00 0. -1.
         -5    1    3    3    0  503  0.21908721290E+02 -0.11824365643E+02 -0.60421845052E+02  0.65518677115E+02  0.47000000000E+01 0.  1.
         13    1    4    4    0    0  0.22369310326E+00  0.91904198488E+02 -0.75278996902E+01  0.92212260638E+02  0.00000000000E+00 0. -1.
        -14    1    4    4    0    0 -0.42031477608E+02  0.11230403411E+02  0.12571607907E+02  0.45285896216E+02  0.00000000000E+00 0.  1.
<mgrwt>
<rscale>  2 0.19906884E+03</rscale>
<asrwt>0</asrwt>
<pdfrwt beam="1">  1       21 0.13183172E+00 0.20033508E+03</pdfrwt>
<pdfrwt beam="2">  1       21 0.21847737E-01 0.20033508E+03</pdfrwt>
<totfact> 0.81125266E+03</totfact>
</mgrwt>
</event>
<event>
12    1  0.1050690E-001  0.2650956E+03  0.7546771E-02  0.1105328E+00
         21   -1    0    0  503  502  0.00000000000E+00  0.00000000000E+00  0.74392065154E+03  0.74392065154E+03  0.00000000000E+00 0.  1.
         21   -1    0    0  501  503 -0.00000000000E+00 -0.00000000000E+00 -0.91959920773E+02  0.91959920773E+02  0.00000000000E+00 0. -1.
          6    2    1    2  501    0  0.17461273397E+03  0.73963037961E+02  0.34711028595E+03  0.43188867564E+03  0.17344203551E+03 0.  0.
         24    2    3    3    0    0  0.68794833639E+02 -0.26686398448E+02  0.13865350327E+03  0.17732226520E+03  0.82301268320E+02 0.  0.
         -6    2    1    2    0  502 -0.17461273397E+03 -0.73963037961E+02  0.30485044481E+03  0.40399189667E+03  0.18524448986E+03 0.  0.
        -24    2    5    5    0    0 -0.97211990023E+02 -0.12013926603E+03  0.20650175752E+03  0.27050903824E+03  0.81538639077E+02 0.  0.
          5    1    3    3  501    0  0.10581790033E+03  0.10064943641E+03  0.20845678268E+03  0.25456641044E+03  0.47000000000E+01 0. -1.
        -11    1    4    4    0    0  0.43829597641E+02 -0.10380568660E+02  0.14040448539E+03  0.14745239690E+03  0.00000000000E+00 0.  1.
         12    1    4    4    0    0  0.24965235997E+02 -0.16305829788E+02 -0.17509821168E+01  0.29869868293E+02  0.00000000000E+00 0. -1.
         -5    1    5    5    0  502 -0.77400743950E+02  0.46176228074E+02  0.98348687292E+02  0.13348285843E+03  0.47000000000E+01 0.  1.
         13    1    6    6    0    0 -0.22185299793E+02 -0.78899440017E+02  0.62863058663E+02  0.10329120634E+03  0.00000000000E+00 0. -1.
        -14    1    6    6    0    0 -0.75026690230E+02 -0.41239826017E+02  0.14363869886E+03  0.16721783190E+03  0.00000000000E+00 0.  1.
<mgrwt>
<rscale>  2 0.26304473E+03</rscale>
<asrwt>0</asrwt>
<pdfrwt beam="1">  1       21 0.11444933E+00 0.26509557E+03</pdfrwt>
<pdfrwt beam="2">  1       21 0.14147681E-01 0.26509557E+03</pdfrwt>
<totfact> 0.24894741E+04</totfact>
</mgrwt>
</event>
<event>
12    1  0.1050690E-001  0.2969844E+03  0.7546771E-02  0.1086980E+00
         21   -1    0    0  503  502  0.00000000000E+00  0.00000000000E+00  0.31304877518E+03  0.31304877518E+03  0.00000000000E+00 0. -1.
         21   -1    0    0  501  503 -0.00000000000E+00 -0.00000000000E+00 -0.35368575348E+03  0.35368575348E+03  0.00000000000E+00 0. -1.
          6    2    1    2  501    0 -0.17796646543E+03  0.16315157208E+03 -0.17234119791E+03  0.34185646502E+03  0.16992308814E+03 0.  0.
         24    2    3    3    0    0 -0.11227660129E+03  0.18060759919E+03 -0.13525246276E+03  0.26428369010E+03  0.79545584964E+02 0.  0.
         -6    2    1    2    0  502  0.17796646543E+03 -0.16315157208E+03  0.13170421962E+03  0.32487806364E+03  0.17294292839E+03 0.  0.
        -24    2    5    5    0    0  0.16464359864E+03 -0.60305132887E+02  0.77658965275E+02  0.20784017084E+03  0.80139865868E+02 0.  0.
          5    1    3    3  501    0 -0.65689864141E+02 -0.17456027105E+02 -0.37088735157E+02  0.77572774920E+02  0.47000000000E+01 0. -1.
        -13    1    4    4    0    0 -0.29540195233E+02  0.12961679002E+01 -0.18181122922E+02  0.34711041707E+02  0.00000000000E+00 0.  1.
         14    1    4    4    0    0 -0.82736406055E+02  0.17931143129E+03 -0.11707133983E+03  0.22957264839E+03  0.00000000000E+00 0. -1.
         -5    1    5    5    0  502  0.13322866789E+02 -0.10284643920E+03  0.54045254344E+02  0.11703789280E+03  0.47000000000E+01 0.  1.
         13    1    6    6    0    0  0.54342315450E+02 -0.33855165805E+02 -0.95871945264E+01  0.64739275552E+02  0.00000000000E+00 0. -1.
        -14    1    6    6    0    0  0.11030128319E+03 -0.26449967083E+02  0.87246159801E+02  0.14310089529E+03  0.00000000000E+00 0.  1.
<mgrwt>
<rscale>  2 0.29654638E+03</rscale>
<asrwt>0</asrwt>
<pdfrwt beam="1">  1       21 0.48161350E-01 0.29698444E+03</pdfrwt>
<pdfrwt beam="2">  1       21 0.54413192E-01 0.29698444E+03</pdfrwt>
<totfact> 0.12418754E+04</totfact>
</mgrwt>
</event>
<event>
12    1  0.1050690E-001  0.2449530E+03  0.7546771E-02  0.1116661E+00
         21   -1    0    0  501  502  0.00000000000E+00  0.00000000000E+00  0.12141596368E+03  0.12141596368E+03  0.00000000000E+00 0. -1.
         21   -1    0    0  502  503 -0.00000000000E+00 -0.00000000000E+00 -0.63882967306E+03  0.63882967306E+03  0.00000000000E+00 0.  1.
         -6    2    1    2    0  503 -0.16776466952E+03 -0.39215028515E+02 -0.44085376982E+03  0.50433520678E+03  0.17412395479E+03 0.  0.
        -24    2    3    3    0    0 -0.15101299722E+03 -0.80376795872E+02 -0.28633608496E+03  0.34348523148E+03  0.82026800839E+02 0.  0.
          6    2    1    2  501    0  0.16776466952E+03  0.39215028515E+02 -0.76559939557E+02  0.25591042996E+03  0.17304889776E+03 0.  0.
         24    2    5    5    0    0  0.58038305829E+02 -0.16337217047E+02 -0.84047048958E+02  0.13260563004E+03  0.82975882496E+02 0.  0.
          5    1    5    5  501    0  0.10972636369E+03  0.55552245561E+02  0.74871094014E+01  0.12330479992E+03  0.47000000000E+01 0. -1.
        -11    1    6    6    0    0  0.70951517121E+02  0.11484689431E+02 -0.60133261782E+02  0.93712459394E+02  0.00000000000E+00 0.  1.
         12    1    6    6    0    0 -0.12913211293E+02 -0.27821906478E+02 -0.23913787176E+02  0.38893170648E+02  0.00000000000E+00 0. -1.
         -5    1    3    3    0  503 -0.16751672300E+02  0.41161767357E+02 -0.15451768487E+03  0.16084997530E+03  0.47000000000E+01 0.  1.
         11    1    4    4    0    0 -0.97350544591E+02 -0.73354418584E+02 -0.25048129941E+03  0.27856575636E+03  0.00000000000E+00 0. -1.
        -12    1    4    4    0    0 -0.53662452626E+02 -0.70223772872E+01 -0.35854785544E+02  0.64919475129E+02  0.00000000000E+00 0.  1.
<mgrwt>
<rscale>  2 0.24476198E+03</rscale>
<asrwt>0</asrwt>
<pdfrwt beam="1">  1       21 0.18679379E-01 0.24495296E+03</pdfrwt>
<pdfrwt beam="2">  1       21 0.98281490E-01 0.24495296E+03</pdfrwt>
<totfact> 0.21773930E+04</totfact>
</mgrwt>
</event>
<event>
12    1  0.1050690E-001  0.2037027E+03  0.7546771E-02  0.1146814E+00
         21   -1    0    0  503  502  0.00000000000E+00  0.00000000000E+00  0.65138791275E+02  0.65138791275E+02  0.00000000000E+00 0. -1.
         21   -1    0    0  501  503 -0.00000000000E+00 -0.00000000000E+00 -0.64299886775E+03  0.64299886775E+03  0.00000000000E+00 0. -1.
          6    2    1    2  501    0 -0.72500268688E+02 -0.79577838853E+02 -0.24895083916E+03  0.32166957890E+03  0.17293315551E+03 0.  0.
         24    2    3    3    0    0  0.29782042017E+02 -0.48067456575E+02 -0.11693009107E+03  0.15165151162E+03  0.78282082062E+02 0.  0.
         -6    2    1    2    0  502  0.72500268688E+02  0.79577838853E+02 -0.32890923731E+03  0.38646808012E+03  0.17200979381E+03 0.  0.
        -24    2    5    5    0    0  0.10410101815E+03  0.30561139530E+02 -0.17142073598E+03  0.21846224025E+03  0.81053540711E+02 0.  0.
          5    1    3    3  501    0 -0.10228231070E+03 -0.31510382279E+02 -0.13202074809E+03  0.17001806728E+03  0.47000000000E+01 0. -1.
        -13    1    4    4    0    0 -0.10034009857E+02 -0.77706814465E+01  0.76344524345E+01  0.14810459410E+02  0.00000000000E+00 0.  1.
         14    1    4    4    0    0  0.39816051874E+02 -0.40296775128E+02 -0.12456454350E+03  0.13684105221E+03  0.00000000000E+00 0. -1.
         -5    1    5    5    0  502 -0.31600749462E+02  0.49016699324E+02 -0.15748850133E+03  0.16800583987E+03  0.47000000000E+01 0.  1.
         11    1    6    6    0    0  0.64123887595E+02  0.55276552296E+02 -0.13345723103E+03  0.15804493889E+03  0.00000000000E+00 0. -1.
        -12    1    6    6    0    0  0.39977130555E+02 -0.24715412766E+02 -0.37963504946E+02  0.60417301358E+02  0.00000000000E+00 0.  1.
<mgrwt>
<rscale>  2 0.20350661E+03</rscale>
<asrwt>0</asrwt>
<pdfrwt beam="1">  1       21 0.10021352E-01 0.20370272E+03</pdfrwt>
<pdfrwt beam="2">  1       21 0.98922905E-01 0.20370272E+03</pdfrwt>
<totfact> 0.67730918E+04</totfact>
</mgrwt>
</event>
<event>
12    1  0.1050690E-001  0.1821398E+03  0.7546771E-02  0.1165921E+00
         21   -1    0    0  503  502  0.00000000000E+00  0.00000000000E+00  0.54461722546E+02  0.54461722546E+02  0.00000000000E+00 0. -1.
         21   -1    0    0  501  503 -0.00000000000E+00 -0.00000000000E+00 -0.68014224296E+03  0.68014224296E+03  0.00000000000E+00 0. -1.
          6    2    1    2  501    0  0.34571924830E+02 -0.47781943539E+02 -0.19271740979E+03  0.26516957623E+03  0.17232693349E+03 0.  0.
         24    2    3    3    0    0 -0.16423778123E+02 -0.13982580862E+02 -0.18614397917E+03  0.20345848625E+03  0.79249741891E+02 0.  0.
         -6    2    1    2    0  502 -0.34571924830E+02  0.47781943539E+02 -0.43296311063E+03  0.46943438928E+03  0.17156123851E+03 0.  0.
        -24    2    5    5    0    0  0.38612276807E+02  0.61345673764E+02 -0.20107473799E+03  0.22584824536E+03  0.72953273149E+02 0.  0.
          5    1    3    3  501    0  0.50995702953E+02 -0.33799362676E+02 -0.65734306245E+01  0.61711089986E+02  0.47000000000E+01 0. -1.
        -11    1    4    4    0    0  0.11534406206E+02 -0.39478726418E+02 -0.68710082718E+02  0.80079259694E+02  0.00000000000E+00 0.  1.
         12    1    4    4    0    0 -0.27958184329E+02  0.25496145555E+02 -0.11743389645E+03  0.12337922655E+03  0.00000000000E+00 0. -1.
         -5    1    5    5    0  502 -0.73184201637E+02 -0.13563730226E+02 -0.23188837263E+03  0.24358614392E+03  0.47000000000E+01 0.  1.
         13    1    6    6    0    0  0.30589191187E+01 -0.14838574680E+02 -0.57570003212E+02  0.59530207076E+02  0.00000000000E+00 0. -1.
        -14    1    6    6    0    0  0.35553357688E+02  0.76184248444E+02 -0.14350473478E+03  0.16631803828E+03  0.00000000000E+00 0.  1.
<mgrwt>
<rscale>  2 0.18195845E+03</rscale>
<asrwt>0</asrwt>
<pdfrwt beam="1">  1       21 0.83787266E-02 0.18213979E+03</pdfrwt>
<pdfrwt beam="2">  1       21 0.10463727E+00 0.18213979E+03</pdfrwt>
<totfact> 0.81935675E+04</totfact>
</mgrwt>
</event>
<event>
12    1  0.1050690E-001  0.1869836E+03  0.7546771E-02  0.1161647E+00
         21   -1    0    0  501  502  0.00000000000E+00  0.00000000000E+00  0.72490912851E+03  0.72490912851E+03  0.00000000000E+00 0.  1.
         21   -1    0    0  502  503 -0.00000000000E+00 -0.00000000000E+00 -0.57665390338E+02  0.57665390338E+02  0.00000000000E+00 0.  1.
         -6    2    1    2    0  503  0.46467073367E+02  0.43181761470E+02  0.17273335109E+03  0.25455777425E+03  0.17589484478E+03 0.  0.
        -24    2    3    3    0    0  0.83860519040E+02  0.30209681904E+02  0.17721957901E+03  0.21444841289E+03  0.81462451900E+02 0.  0.
          6    2    1    2  501    0 -0.46467073367E+02 -0.43181761470E+02  0.49451038708E+03  0.52801674460E+03  0.17388877542E+03 0.  0.
         24    2    5    5    0    0 -0.15500583074E+02  0.40810751676E+02  0.17148310060E+03  0.19278192600E+03  0.76502494570E+02 0.  0.
          5    1    5    5  501    0 -0.30966490293E+02 -0.83992513145E+02  0.32302728649E+03  0.33523481860E+03  0.47000000000E+01 0. -1.
        -13    1    6    6    0    0 -0.43922302879E+02  0.83968692259E+01  0.79983485479E+02  0.91635331900E+02  0.00000000000E+00 0.  1.
         14    1    6    6    0    0  0.28421719805E+02  0.32413882450E+02  0.91499615118E+02  0.10114659410E+03  0.00000000000E+00 0. -1.
         -5    1    3    3    0  503 -0.37393445673E+02  0.12972079566E+02 -0.44862279269E+01  0.40109361358E+02  0.47000000000E+01 0.  1.
         13    1    4    4    0    0  0.87780719873E+02 -0.24342650948E+01  0.12588565420E+03  0.15348803980E+03  0.00000000000E+00 0. -1.
        -14    1    4    4    0    0 -0.39202008335E+01  0.32643946998E+02  0.51333924816E+02  0.60960373090E+02  0.00000000000E+00 0.  1.
<mgrwt>
<rscale>  2 0.18651030E+03</rscale>
<asrwt>0</asrwt>
<pdfrwt beam="1">  1       21 0.11152447E+00 0.18698356E+03</pdfrwt>
<pdfrwt beam="2">  1       21 0.88715991E-02 0.18698356E+03</pdfrwt>
<totfact> 0.63450563E+04</totfact>
</mgrwt>
</event>
<event>
12    1  0.1050690E-001  0.2048614E+03  0.7546771E-02  0.1146261E+00
         21   -1    0    0  501  502  0.00000000000E+00  0.00000000000E+00  0.77953278984E+03  0.77953278984E+03  0.00000000000E+00 0. -1.
         21   -1    0    0  502  503 -0.00000000000E+00 -0.00000000000E+00 -0.62393757689E+02  0.62393757689E+02  0.00000000000E+00 0.  1.
         -6    2    1    2    0  503 -0.99767091431E+02 -0.29782290462E+02  0.19428096861E+03  0.28036733952E+03  0.17326365154E+03 0.  0.
        -24    2    3    3    0    0 -0.49490707167E+01 -0.72595603974E+02  0.10022333068E+03  0.14003784825E+03  0.65354937932E+02 0.  0.
          6    2    1    2  501    0  0.99767091431E+02  0.29782290462E+02  0.52285806354E+03  0.56155920801E+03  0.17643053063E+03 0.  0.
         24    2    5    5    0    0  0.54423578083E+02  0.87478699532E+02  0.34690473083E+03  0.37085898485E+03  0.81111316416E+02 0.  0.
          5    1    5    5  501    0  0.45343513348E+02 -0.57696409070E+02  0.17595333271E+03  0.19070022316E+03  0.47000000000E+01 0. -1.
        -11    1    6    6    0    0  0.25370073216E+02  0.95943860827E+01  0.20401238372E+02  0.33939702215E+02  0.00000000000E+00 0.  1.
         12    1    6    6    0    0  0.29053504867E+02  0.77884313449E+02  0.32650349246E+03  0.33691928264E+03  0.00000000000E+00 0. -1.
         -5    1    3    3    0  503 -0.94818020714E+02  0.42813313512E+02  0.94057637934E+02  0.14032949127E+03  0.47000000000E+01 0.  1.
         11    1    4    4    0    0  0.25065145115E+02 -0.54878824763E+02  0.78359295605E+02  0.98894520145E+02  0.00000000000E+00 0. -1.
        -12    1    4    4    0    0 -0.30014215832E+02 -0.17716779211E+02  0.21864035072E+02  0.41143328101E+02  0.00000000000E+00 0.  1.
<mgrwt>
<rscale>  2 0.20417773E+03</rscale>
<asrwt>0</asrwt>
<pdfrwt beam="1">  1       21 0.11992812E+00 0.20486139E+03</pdfrwt>
<pdfrwt beam="2">  1       21 0.95990402E-02 0.20486139E+03</pdfrwt>
<totfact> 0.45826100E+04</totfact>
</mgrwt>
</event>
<event>
12    1  0.1050690E-001  0.2328536E+03  0.7546771E-02  0.1124958E+00
         21   -1    0    0  503  502  0.00000000000E+00  0.00000000000E+00  0.29808328701E+03  0.29808328701E+03  0.00000000000E+00 0. -1.
         21   -1    0    0  501  503 -0.00000000000E+00 -0.00000000000E+00 -0.18154397232E+03  0.18154397232E+03  0.00000000000E+00 0.  1.
          6    2    1    2  501    0 -0.29962657569E+02 -0.15097975562E+03  0.40332912795E+02  0.23632080499E+03  0.17472301383E+03 0.  0.
         24    2    3    3    0    0  0.50790453285E+02 -0.70142744763E+02  0.28414803075E+02  0.12134333513E+03  0.80106985702E+02 0.  0.
         -6    2    1    2    0  502  0.29962657569E+02  0.15097975562E+03  0.76206401897E+02  0.24330645434E+03  0.17233098264E+03 0.  0.
        -24    2    5    5    0    0 -0.89015080605E+01  0.82889349250E+02  0.10753122451E+03  0.15874841911E+03  0.81781509279E+02 0.  0.
          5    1    3    3  501    0 -0.80753110854E+02 -0.80837010856E+02  0.11918109721E+02  0.11497746986E+03  0.47000000000E+01 0. -1.
        -11    1    4    4    0    0  0.23522468923E+02 -0.83272136525E+02  0.13409860002E+02  0.87563574681E+02  0.00000000000E+00 0.  1.
         12    1    4    4    0    0  0.27267984362E+02  0.13129391762E+02  0.15004943073E+02  0.33779760447E+02  0.00000000000E+00 0. -1.
         -5    1    5    5    0  502  0.38864165629E+02  0.68090406369E+02 -0.31324822614E+02  0.84558035227E+02  0.47000000000E+01 0.  1.
         11    1    6    6    0    0 -0.10330446655E+01  0.63183250064E+02  0.16546398367E+02  0.65322075662E+02  0.00000000000E+00 0. -1.
        -12    1    6    6    0    0 -0.78684633951E+01  0.19706099186E+02  0.90984826145E+02  0.93426343448E+02  0.00000000000E+00 0.  1.
<mgrwt>
<rscale>  2 0.23240490E+03</rscale>
<asrwt>0</asrwt>
<pdfrwt beam="1">  1       21 0.45858967E-01 0.23285356E+03</pdfrwt>
<pdfrwt beam="2">  1       21 0.27929842E-01 0.23285356E+03</pdfrwt>
<totfact> 0.54799796E+04</totfact>
</mgrwt>
</event>
<event>
12    1  0.1050690E-001  0.2338926E+03  0.7546771E-02  0.1124083E+00
         21   -1    0    0  503  502  0.00000000000E+00  0.00000000000E+00  0.45207873318E+03  0.45207873318E+03  0.00000000000E+00 0.  1.
         21   -1    0    0  501  503 -0.00000000000E+00 -0.00000000000E+00 -0.17206855068E+03  0.17206855068E+03  0.00000000000E+00 0. -1.
          6    2    1    2  501    0  0.76429129300E+02 -0.13679951786E+03 -0.30940927463E+02  0.23505044781E+03  0.17244086560E+03 0.  0.
         24    2    3    3    0    0  0.10299494816E+02 -0.10935398116E+02  0.19753482425E+02  0.84030851761E+02  0.80282759384E+02 0.  0.
         -6    2    1    2    0  502 -0.76429129300E+02  0.13679951786E+03  0.31095110996E+03  0.38909683606E+03  0.17363823067E+03 0.  0.
        -24    2    5    5    0    0 -0.33933389386E+02  0.31551775596E+02  0.24487454080E+02  0.80930498988E+02  0.61669447870E+02 0.  0.
          5    1    3    3  501    0  0.66129634485E+02 -0.12586411974E+03 -0.50694409888E+02  0.15101959605E+03  0.47000000000E+01 0. -1.
        -11    1    4    4    0    0 -0.30250816653E+02  0.76390985784E+01 -0.70603532142E+01  0.31989315760E+02  0.00000000000E+00 0.  1.
         12    1    4    4    0    0  0.40550311469E+02 -0.18574496695E+02  0.26813835639E+02  0.52041536001E+02  0.00000000000E+00 0. -1.
         -5    1    5    5    0  502 -0.42495739914E+02  0.10524774226E+03  0.28646365588E+03  0.30816633707E+03  0.47000000000E+01 0.  1.
         11    1    6    6    0    0 -0.79022856307E+01 -0.18266752938E+02  0.12357582165E+02  0.23427125689E+02  0.00000000000E+00 0. -1.
        -12    1    6    6    0    0 -0.26031103755E+02  0.49818528535E+02  0.12129871916E+02  0.57503373299E+02  0.00000000000E+00 0.  1.
<mgrwt>
<rscale>  2 0.23367042E+03</rscale>
<asrwt>0</asrwt>
<pdfrwt beam="1">  1       21 0.69550574E-01 0.23389261E+03</pdfrwt>
<pdfrwt beam="2">  1       21 0.26472085E-01 0.23389261E+03</pdfrwt>
<totfact> 0.24946391E+04</totfact>
</mgrwt>
</event>
<event>
12    1  0.1050690E-001  0.2623577E+03  0.7546771E-02  0.1105912E+00
         21   -1    0    0  503  502  0.00000000000E+00  0.00000000000E+00  0.45101560143E+02  0.45101560143E+02  0.00000000000E+00 0. -1.
         21   -1    0    0  501  503 -0.00000000000E+00 -0.00000000000E+00 -0.15991139807E+04  0.15991139807E+04  0.00000000000E+00 0. -1.
          6    2    1    2  501    0  0.11175307751E+03  0.16264811329E+03 -0.96240984798E+03  0.99752908553E+03  0.17288262460E+03 0.  0.
         24    2    3    3    0    0  0.85478210686E+02  0.17711852755E+03 -0.65661020292E+03  0.69022585672E+03  0.81223625878E+02 0.  0.
         -6    2    1    2    0  502 -0.11175307751E+03 -0.16264811329E+03 -0.59160257260E+03  0.64668645534E+03  0.17107486234E+03 0.  0.
        -24    2    5    5    0    0 -0.14693185872E+03 -0.13663365041E+03 -0.47135623337E+03  0.51864126401E+03  0.80958856603E+02 0.  0.
          5    1    3    3  501    0  0.26274866825E+02 -0.14470414260E+02 -0.30579964507E+03  0.30730322881E+03  0.47000000000E+01 0. -1.
        -13    1    4    4    0    0  0.14474135677E+02  0.11962066694E+03 -0.40481700876E+03  0.42236881412E+03  0.00000000000E+00 0.  1.
         14    1    4    4    0    0  0.71004075008E+02  0.57497860613E+02 -0.25179319416E+03  0.26785704259E+03  0.00000000000E+00 0. -1.
         -5    1    5    5    0  502  0.35178781205E+02 -0.26014462885E+02 -0.12024633923E+03  0.12804519134E+03  0.47000000000E+01 0.  1.
         11    1    6    6    0    0 -0.11723115689E+03 -0.55000478522E+02 -0.28153269196E+03  0.30988522621E+03  0.00000000000E+00 0. -1.
        -12    1    6    6    0    0 -0.29700701828E+02 -0.81633171884E+02 -0.18982354142E+03  0.20875603780E+03  0.00000000000E+00 0.  1.
<mgrwt>
<rscale>  2 0.26206027E+03</rscale>
<asrwt>0</asrwt>
<pdfrwt beam="1">  1       21 0.69387022E-02 0.26235770E+03</pdfrwt>
<pdfrwt beam="2">  1       21 0.24601751E+00 0.26235770E+03</pdfrwt>
<totfact> 0.10181206E+04</totfact>
</mgrwt>
</event>
<event>
12    1  0.1050690E-001  0.3298379E+03  0.7546771E-02  0.1071340E+00
         21   -1    0    0  503  502  0.00000000000E+00  0.00000000000E+00  0.43238997296E+03  0.43238997296E+03  0.00000000000E+00 0.  1.
         21   -1    0    0  501  503 -0.00000000000E+00 -0.00000000000E+00 -0.27196997979E+03  0.27196997979E+03  0.00000000000E+00 0. -1.
          6    2    1    2  501    0  0.23860387524E+03 -0.14818941861E+03  0.17855475354E+03  0.37402391072E+03  0.17064633811E+03 0.  0.
         24    2    3    3    0    0  0.12092058199E+03 -0.75232460311E+01  0.80263489361E+02  0.16589031845E+03  0.79993647554E+02 0.  0.
         -6    2    1    2    0  502 -0.23860387524E+03  0.14818941861E+03 -0.18134760367E+02  0.33033604203E+03  0.17291939759E+03 0.  0.
        -24    2    5    5    0    0 -0.23615242280E+03  0.10200532507E+03  0.19269137103E+02  0.27066928694E+03  0.81960417979E+02 0.  0.
          5    1    3    3  501    0  0.11768329324E+03 -0.14066617258E+03  0.98291264180E+02  0.20813359227E+03  0.47000000000E+01 0. -1.
        -13    1    4    4    0    0  0.62479930200E+02 -0.43446436263E+02  0.35461882198E+02  0.83957605914E+02  0.00000000000E+00 0.  1.
         14    1    4    4    0    0  0.58440651793E+02  0.35923190231E+02  0.44801607163E+02  0.81932712532E+02  0.00000000000E+00 0. -1.
         -5    1    5    5    0  502 -0.24514524374E+01  0.46184093549E+02 -0.37403897470E+02  0.59666755082E+02  0.47000000000E+01 0.  1.
         13    1    6    6    0    0 -0.45373052300E+02  0.25194927619E+02 -0.28954955831E+02  0.59429687193E+02  0.00000000000E+00 0. -1.
        -14    1    6    6    0    0 -0.19077937050E+03  0.76810397446E+02  0.48224092934E+02  0.21123959975E+03  0.00000000000E+00 0.  1.
<mgrwt>
<rscale>  2 0.32954099E+03</rscale>
<asrwt>0</asrwt>
<pdfrwt beam="1">  1       21 0.66521534E-01 0.32983789E+03</pdfrwt>
<pdfrwt beam="2">  1       21 0.41841535E-01 0.32983789E+03</pdfrwt>
<totfact> 0.10598033E+04</totfact>
</mgrwt>
</event>
<event>
12    1  0.1050690E-001  0.1859515E+03  0.7546771E-02  0.1162391E+00
         21   -1    0    0  501  502  0.00000000000E+00  0.00000000000E+00  0.48832094229E+02  0.48832094229E+02  0.00000000000E+00 0.  1.
         21   -1    0    0  502  503 -0.00000000000E+00 -0.00000000000E+00 -0.89363351857E+03  0.89363351857E+03  0.00000000000E+00 0.  1.
         -6    2    1    2    0  503 -0.38817951143E+02 -0.55211131425E+02 -0.64013007690E+03  0.66659168679E+03  0.17327105697E+03 0.  0.
        -24    2    3    3    0    0  0.31379187706E+02 -0.28185657585E+01 -0.26439701002E+03  0.28075487312E+03  0.89022031756E+02 0.  0.
          6    2    1    2  501    0  0.38817951143E+02  0.55211131425E+02 -0.20467134744E+03  0.27587392601E+03  0.17222357627E+03 0.  0.
         24    2    5    5    0    0 -0.35019325708E+02  0.63444626895E+02 -0.97786900751E+02  0.14561990939E+03  0.79945645271E+02 0.  0.
          5    1    5    5  501    0  0.73837276851E+02 -0.82334954700E+01 -0.10688444669E+03  0.13025401662E+03  0.47000000000E+01 0. -1.
        -11    1    6    6    0    0 -0.44743157034E+01  0.74759317403E+02 -0.61978877090E+02  0.97212942785E+02  0.00000000000E+00 0.  1.
         12    1    6    6    0    0 -0.30545010005E+02 -0.11314690509E+02 -0.35808023660E+02  0.48406966606E+02  0.00000000000E+00 0. -1.
         -5    1    3    3    0  503 -0.70197138849E+02 -0.52392565666E+02 -0.37573306688E+03  0.38583681367E+03  0.47000000000E+01 0.  1.
         11    1    4    4    0    0  0.54188784997E+02 -0.14633238787E+02 -0.23547438273E+03  0.24207176832E+03  0.00000000000E+00 0. -1.
        -12    1    4    4    0    0 -0.22809597291E+02  0.11814673028E+02 -0.28922627296E+02  0.38683104801E+02  0.00000000000E+00 0.  1.
<mgrwt>
<rscale>  2 0.18570711E+03</rscale>
<asrwt>0</asrwt>
<pdfrwt beam="1">  1       21 0.75126299E-02 0.18595150E+03</pdfrwt>
<pdfrwt beam="2">  1       21 0.13748208E+00 0.18595150E+03</pdfrwt>
<totfact> 0.50371180E+04</totfact>
</mgrwt>
</event>
<event>
12    1  0.1050690E-001  0.1965755E+03  0.7546771E-02  0.1152800E+00
         21   -1    0    0  503  502  0.00000000000E+00  0.00000000000E+00  0.14479414737E+03  0.14479414737E+03  0.00000000000E+00 0.  1.
         21   -1    0    0  501  503 -0.00000000000E+00 -0.00000000000E+00 -0.29722239664E+03  0.29722239664E+03  0.00000000000E+00 0.  1.
          6    2    1    2  501    0  0.55354462564E+02 -0.75659652651E+02 -0.14773224596E+03  0.24538495476E+03  0.17204784207E+03 0.  0.
         24    2    3    3    0    0  0.57637959455E+02 -0.10877044531E+03 -0.15203048834E+03  0.21158992797E+03  0.80646661984E+02 0.  0.
         -6    2    1    2    0  502 -0.55354462564E+02  0.75659652651E+02 -0.46960033035E+01  0.19663158924E+03  0.17278145119E+03 0.  0.
        -24    2    5    5    0    0 -0.36865025642E+02 -0.22257813184E+02  0.21220002514E+02  0.93561619074E+02  0.80305963002E+02 0.  0.
          5    1    3    3  501    0 -0.22834968909E+01  0.33110792657E+02  0.42982423775E+01  0.33795026793E+02  0.47000000000E+01 0. -1.
        -11    1    4    4    0    0  0.75405049239E+02 -0.96039647403E+02 -0.11060298091E+03  0.16474997636E+03  0.00000000000E+00 0.  1.
         12    1    4    4    0    0 -0.17767089784E+02 -0.12730797905E+02 -0.41427507429E+02  0.46839951606E+02  0.00000000000E+00 0. -1.
         -5    1    5    5    0  502 -0.18489436922E+02  0.97917465834E+02 -0.25916005817E+02  0.10306997017E+03  0.47000000000E+01 0.  1.
         11    1    6    6    0    0  0.12834731842E+02  0.89902663298E+01 -0.17302800019E+02  0.23343995344E+02  0.00000000000E+00 0. -1.
        -12    1    6    6    0    0 -0.49699757484E+02 -0.31248079514E+02  0.38522802533E+02  0.70217623730E+02  0.00000000000E+00 0.  1.
<mgrwt>
<rscale>  2 0.19641418E+03</rscale>
<asrwt>0</asrwt>
<pdfrwt beam="1">  1       21 0.22276023E-01 0.19657551E+03</pdfrwt>
<pdfrwt beam="2">  1       21 0.45726522E-01 0.19657551E+03</pdfrwt>
<totfact> 0.86310270E+04</totfact>
</mgrwt>
</event>
<event>
12    1  0.1050690E-001  0.2050526E+03  0.7546771E-02  0.1146349E+00
         21   -1    0    0  503  502  0.00000000000E+00  0.00000000000E+00  0.22248778866E+03  0.22248778866E+03  0.00000000000E+00 0.  1.
         21   -1    0    0  501  503 -0.00000000000E+00 -0.00000000000E+00 -0.24849945508E+03  0.24849945508E+03  0.00000000000E+00 0.  1.
          6    2    1    2  501    0  0.10811047655E+03 -0.19977968866E+02 -0.13156744217E+03  0.24036070967E+03  0.16845261807E+03 0.  0.
         24    2    3    3    0    0  0.23924472728E+02  0.41100079450E+02 -0.87060529656E+02  0.12713188610E+03  0.79507129952E+02 0.  0.
         -6    2    1    2    0  502 -0.10811047655E+03  0.19977968866E+02  0.10555577575E+03  0.23062653408E+03  0.17308836485E+03 0.  0.
        -24    2    5    5    0    0 -0.96191931102E+02 -0.17350962623E+02  0.13214172318E+03  0.18304078566E+03  0.80551540626E+02 0.  0.
          5    1    3    3  501    0  0.84186003818E+02 -0.61078048316E+02 -0.44506912516E+02  0.11322882357E+03  0.47000000000E+01 0. -1.
        -11    1    4    4    0    0  0.20501677557E+02 -0.21476858490E+02 -0.32717874128E+02  0.44181823420E+02  0.00000000000E+00 0.  1.
         12    1    4    4    0    0  0.34227951716E+01  0.62576937941E+02 -0.54342655528E+02  0.82950062680E+02  0.00000000000E+00 0. -1.
         -5    1    5    5    0  502 -0.11918545444E+02  0.37328931489E+02 -0.26585947430E+02  0.47585748417E+02  0.47000000000E+01 0.  1.
         11    1    6    6    0    0  0.44634418891E+01  0.11140375199E+01  0.54223838763E+02  0.54418637279E+02  0.00000000000E+00 0. -1.
        -12    1    6    6    0    0 -0.10065537299E+03 -0.18465000143E+02  0.77917884414E+02  0.12862214838E+03  0.00000000000E+00 0.  1.
<mgrwt>
<rscale>  2 0.20407116E+03</rscale>
<asrwt>0</asrwt>
<pdfrwt beam="1">  1       21 0.34228891E-01 0.20505262E+03</pdfrwt>
<pdfrwt beam="2">  1       21 0.38230685E-01 0.20505262E+03</pdfrwt>
<totfact> 0.53946330E+04</totfact>
</mgrwt>
</event>
<event>
12    1  0.1050690E-001  0.1897789E+03  0.7546771E-02  0.1158846E+00
         21   -1    0    0  503  502  0.00000000000E+00  0.00000000000E+00  0.24434085765E+03  0.24434085765E+03  0.00000000000E+00 0. -1.
         21   -1    0    0  501  503 -0.00000000000E+00 -0.00000000000E+00 -0.14704545984E+03  0.14704545984E+03  0.00000000000E+00 0.  1.
          6    2    1    2  501    0  0.64396764193E+02 -0.39237465180E+02  0.57300785143E+02  0.19824081200E+03  0.17415371846E+03 0.  0.
         24    2    3    3    0    0  0.95548478687E+02  0.13375610107E+02  0.27089990470E+02  0.12987892846E+03  0.82621121689E+02 0.  0.
         -6    2    1    2    0  502 -0.64396764193E+02  0.39237465180E+02  0.39994612672E+02  0.19314550548E+03  0.17326019547E+03 0.  0.
        -24    2    5    5    0    0 -0.68901382871E+02  0.87999091304E+02  0.42449805035E+02  0.14388999065E+03  0.80069362623E+02 0.  0.
          5    1    3    3  501    0 -0.31151714494E+02 -0.52613075287E+02  0.30210794673E+02  0.68361883545E+02  0.47000000000E+01 0. -1.
        -13    1    4    4    0    0  0.10579543914E+03  0.98375552354E+01  0.63073573994E+01  0.10643888008E+03  0.00000000000E+00 0.  1.
         14    1    4    4    0    0 -0.10246960450E+02  0.35380548714E+01  0.20782633071E+02  0.23440048381E+02  0.00000000000E+00 0. -1.
         -5    1    5    5    0  502  0.45046186773E+01 -0.48761626123E+02 -0.24551923627E+01  0.49255514830E+02  0.47000000000E+01 0.  1.
         13    1    6    6    0    0 -0.52554422750E+02  0.10257996973E+02  0.35284427047E+02  0.64126317878E+02  0.00000000000E+00 0. -1.
        -14    1    6    6    0    0 -0.16346960120E+02  0.77741094331E+02  0.71653779872E+01  0.79763672775E+02  0.00000000000E+00 0.  1.
<mgrwt>
<rscale>  2 0.18957368E+03</rscale>
<asrwt>0</asrwt>
<pdfrwt beam="1">  1       21 0.37590901E-01 0.18977892E+03</pdfrwt>
<pdfrwt beam="2">  1       21 0.22622378E-01 0.18977892E+03</pdfrwt>
<totfact> 0.12511476E+05</totfact>
</mgrwt>
</event>
<event>
12    1  0.1050690E-001  0.1728624E+03  0.7546771E-02  0.1175008E+00
         21   -1    0    0  503  502  0.00000000000E+00  0.00000000000E+00  0.26297047170E+03  0.26297047170E+03  0.00000000000E+00 0.  1.
         21   -1    0    0  501  503 -0.00000000000E+00 -0.00000000000E+00 -0.18649730673E+03  0.18649730673E+03  0.00000000000E+00 0.  1.
          6    2    1    2  501    0  0.50067932459E+01 -0.99207289449E+01 -0.10254667702E+03  0.20061136629E+03  0.17206280968E+03 0.  0.
         24    2    3    3    0    0  0.10734732766E+02 -0.68994999155E+02 -0.38268445676E+02  0.11299652898E+03  0.80176039010E+02 0.  0.
         -6    2    1    2    0  502 -0.50067932459E+01  0.99207289449E+01  0.17901984199E+03  0.24885641214E+03  0.17250484397E+03 0.  0.
        -24    2    5    5    0    0 -0.41228481831E+02 -0.48687001691E+02  0.10543540515E+03  0.14794240836E+03  0.81854258796E+02 0.  0.
          5    1    3    3  501    0 -0.57279395198E+01  0.59074270210E+02 -0.64278231345E+02  0.87614837310E+02  0.47000000000E+01 0. -1.
        -13    1    4    4    0    0 -0.31866952089E+02 -0.24051001655E+02  0.51546017403E+00  0.39927672300E+02  0.00000000000E+00 0.  1.
         14    1    4    4    0    0  0.42601684855E+02 -0.44943997500E+02 -0.38783905850E+02  0.73068856681E+02  0.00000000000E+00 0. -1.
         -5    1    5    5    0  502  0.36221688585E+02  0.58607730636E+02  0.73584436844E+02  0.10091400378E+03  0.47000000000E+01 0.  1.
         11    1    6    6    0    0 -0.47021822767E+02 -0.31852560990E+02  0.19297033341E+02  0.59983438996E+02  0.00000000000E+00 0. -1.
        -12    1    6    6    0    0  0.57933409360E+01 -0.16834440700E+02  0.86138371809E+02  0.87958969360E+02  0.00000000000E+00 0.  1.
<mgrwt>
<rscale>  2 0.17275202E+03</rscale>
<asrwt>0</asrwt>
<pdfrwt beam="1">  1       21 0.40456996E-01 0.17286240E+03</pdfrwt>
<pdfrwt beam="2">  1       21 0.28691893E-01 0.17286240E+03</pdfrwt>
<totfact> 0.68997952E+04</totfact>
</mgrwt>
</event>
<event>
12    1  0.1050690E-001  0.3227534E+03  0.7546771E-02  0.1074392E+00
         21   -1    0    0  503  502  0.00000000000E+00  0.00000000000E+00  0.24301566692E+03  0.24301566692E+03  0.00000000000E+00 0.  1.
         21   -1    0    0  501  503 -0.00000000000E+00 -0.00000000000E+00 -0.69135117725E+03  0.69135117725E+03  0.00000000000E+00 0. -1.
          6    2    1    2  501    0 -0.19170738410E+03 -0.19370314569E+03 -0.51217669503E+03  0.60538806341E+03  0.17290780959E+03 0.  0.
         24    2    3    3    0    0 -0.18105546759E+03 -0.10685023799E+03 -0.29347379235E+03  0.36978258694E+03  0.80088944970E+02 0.  0.
         -6    2    1    2    0  502  0.19170738410E+03  0.19370314569E+03  0.63841184706E+02  0.32897878076E+03  0.17285459657E+03 0.  0.
        -24    2    5    5    0    0  0.10657912851E+03  0.98093400653E+02  0.10234787999E+03  0.19521444012E+03  0.81560794540E+02 0.  0.
          5    1    3    3  501    0 -0.10651916513E+02 -0.86852907706E+02 -0.21870290268E+03  0.23560547647E+03  0.47000000000E+01 0. -1.
        -11    1    4    4    0    0 -0.81095946916E+02 -0.13047972987E+02 -0.15210728485E+03  0.17286823973E+03  0.00000000000E+00 0.  1.
         12    1    4    4    0    0 -0.99959520669E+02 -0.93802264998E+02 -0.14136650751E+03  0.19691434721E+03  0.00000000000E+00 0. -1.
         -5    1    5    5    0  502  0.85128255585E+02  0.95609745038E+02 -0.38506695282E+02  0.13376434064E+03  0.47000000000E+01 0.  1.
         13    1    6    6    0    0  0.39817329215E+02  0.75127152389E+02  0.21155311944E+02  0.87618810511E+02  0.00000000000E+00 0. -1.
        -14    1    6    6    0    0  0.66761799299E+02  0.22966248264E+02  0.81192568043E+02  0.10759562961E+03  0.00000000000E+00 0.  1.
<mgrwt>
<rscale>  2 0.32274625E+03</rscale>
<asrwt>0</asrwt>
<pdfrwt beam="1">  1       21 0.37387026E-01 0.32275337E+03</pdfrwt>
<pdfrwt beam="2">  1       21 0.10636172E+00 0.32275337E+03</pdfrwt>
<totfact> 0.45028395E+03</totfact>
</mgrwt>
</event>
<event>
12    1  0.1050690E-001  0.2603973E+03  0.7546771E-02  0.1107002E+00
         21   -1    0    0  501  502  0.00000000000E+00  0.00000000000E+00  0.76719249921E+02  0.76719249921E+02  0.00000000000E+00 0.  1.
         21   -1    0    0  502  503 -0.00000000000E+00 -0.00000000000E+00 -0.88303520812E+03  0.88303520812E+03  0.00000000000E+00 0. -1.
         -6    2    1    2    0  503  0.13923184198E+03 -0.13577557343E+03 -0.38352402472E+03  0.46320658036E+03  0.17218927490E+03 0.  0.
        -24    2    3    3    0    0  0.40121154093E+02 -0.35163159764E+02 -0.69213779192E+02  0.11859258372E+03  0.80171683734E+02 0.  0.
          6    2    1    2  501    0 -0.13923184198E+03  0.13577557343E+03 -0.42279193348E+03  0.49654787768E+03  0.17316542280E+03 0.  0.
         24    2    5    5    0    0 -0.44460908946E+01  0.67444966568E+02 -0.13502833722E+03  0.17148442563E+03  0.81275243099E+02 0.  0.
          5    1    5    5  501    0 -0.13478575109E+03  0.68330606858E+02 -0.28776359626E+03  0.32506345205E+03  0.47000000000E+01 0. -1.
        -13    1    6    6    0    0 -0.37579815481E+02  0.14054886473E+02 -0.34406927620E+02  0.52854697366E+02  0.00000000000E+00 0.  1.
         14    1    6    6    0    0  0.33133724587E+02  0.53390080095E+02 -0.10062140960E+03  0.11862972826E+03  0.00000000000E+00 0. -1.
         -5    1    3    3    0  503  0.99110687889E+02 -0.10061241366E+03 -0.31431024552E+03  0.34461399664E+03  0.47000000000E+01 0.  1.
         13    1    4    4    0    0  0.23760221853E+02  0.17306658977E+02 -0.54133917493E+02  0.61599915670E+02  0.00000000000E+00 0. -1.
        -14    1    4    4    0    0  0.16360932239E+02 -0.52469818741E+02 -0.15079861699E+02  0.56992668049E+02  0.00000000000E+00 0.  1.
<mgrwt>
<rscale>  2 0.26023516E+03</rscale>
<asrwt>0</asrwt>
<pdfrwt beam="1">  1       21 0.11802960E-01 0.26039734E+03</pdfrwt>
<pdfrwt beam="2">  1       21 0.13585158E+00 0.26039734E+03</pdfrwt>
<totfact> 0.22483018E+04</totfact>
</mgrwt>
</event>
<event>
12    1  0.1050690E-001  0.2435762E+03  0.7546771E-02  0.1117631E+00
         21   -1    0    0  501  502  0.00000000000E+00  0.00000000000E+00  0.23057522414E+03  0.23057522414E+03  0.00000000000E+00 0. -1.
         21   -1    0    0  502  503 -0.00000000000E+00 -0.00000000000E+00 -0.46265689486E+03  0.46265689486E+03  0.00000000000E+00 0.  1.
         -6    2    1    2    0  503 -0.14174431881E+03  0.95846303499E+02 -0.34783505360E+03  0.42463934365E+03  0.17335334395E+03 0.  0.
        -24    2    3    3    0    0 -0.98776057103E+02  0.13039977355E+03 -0.21377838693E+03  0.27961005804E+03  0.75629197017E+02 0.  0.
          6    2    1    2  501    0  0.14174431881E+03 -0.95846303499E+02  0.11575338288E+03  0.26859277535E+03  0.17165450042E+03 0.  0.
         24    2    5    5    0    0  0.90253259910E+01 -0.49448571142E+02  0.76788438125E+02  0.12262210178E+03  0.81320956212E+02 0.  0.
          5    1    5    5  501    0  0.13271899282E+03 -0.46397732356E+02  0.38964944753E+02  0.14597067357E+03  0.47000000000E+01 0. -1.
        -11    1    6    6    0    0  0.28596983582E+01 -0.28195687347E+01  0.75461740915E+02  0.75568526414E+02  0.00000000000E+00 0.  1.
         12    1    6    6    0    0  0.61656276328E+01 -0.46629002407E+02  0.13266972099E+01  0.47053575370E+02  0.00000000000E+00 0. -1.
         -5    1    3    3    0  503 -0.42968261707E+02 -0.34553470050E+02 -0.13405666667E+03  0.14502928561E+03  0.47000000000E+01 0.  1.
         13    1    4    4    0    0 -0.15395005784E+02  0.14405540839E+02  0.16203835668E+01  0.21145955946E+02  0.00000000000E+00 0. -1.
        -14    1    4    4    0    0 -0.83381051320E+02  0.11599423271E+03 -0.21539877049E+03  0.25846410209E+03  0.00000000000E+00 0.  1.
<mgrwt>
<rscale>  2 0.24327407E+03</rscale>
<asrwt>0</asrwt>
<pdfrwt beam="1">  1       21 0.35473112E-01 0.24357616E+03</pdfrwt>
<pdfrwt beam="2">  1       21 0.71177984E-01 0.24357616E+03</pdfrwt>
<totfact> 0.13270368E+04</totfact>
</mgrwt>
</event>
<event>
12    1  0.1050690E-001  0.2958478E+03  0.7546771E-02  0.1087358E+00
         21   -1    0    0  503  502  0.00000000000E+00  0.00000000000E+00  0.73560640116E+03  0.73560640116E+03  0.00000000000E+00 0.  1.
         21   -1    0    0  501  503 -0.00000000000E+00 -0.00000000000E+00 -0.12833235742E+03  0.12833235742E+03  0.00000000000E+00 0. -1.
          6    2    1    2  501    0 -0.12370118571E+03 -0.20441826955E+03  0.18650272194E+03  0.34957075488E+03  0.17414831353E+03 0.  0.
         24    2    3    3    0    0 -0.26237709858E+02 -0.83112891274E+02  0.14602767944E+03  0.18871540685E+03  0.81812294347E+02 0.  0.
         -6    2    1    2    0  502  0.12370118571E+03  0.20441826955E+03  0.42077132180E+03  0.51436800371E+03  0.17446239056E+03 0.  0.
        -24    2    5    5    0    0  0.92103071894E+02  0.15691166316E+03  0.18496265462E+03  0.27170952773E+03  0.80688524388E+02 0.  0.
          5    1    3    3  501    0 -0.97463475849E+02 -0.12130537828E+03  0.40475042498E+02  0.16085534803E+03  0.47000000000E+01 0. -1.
        -11    1    4    4    0    0 -0.47456444941E+02 -0.17542597343E+02  0.59906757962E+02  0.78413497164E+02  0.00000000000E+00 0.  1.
         12    1    4    4    0    0  0.21218735083E+02 -0.65570293932E+02  0.86120921479E+02  0.11030190969E+03  0.00000000000E+00 0. -1.
         -5    1    5    5    0  502  0.31598113813E+02  0.47506606389E+02  0.23580866718E+03  0.24265847598E+03  0.47000000000E+01 0.  1.
         11    1    6    6    0    0 -0.51914993605E+01  0.43014393236E+02  0.16710900560E+02  0.46437526728E+02  0.00000000000E+00 0. -1.
        -12    1    6    6    0    0  0.97294571255E+02  0.11389726992E+03  0.16825175406E+03  0.22527200101E+03  0.00000000000E+00 0.  1.
<mgrwt>
<rscale>  2 0.29580154E+03</rscale>
<asrwt>0</asrwt>
<pdfrwt beam="1">  1       21 0.11317021E+00 0.29584783E+03</pdfrwt>
<pdfrwt beam="2">  1       21 0.19743440E-01 0.29584783E+03</pdfrwt>
<totfact> 0.13606078E+04</totfact>
</mgrwt>
</event>
<event>
12    1  0.1050690E-001  0.1798461E+03  0.7546771E-02  0.1168441E+00
         21   -1    0    0  501  502  0.00000000000E+00  0.00000000000E+00  0.16778351614E+03  0.16778351614E+03  0.00000000000E+00 0.  1.
         21   -1    0    0  502  503 -0.00000000000E+00 -0.00000000000E+00 -0.19094696156E+03  0.19094696156E+03  0.00000000000E+00 0.  1.
         -6    2    1    2    0  503  0.48825270479E+02  0.42907774983E+01 -0.43674501149E+01  0.17989909211E+03  0.17303840877E+03 0.  0.
        -24    2    3    3    0    0 -0.17713954498E+02 -0.18480065843E+02 -0.47442622537E+02  0.97294369202E+02  0.80994412324E+02 0.  0.
          6    2    1    2  501    0 -0.48825270479E+02 -0.42907774983E+01 -0.18795995305E+02  0.17883138559E+03  0.17095337734E+03 0.  0.
         24    2    5    5    0    0 -0.30281936620E+02  0.46188932784E+02 -0.59713173857E+02  0.11109393744E+03  0.75668927619E+02 0.  0.
          5    1    5    5  501    0 -0.18543333859E+02 -0.50479710283E+02  0.40917178552E+02  0.67737448147E+02  0.47000000000E+01 0. -1.
        -11    1    6    6    0    0 -0.25529387307E+02  0.67003272738E+01  0.12074219853E+02  0.29024658257E+02  0.00000000000E+00 0.  1.
         12    1    6    6    0    0 -0.47525493126E+01  0.39488605510E+02 -0.71787393711E+02  0.82069279185E+02  0.00000000000E+00 0. -1.
         -5    1    3    3    0  503  0.66539224976E+02  0.22770843341E+02  0.43075172422E+02  0.82604722904E+02  0.47000000000E+01 0.  1.
         13    1    4    4    0    0 -0.29052451109E+02  0.45367739958E+01  0.12606717221E+02  0.31993070387E+02  0.00000000000E+00 0. -1.
        -14    1    4    4    0    0  0.11338496611E+02 -0.23016839839E+02 -0.60049339758E+02  0.65301298815E+02  0.00000000000E+00 0.  1.
<mgrwt>
<rscale>  2 0.17934266E+03</rscale>
<asrwt>0</asrwt>
<pdfrwt beam="1">  1       21 0.25812849E-01 0.17984607E+03</pdfrwt>
<pdfrwt beam="2">  1       21 0.29376456E-01 0.17984607E+03</pdfrwt>
<totfact> 0.15879837E+05</totfact>
</mgrwt>
</event>
<event>
12    1  0.1050690E-001  0.2574149E+03  0.7546771E-02  0.1109138E+00
         21   -1    0    0  503  502  0.00000000000E+00  0.00000000000E+00  0.67888462415E+02  0.67888462415E+02  0.00000000000E+00 0.  1.
         21   -1    0    0  501  503 -0.00000000000E+00 -0.00000000000E+00 -0.99895127943E+03  0.99895127943E+03  0.00000000000E+00 0.  1.
          6    2    1    2  501    0  0.97367448030E+02  0.16166875249E+03 -0.56082460196E+03  0.61590874737E+03  0.17088635246E+03 0.  0.
         24    2    3    3    0    0  0.15860259202E+02  0.35170728566E+02 -0.11673390025E+03  0.14699104325E+03  0.80566961961E+02 0.  0.
         -6    2    1    2    0  502 -0.97367448030E+02 -0.16166875249E+03 -0.37023821505E+03  0.45093099447E+03  0.17505776311E+03 0.  0.
        -24    2    5    5    0    0 -0.80430931316E+02 -0.13423710777E+03 -0.15970241201E+03  0.23788931992E+03  0.81226426236E+02 0.  0.
          5    1    3    3  501    0  0.81507188828E+02  0.12649802392E+03 -0.44409070172E+03  0.46891770412E+03  0.47000000000E+01 0. -1.
        -11    1    4    4    0    0  0.27853159937E+02  0.56903299673E+02 -0.72605197344E+02  0.96360254843E+02  0.00000000000E+00 0.  1.
         12    1    4    4    0    0 -0.11992900736E+02 -0.21732571107E+02 -0.44128702903E+02  0.50630788408E+02  0.00000000000E+00 0. -1.
         -5    1    5    5    0  502 -0.16936516714E+02 -0.27431644718E+02 -0.21053580304E+03  0.21304167454E+03  0.47000000000E+01 0.  1.
         11    1    6    6    0    0 -0.13137263272E+01 -0.54590315063E+02 -0.18843202702E+02  0.57765860711E+02  0.00000000000E+00 0. -1.
        -12    1    6    6    0    0 -0.79117204989E+02 -0.79646792705E+02 -0.14085920930E+03  0.18012345921E+03  0.00000000000E+00 0.  1.
<mgrwt>
<rscale>  2 0.25670737E+03</rscale>
<asrwt>0</asrwt>
<pdfrwt beam="1">  1       21 0.10444378E-01 0.25741489E+03</pdfrwt>
<pdfrwt beam="2">  1       21 0.15368482E+00 0.25741489E+03</pdfrwt>
<totfact> 0.20255115E+04</totfact>
</mgrwt>
</event>
<event>
12    1  0.1050690E-001  0.3064579E+03  0.7546771E-02  0.1083214E+00
         21   -1    0    0  501  502  0.00000000000E+00  0.00000000000E+00  0.38425505286E+03  0.38425505286E+03  0.00000000000E+00 0.  1.
         21   -1    0    0  502  503 -0.00000000000E+00 -0.00000000000E+00 -0.45786059547E+03  0.45786059547E+03  0.00000000000E+00 0. -1.
         -6    2    1    2    0  503 -0.23243969535E+03  0.76052697162E+02 -0.32892595157E+03  0.44323604290E+03  0.16868219642E+03 0.  0.
        -24    2    3    3    0    0 -0.11954736464E+03  0.27763753527E+02 -0.27044445258E+03  0.30715270029E+03  0.78359306829E+02 0.  0.
          6    2    1    2  501    0  0.23243969535E+03 -0.76052697162E+02  0.25532040896E+03  0.39887960543E+03  0.18467323487E+03 0.  0.
         24    2    5    5    0    0  0.15988099684E+03 -0.11694958018E+02  0.24083982095E+03  0.30070394273E+03  0.81977659305E+02 0.  0.
          5    1    5    5  501    0  0.72558698510E+02 -0.64357739145E+02  0.14480588006E+02  0.98175662699E+02  0.47000000000E+01 0. -1.
        -13    1    6    6    0    0  0.34322057505E+02 -0.30115840130E+02  0.10663852904E+03  0.11600320398E+03  0.00000000000E+00 0.  1.
         14    1    6    6    0    0  0.12555893934E+03  0.18420882112E+02  0.13420129192E+03  0.18470073876E+03  0.00000000000E+00 0. -1.
         -5    1    3    3    0  503 -0.11289233071E+03  0.48288943635E+02 -0.58481498997E+02  0.13608334261E+03  0.47000000000E+01 0.  1.
         11    1    4    4    0    0 -0.70184445005E+02  0.41249636252E+02 -0.98672267002E+02  0.12792030756E+03  0.00000000000E+00 0. -1.
        -12    1    4    4    0    0 -0.49362919639E+02 -0.13485882725E+02 -0.17177218557E+03  0.17923239273E+03  0.00000000000E+00 0.  1.
<mgrwt>
<rscale>  2 0.30409005E+03</rscale>
<asrwt>0</asrwt>
<pdfrwt beam="1">  1       21 0.59116162E-01 0.30645787E+03</pdfrwt>
<pdfrwt beam="2">  1       21 0.70440092E-01 0.30645787E+03</pdfrwt>
<totfact> 0.45477586E+03</totfact>
</mgrwt>
</event>
<event>
12    1  0.1050690E-001  0.1792244E+03  0.7546771E-02  0.1168572E+00
         21   -1    0    0  501  502  0.00000000000E+00  0.00000000000E+00  0.30885208161E+02  0.30885208161E+02  0.00000000000E+00 0.  1.
         21   -1    0    0  502  503 -0.00000000000E+00 -0.00000000000E+00 -0.11361732496E+04  0.11361732496E+04  0.00000000000E+00 0.  1.
         -6    2    1    2    0  503  0.20248781443E+02  0.41759112982E+02 -0.72264600428E+03  0.74452288242E+03  0.17304114619E+03 0.  0.
        -24    2    3    3    0    0  0.33960080245E+02  0.17996207961E+02 -0.15280435962E+03  0.17400183516E+03  0.73826253935E+02 0.  0.
          6    2    1    2  501    0 -0.20248781443E+02 -0.41759112982E+02 -0.38264203712E+03  0.42253557531E+03  0.17311137213E+03 0.  0.
         24    2    5    5    0    0  0.64024743177E+00  0.38463083266E+02 -0.25068831931E+03  0.26663231703E+03  0.82269923746E+02 0.  0.
          5    1    5    5  501    0 -0.20889028874E+02 -0.80222196249E+02 -0.13195371781E+03  0.15590325828E+03  0.47000000000E+01 0. -1.
        -11    1    6    6    0    0  0.59459255937E+01  0.58118096018E+01  0.44007598269E+01  0.94073295396E+01  0.00000000000E+00 0.  1.
         12    1    6    6    0    0 -0.53056781619E+01  0.32651273664E+02 -0.25508907914E+03  0.25722498749E+03  0.00000000000E+00 0. -1.
         -5    1    3    3    0  503 -0.13711298802E+02  0.23762905022E+02 -0.56984164467E+03  0.57052104726E+03  0.47000000000E+01 0.  1.
         13    1    4    4    0    0  0.50269301666E+02  0.18808808894E+02 -0.14729306514E+03  0.15676741058E+03  0.00000000000E+00 0. -1.
        -14    1    4    4    0    0 -0.16309221422E+02 -0.81260093357E+00 -0.55112944717E+01  0.17234424574E+02  0.00000000000E+00 0.  1.
<mgrwt>
<rscale>  2 0.17920744E+03</rscale>
<asrwt>0</asrwt>
<pdfrwt beam="1">  1       21 0.47515706E-02 0.17922440E+03</pdfrwt>
<pdfrwt beam="2">  1       21 0.17479588E+00 0.17922440E+03</pdfrwt>
<totfact> 0.58392574E+04</totfact>
</mgrwt>
</event>
<event>
12    1  0.1050690E-001  0.1896925E+03  0.7546771E-02  0.1159052E+00
         21   -1    0    0  501  502  0.00000000000E+00  0.00000000000E+00  0.22930915154E+03  0.22930915154E+03  0.00000000000E+00 0. -1.
         21   -1    0    0  502  503 -0.00000000000E+00 -0.00000000000E+00 -0.15667284832E+03  0.15667284832E+03  0.00000000000E+00 0. -1.
         -6    2    1    2    0  503  0.67839371053E+02  0.39734498045E+02  0.51003527887E+02  0.19642968978E+03  0.17263328929E+03 0.  0.
        -24    2    3    3    0    0  0.46422507374E+02  0.12275320225E+02 -0.38268852086E+02  0.10049045733E+03  0.79549319908E+02 0.  0.
          6    2    1    2  501    0 -0.67839371053E+02 -0.39734498045E+02  0.21632775334E+02  0.18955231007E+03  0.17111718407E+03 0.  0.
         24    2    5    5    0    0 -0.42028717734E+02  0.39329324096E+02  0.17194667012E+02  0.10613130191E+03  0.87492787269E+02 0.  0.
          5    1    5    5  501    0 -0.25810653318E+02 -0.79063822141E+02  0.44381083224E+01  0.83421008156E+02  0.47000000000E+01 0. -1.
        -11    1    6    6    0    0  0.22249936056E+02  0.22262926777E+02  0.23567759527E+02  0.39320946738E+02  0.00000000000E+00 0.  1.
         12    1    6    6    0    0 -0.64278653791E+02  0.17066397319E+02 -0.63730925156E+01  0.66810355176E+02  0.00000000000E+00 0. -1.
         -5    1    3    3    0  503  0.21416863679E+02  0.27459177820E+02  0.89272379973E+02  0.95939232446E+02  0.47000000000E+01 0.  1.
         13    1    4    4    0    0  0.24482790789E+02  0.38701916544E+02 -0.46400548285E+02  0.65193989525E+02  0.00000000000E+00 0. -1.
        -14    1    4    4    0    0  0.21939716585E+02 -0.26426596318E+02  0.81316961992E+01  0.35296467810E+02  0.00000000000E+00 0.  1.
<mgrwt>
<rscale>  2 0.18934693E+03</rscale>
<asrwt>0</asrwt>
<pdfrwt beam="1">  1       21 0.35278331E-01 0.18969255E+03</pdfrwt>
<pdfrwt beam="2">  1       21 0.24103515E-01 0.18969255E+03</pdfrwt>
<totfact> 0.12592263E+05</totfact>
</mgrwt>
</event>
<event>
12    1  0.1050690E-001  0.2254014E+03  0.7546771E-02  0.1130132E+00
         21   -1    0    0  503  502  0.00000000000E+00  0.00000000000E+00  0.22077479044E+03  0.22077479044E+03  0.00000000000E+00 0.  1.
         21   -1    0    0  501  503 -0.00000000000E+00 -0.00000000000E+00 -0.23003713784E+03  0.23003713784E+03  0.00000000000E+00 0.  1.
          6    2    1    2  501    0  0.13235474683E+03 -0.58227609138E+02  0.11022976533E+02  0.22567072215E+03  0.17290903779E+03 0.  0.
         24    2    3    3    0    0  0.90139971248E+02 -0.11770143892E+02 -0.54875900136E+02  0.13453820709E+03  0.82616064099E+02 0.  0.
         -6    2    1    2    0  502 -0.13235474683E+03  0.58227609138E+02 -0.20285323926E+02  0.22514120613E+03  0.17137337849E+03 0.  0.
        -24    2    5    5    0    0 -0.84010965586E+02 -0.28636737644E+02 -0.37234094202E+02  0.12418633135E+03  0.78472683416E+02 0.  0.
          5    1    3    3  501    0  0.42214775586E+02 -0.46457465246E+02  0.65898876669E+02  0.91132515060E+02  0.47000000000E+01 0. -1.
        -13    1    4    4    0    0  0.73359005332E+02 -0.41653556575E+02 -0.22308126106E+02  0.87259468993E+02  0.00000000000E+00 0.  1.
         14    1    4    4    0    0  0.16780965916E+02  0.29883412683E+02 -0.32567774030E+02  0.47278738096E+02  0.00000000000E+00 0. -1.
         -5    1    5    5    0  502 -0.48343781248E+02  0.86864346782E+02  0.16948770277E+02  0.10095487478E+03  0.47000000000E+01 0.  1.
         13    1    6    6    0    0 -0.28967242821E+02  0.27283361294E-01 -0.52782079861E+02  0.60208386920E+02  0.00000000000E+00 0. -1.
        -14    1    6    6    0    0 -0.55043722765E+02 -0.28664021005E+02  0.15547985658E+02  0.63977944434E+02  0.00000000000E+00 0.  1.
<mgrwt>
<rscale>  2 0.22510681E+03</rscale>
<asrwt>0</asrwt>
<pdfrwt beam="1">  1       21 0.33965352E-01 0.22540135E+03</pdfrwt>
<pdfrwt beam="2">  1       21 0.35390329E-01 0.22540135E+03</pdfrwt>
<totfact> 0.63368848E+04</totfact>
</mgrwt>
</event>
<event>
12    1  0.1050690E-001  0.1910146E+03  0.7546771E-02  0.1157987E+00
         21   -1    0    0  501  502  0.00000000000E+00  0.00000000000E+00  0.16668204739E+03  0.16668204739E+03  0.00000000000E+00 0. -1.
         21   -1    0    0  502  503 -0.00000000000E+00 -0.00000000000E+00 -0.36123457024E+03  0.36123457024E+03  0.00000000000E+00 0. -1.
         -6    2    1    2    0  503  0.77413089450E+02  0.28386287280E+02 -0.26455244468E+03  0.32630442947E+03  0.17230210964E+03 0.  0.
        -24    2    3    3    0    0  0.79450244348E+02  0.13014007057E+01 -0.27477878352E+03  0.29690359468E+03  0.79588502252E+02 0.  0.
          6    2    1    2  501    0 -0.77413089450E+02 -0.28386287280E+02  0.69999921836E+02  0.20161218816E+03  0.17014381456E+03 0.  0.
         24    2    5    5    0    0  0.19727685088E+02 -0.71458392031E+01  0.89954005317E+01  0.84859764921E+02  0.81731376441E+02 0.  0.
          5    1    5    5  501    0 -0.97140774538E+02 -0.21240448077E+02  0.61004521304E+02  0.11675242324E+03  0.47000000000E+01 0. -1.
        -11    1    6    6    0    0 -0.15107269892E+01  0.31661154073E+02 -0.14401132802E+02  0.34815278245E+02  0.00000000000E+00 0.  1.
         12    1    6    6    0    0  0.21238412077E+02 -0.38806993276E+02  0.23396533334E+02  0.50044486676E+02  0.00000000000E+00 0. -1.
         -5    1    3    3    0  503 -0.20371548978E+01  0.27084886574E+02  0.10226338836E+02  0.29400834798E+02  0.47000000000E+01 0.  1.
         13    1    4    4    0    0  0.70156512189E+02  0.86631728790E+01 -0.10421108731E+03  0.12592433238E+03  0.00000000000E+00 0. -1.
        -14    1    4    4    0    0  0.92937321589E+01 -0.73617721733E+01 -0.17056769620E+03  0.17097926229E+03  0.00000000000E+00 0.  1.
<mgrwt>
<rscale>  2 0.19052661E+03</rscale>
<asrwt>0</asrwt>
<pdfrwt beam="1">  1       21 0.25643392E-01 0.19101462E+03</pdfrwt>
<pdfrwt beam="2">  1       21 0.55574549E-01 0.19101462E+03</pdfrwt>
<totfact> 0.44062685E+04</totfact>
</mgrwt>
</event>
<event>
12    1  0.1050690E-001  0.2219322E+03  0.7546771E-02  0.1132608E+00
         21   -1    0    0  503  502  0.00000000000E+00  0.00000000000E+00  0.93983726510E+02  0.93983726510E+02  0.00000000000E+00 0.  1.
         21   -1    0    0  501  503 -0.00000000000E+00 -0.00000000000E+00 -0.64911282574E+03  0.64911282574E+03  0.00000000000E+00 0.  1.
          6    2    1    2  501    0 -0.21816846996E+02  0.13706351911E+03 -0.44237138230E+03  0.49492054082E+03  0.17318059580E+03 0.  0.
         24    2    3    3    0    0  0.32255199313E+00  0.55043034925E+02 -0.91161564469E+02  0.13355100841E+03  0.80595293144E+02 0.  0.
         -6    2    1    2    0  502  0.21816846996E+02 -0.13706351911E+03 -0.11275771693E+03  0.24817601143E+03  0.17208906658E+03 0.  0.
        -24    2    5    5    0    0  0.26792014380E+02 -0.16418718793E+03 -0.12208439742E+03  0.21868834164E+03  0.72420618344E+02 0.  0.
          5    1    3    3  501    0 -0.22139398989E+02  0.82020484190E+02 -0.35120981783E+03  0.36136953241E+03  0.47000000000E+01 0. -1.
        -13    1    4    4    0    0  0.30066880456E+01  0.72127321114E+02 -0.91128083253E+02  0.11625712099E+03  0.00000000000E+00 0.  1.
         14    1    4    4    0    0 -0.26841360525E+01 -0.17084286190E+02 -0.33481216095E-01  0.17293887416E+02  0.00000000000E+00 0. -1.
         -5    1    5    5    0  502 -0.49751673834E+01  0.27123668817E+02  0.93266804885E+01  0.29487669788E+02  0.47000000000E+01 0.  1.
         13    1    6    6    0    0  0.30532438986E+02 -0.20399362826E+02 -0.16487631733E+02  0.40251780510E+02  0.00000000000E+00 0. -1.
        -14    1    6    6    0    0 -0.37404246060E+01 -0.14378782511E+03 -0.10559676568E+03  0.17843656113E+03  0.00000000000E+00 0.  1.
<mgrwt>
<rscale>  2 0.22171922E+03</rscale>
<asrwt>0</asrwt>
<pdfrwt beam="1">  1       21 0.14459035E-01 0.22193220E+03</pdfrwt>
<pdfrwt beam="2">  1       21 0.99863514E-01 0.22193220E+03</pdfrwt>
<totfact> 0.33999567E+04</totfact>
</mgrwt>
</event>
<event>
12    1  0.1050690E-001  0.1764790E+03  0.7546771E-02  0.1171907E+00
         21   -1    0    0  501  502  0.00000000000E+00  0.00000000000E+00  0.63151022931E+02  0.63151022931E+02  0.00000000000E+00 0.  1.
         21   -1    0    0  502  503 -0.00000000000E+00 -0.00000000000E+00 -0.77000701150E+03  0.77000701150E+03  0.00000000000E+00 0.  1.
         -6    2    1    2    0  503  0.26026571825E+02 -0.13296560329E+02 -0.60811231829E+03  0.63320250564E+03  0.17404206542E+03 0.  0.
        -24    2    3    3    0    0 -0.17733957967E+02  0.44057189577E+02 -0.23431576064E+03  0.25247899296E+03  0.81155634332E+02 0.  0.
          6    2    1    2  501    0 -0.26026571825E+02  0.13296560329E+02 -0.98743670283E+02  0.19995552879E+03  0.17139930022E+03 0.  0.
         24    2    5    5    0    0 -0.69458185651E+02 -0.29496976015E+02 -0.78823519022E+02  0.13563994547E+03  0.80563866017E+02 0.  0.
          5    1    5    5  501    0  0.43431613826E+02  0.42793536343E+02 -0.19920151261E+02  0.64315583326E+02  0.47000000000E+01 0. -1.
        -13    1    6    6    0    0 -0.39208604562E+02  0.18574021496E+02 -0.67984867363E+01  0.43915013015E+02  0.00000000000E+00 0.  1.
         14    1    6    6    0    0 -0.30249581089E+02 -0.48070997511E+02 -0.72025032286E+02  0.91724932453E+02  0.00000000000E+00 0. -1.
         -5    1    3    3    0  503  0.43760529791E+02 -0.57353749905E+02 -0.37379655765E+03  0.38072351268E+03  0.47000000000E+01 0.  1.
         13    1    4    4    0    0  0.21012537048E+02  0.29837519938E+02 -0.41360180859E+02  0.55158579296E+02  0.00000000000E+00 0. -1.
        -14    1    4    4    0    0 -0.38746495015E+02  0.14219669639E+02 -0.19295557978E+03  0.19732041366E+03  0.00000000000E+00 0.  1.
<mgrwt>
<rscale>  2 0.17582389E+03</rscale>
<asrwt>0</asrwt>
<pdfrwt beam="1">  1       21 0.97155424E-02 0.17647895E+03</pdfrwt>
<pdfrwt beam="2">  1       21 0.11846261E+00 0.17647895E+03</pdfrwt>
<totfact> 0.46955752E+04</totfact>
</mgrwt>
</event>
<event>
12    1  0.1050690E-001  0.1995069E+03  0.7546771E-02  0.1150628E+00
         21   -1    0    0  501  502  0.00000000000E+00  0.00000000000E+00  0.28038607106E+03  0.28038607106E+03  0.00000000000E+00 0.  1.
         21   -1    0    0  502  503 -0.00000000000E+00 -0.00000000000E+00 -0.14169328445E+03  0.14169328445E+03  0.00000000000E+00 0. -1.
         -6    2    1    2    0  503  0.16054493033E+01 -0.96593874686E+02  0.49437468191E+02  0.20554094628E+03  0.17455676223E+03 0.  0.
        -24    2    3    3    0    0  0.29633973242E+02 -0.12408811454E+03  0.11330999973E+02  0.15062533557E+03  0.79268957443E+02 0.  0.
          6    2    1    2  501    0 -0.16054493033E+01  0.96593874686E+02  0.89255318417E+02  0.21653840923E+03  0.17201574553E+03 0.  0.
         24    2    5    5    0    0 -0.18654717130E+02 -0.15548947385E+02  0.46114934699E+02  0.95089354959E+02  0.79533829206E+02 0.  0.
          5    1    5    5  501    0  0.17049267827E+02  0.11214282207E+03  0.43140383718E+02  0.12144905427E+03  0.47000000000E+01 0. -1.
        -11    1    6    6    0    0  0.18626633224E+02 -0.30815833247E+02  0.40859857939E+02  0.54461867713E+02  0.00000000000E+00 0.  1.
         12    1    6    6    0    0 -0.37281350355E+02  0.15266885861E+02  0.52550767600E+01  0.40627487246E+02  0.00000000000E+00 0. -1.
         -5    1    3    3    0  503 -0.28028523939E+02  0.27494239855E+02  0.38106468218E+02  0.54915610708E+02  0.47000000000E+01 0.  1.
         11    1    4    4    0    0  0.16515301215E+02 -0.23186603247E+01  0.22091232169E+02  0.27679485159E+02  0.00000000000E+00 0. -1.
        -12    1    4    4    0    0  0.13118672027E+02 -0.12176945422E+03 -0.10760232195E+02  0.12294585041E+03  0.00000000000E+00 0.  1.
<mgrwt>
<rscale>  2 0.19894976E+03</rscale>
<asrwt>0</asrwt>
<pdfrwt beam="1">  1       21 0.43136318E-01 0.19950694E+03</pdfrwt>
<pdfrwt beam="2">  1       21 0.21798967E-01 0.19950694E+03</pdfrwt>
<totfact> 0.10120706E+05</totfact>
</mgrwt>
</event>
<event>
12    1  0.1050690E-001  0.1833921E+03  0.7546771E-02  0.1164682E+00
         21   -1    0    0  501  502  0.00000000000E+00  0.00000000000E+00  0.77985128641E+03  0.77985128641E+03  0.00000000000E+00 0. -1.
         21   -1    0    0  502  503 -0.00000000000E+00 -0.00000000000E+00 -0.62688582107E+02  0.62688582107E+02  0.00000000000E+00 0. -1.
         -6    2    1    2    0  503  0.53177155685E+02  0.29922722437E+02  0.59497877714E+03  0.62260132572E+03  0.17294359295E+03 0.  0.
        -24    2    3    3    0    0  0.15396049162E+02  0.12146068997E+02  0.11572604733E+03  0.14151018004E+03  0.79044593140E+02 0.  0.
          6    2    1    2  501    0 -0.53177155685E+02 -0.29922722437E+02  0.12218392717E+03  0.21993854280E+03  0.17239742268E+03 0.  0.
         24    2    5    5    0    0 -0.74885260991E+02 -0.60915727335E+02  0.13171530294E+03  0.18063529468E+03  0.77211789938E+02 0.  0.
          5    1    5    5  501    0  0.21708105306E+02  0.30993004899E+02 -0.95313757692E+01  0.39303248119E+02  0.47000000000E+01 0. -1.
        -11    1    6    6    0    0  0.27097161860E+01 -0.42598485782E+00  0.57071995839E+02  0.57137874777E+02  0.00000000000E+00 0.  1.
         12    1    6    6    0    0 -0.77594977177E+02 -0.60489742477E+02  0.74643307101E+02  0.12349741990E+03  0.00000000000E+00 0. -1.
         -5    1    3    3    0  503  0.37781106523E+02  0.17776653439E+02  0.47925272981E+03  0.48109114568E+03  0.47000000000E+01 0.  1.
         11    1    4    4    0    0  0.89032120662E+01  0.41712268846E+02  0.96877264407E+02  0.10585076720E+03  0.00000000000E+00 0. -1.
        -12    1    4    4    0    0  0.64928370957E+01 -0.29566199849E+02  0.18848782919E+02  0.35659412847E+02  0.00000000000E+00 0.  1.
<mgrwt>
<rscale>  2 0.18326323E+03</rscale>
<asrwt>0</asrwt>
<pdfrwt beam="1">  1       21 0.11997711E+00 0.18339211E+03</pdfrwt>
<pdfrwt beam="2">  1       21 0.96443978E-02 0.18339211E+03</pdfrwt>
<totfact> 0.45925328E+04</totfact>
</mgrwt>
</event>
<event>
12    1  0.1050690E-001  0.2702421E+03  0.7546771E-02  0.1101653E+00
         21   -1    0    0  503  502  0.00000000000E+00  0.00000000000E+00  0.89149383186E+02  0.89149383186E+02  0.00000000000E+00 0.  1.
         21   -1    0    0  501  503 -0.00000000000E+00 -0.00000000000E+00 -0.13288842912E+04  0.13288842912E+04  0.00000000000E+00 0. -1.
          6    2    1    2  501    0  0.10719366215E+03  0.17793628625E+03 -0.10610688388E+04  0.10940701628E+04  0.16724424442E+03 0.  0.
         24    2    3    3    0    0  0.33740642623E+02  0.13452701426E+03 -0.87118362103E+03  0.88584385107E+03  0.80761862248E+02 0.  0.
         -6    2    1    2    0  502 -0.10719366215E+03 -0.17793628625E+03 -0.17866606919E+03  0.32396351157E+03  0.17285540019E+03 0.  0.
        -24    2    5    5    0    0  0.31031680230E+01 -0.48174375093E+02 -0.10219563058E+03  0.13721940238E+03  0.77812707270E+02 0.  0.
          5    1    3    3  501    0  0.73453019524E+02  0.43409271990E+02 -0.18988521781E+03  0.20822631178E+03  0.47000000000E+01 0. -1.
        -13    1    4    4    0    0  0.11869140279E+02 -0.91535798450E+01 -0.94079154185E+02  0.95265690398E+02  0.00000000000E+00 0.  1.
         14    1    4    4    0    0  0.21871502344E+02  0.14368059410E+03 -0.77710446685E+03  0.79057816067E+03  0.00000000000E+00 0. -1.
         -5    1    5    5    0  502 -0.11029683017E+03 -0.12976191116E+03 -0.76470438610E+02  0.18674410918E+03  0.47000000000E+01 0.  1.
         11    1    6    6    0    0 -0.19055470813E+02 -0.60224876828E+02 -0.87848197694E+02  0.10820098241E+03  0.00000000000E+00 0. -1.
        -12    1    6    6    0    0  0.22158638836E+02  0.12050501735E+02 -0.14347432891E+02  0.29018419972E+02  0.00000000000E+00 0.  1.
<mgrwt>
<rscale>  2 0.26934914E+03</rscale>
<asrwt>0</asrwt>
<pdfrwt beam="1">  1       21 0.13715290E-01 0.27024210E+03</pdfrwt>
<pdfrwt beam="2">  1       21 0.20444374E+00 0.27024210E+03</pdfrwt>
<totfact> 0.54586402E+03</totfact>
</mgrwt>
</event>
<event>
12    1  0.1050690E-001  0.2202621E+03  0.7546771E-02  0.1134150E+00
         21   -1    0    0  503  502  0.00000000000E+00  0.00000000000E+00  0.86665480861E+02  0.86665480861E+02  0.00000000000E+00 0. -1.
         21   -1    0    0  501  503 -0.00000000000E+00 -0.00000000000E+00 -0.56496961257E+03  0.56496961257E+03  0.00000000000E+00 0. -1.
          6    2    1    2  501    0 -0.11440995472E+03 -0.67408475363E+02 -0.28417140977E+03  0.35803178734E+03  0.17262627356E+03 0.  0.
         24    2    3    3    0    0 -0.55723942452E+02 -0.29907371485E+02 -0.26902912953E+03  0.28660518530E+03  0.75935835228E+02 0.  0.
         -6    2    1    2    0  502  0.11440995472E+03  0.67408475363E+02 -0.19413272194E+03  0.29360330609E+03  0.17573231726E+03 0.  0.
        -24    2    5    5    0    0  0.83725303485E+02  0.79376338444E+01 -0.30721324298E+02  0.11695760507E+03  0.75248582321E+02 0.  0.
          5    1    3    3  501    0 -0.58686012273E+02 -0.37501103878E+02 -0.15142280242E+02  0.71426602043E+02  0.47000000000E+01 0. -1.
        -13    1    4    4    0    0  0.46021403414E+01  0.15086914062E+02 -0.10446613261E+03  0.10565021313E+03  0.00000000000E+00 0.  1.
         14    1    4    4    0    0 -0.60326082793E+02 -0.44994285547E+02 -0.16456299692E+03  0.18095497217E+03  0.00000000000E+00 0. -1.
         -5    1    5    5    0  502  0.30684651240E+02  0.59470841518E+02 -0.16341139764E+03  0.17664570102E+03  0.47000000000E+01 0.  1.
         11    1    6    6    0    0  0.18183495968E+02 -0.62432238655E+01 -0.44520424783E+02  0.48494181019E+02  0.00000000000E+00 0. -1.
        -12    1    6    6    0    0  0.65541807517E+02  0.14180857710E+02  0.13799100485E+02  0.68463424046E+02  0.00000000000E+00 0.  1.
<mgrwt>
<rscale>  2 0.21964196E+03</rscale>
<asrwt>0</asrwt>
<pdfrwt beam="1">  1       21 0.13333151E-01 0.22026209E+03</pdfrwt>
<pdfrwt beam="2">  1       21 0.86918404E-01 0.22026209E+03</pdfrwt>
<totfact> 0.54563275E+04</totfact>
</mgrwt>
</event>
<event>
12    1  0.1050690E-001  0.1981917E+03  0.7546771E-02  0.1151386E+00
         21   -1    0    0  503  502  0.00000000000E+00  0.00000000000E+00  0.19182835324E+03  0.19182835324E+03  0.00000000000E+00 0.  1.
         21   -1    0    0  501  503 -0.00000000000E+00 -0.00000000000E+00 -0.42920136670E+03  0.42920136670E+03  0.00000000000E+00 0.  1.
          6    2    1    2  501    0  0.63582047685E+02 -0.72487497575E+02 -0.34342465601E+03  0.39624782848E+03  0.17255356597E+03 0.  0.
         24    2    3    3    0    0  0.68405207615E+02 -0.10904259217E+02 -0.30596027039E+03  0.32385011921E+03  0.80430326087E+02 0.  0.
         -6    2    1    2    0  502 -0.63582047685E+02  0.72487497575E+02  0.10605164254E+03  0.22478189146E+03  0.17315551897E+03 0.  0.
        -24    2    5    5    0    0 -0.10654713685E+03  0.55456797292E+02  0.50881480285E+02  0.15265782860E+03  0.79295263809E+02 0.  0.
          5    1    3    3  501    0 -0.48231599304E+01 -0.61583238358E+02 -0.37464385614E+02  0.72397709272E+02  0.47000000000E+01 0. -1.
        -13    1    4    4    0    0  0.20768726541E+02  0.11069421692E+02 -0.23190587254E+03  0.23309698800E+03  0.00000000000E+00 0.  1.
         14    1    4    4    0    0  0.47636481074E+02 -0.21973680909E+02 -0.74054397855E+02  0.90753131205E+02  0.00000000000E+00 0. -1.
         -5    1    5    5    0  502  0.42965089160E+02  0.17030700283E+02  0.55170162258E+02  0.72124062852E+02  0.47000000000E+01 0.  1.
         13    1    6    6    0    0  0.38817619556E+01  0.28876789199E+02  0.26432146234E+01  0.29256172236E+02  0.00000000000E+00 0. -1.
        -14    1    6    6    0    0 -0.11042889880E+03  0.26580008093E+02  0.48238265661E+02  0.12340165637E+03  0.00000000000E+00 0.  1.
<mgrwt>
<rscale>  2 0.19806014E+03</rscale>
<asrwt>0</asrwt>
<pdfrwt beam="1">  1       21 0.29512055E-01 0.19819169E+03</pdfrwt>
<pdfrwt beam="2">  1       21 0.66030979E-01 0.19819169E+03</pdfrwt>
<totfact> 0.23095103E+04</totfact>
</mgrwt>
</event>
<event>
12    1  0.1050690E-001  0.1997496E+03  0.7546771E-02  0.1150086E+00
         21   -1    0    0  503  502  0.00000000000E+00  0.00000000000E+00  0.66313930218E+02  0.66313930218E+02  0.00000000000E+00 0. -1.
         21   -1    0    0  501  503 -0.00000000000E+00 -0.00000000000E+00 -0.63750198874E+03  0.63750198874E+03  0.00000000000E+00 0. -1.
          6    2    1    2  501    0  0.22252686945E+02 -0.97035238161E+02 -0.37079114238E+03  0.42086926639E+03  0.17243505620E+03 0.  0.
         24    2    3    3    0    0  0.62170377638E+02 -0.40537136466E+02 -0.30973503186E+03  0.32848205863E+03  0.80350840660E+02 0.  0.
         -6    2    1    2    0  502 -0.22252686945E+02  0.97035238161E+02 -0.20039691614E+03  0.28294665256E+03  0.17317293286E+03 0.  0.
        -24    2    5    5    0    0 -0.14144793266E+02  0.13456274420E+03 -0.13841600320E+03  0.20988657305E+03  0.81155260463E+02 0.  0.
          5    1    3    3  501    0 -0.39917690693E+02 -0.56498101696E+02 -0.61056110516E+02  0.92387207755E+02  0.47000000000E+01 0. -1.
        -11    1    4    4    0    0 -0.15290201059E+02  0.73657177020E+01 -0.70049130801E+02  0.72075826542E+02  0.00000000000E+00 0.  1.
         12    1    4    4    0    0  0.77460578697E+02 -0.47902854168E+02 -0.23968590106E+03  0.25640623209E+03  0.00000000000E+00 0. -1.
         -5    1    5    5    0  502 -0.81078936795E+01 -0.37527506041E+02 -0.61980912940E+02  0.73060079513E+02  0.47000000000E+01 0.  1.
         13    1    6    6    0    0  0.20713295453E+02  0.81836686985E+02 -0.41213302164E+02  0.93940514266E+02  0.00000000000E+00 0. -1.
        -14    1    6    6    0    0 -0.34858088719E+02  0.52726057217E+02 -0.97202701037E+02  0.11594605878E+03  0.00000000000E+00 0.  1.
<mgrwt>
<rscale>  2 0.19958952E+03</rscale>
<asrwt>0</asrwt>
<pdfrwt beam="1">  1       21 0.10202143E-01 0.19974955E+03</pdfrwt>
<pdfrwt beam="2">  1       21 0.98077229E-01 0.19974955E+03</pdfrwt>
<totfact> 0.67092448E+04</totfact>
</mgrwt>
</event>
<event>
12    1  0.1050690E-001  0.2512361E+03  0.7546771E-02  0.1112622E+00
         21   -1    0    0  503  502  0.00000000000E+00  0.00000000000E+00  0.22982535292E+03  0.22982535292E+03  0.00000000000E+00 0. -1.
         21   -1    0    0  501  503 -0.00000000000E+00 -0.00000000000E+00 -0.38786424197E+03  0.38786424197E+03  0.00000000000E+00 0. -1.
          6    2    1    2  501    0 -0.17474012624E+03 -0.43618758799E+02 -0.24630737774E+03  0.35139858054E+03  0.17428978812E+03 0.  0.
         24    2    3    3    0    0 -0.12798809940E+02 -0.20149588074E+01 -0.94809044847E+02  0.12572248308E+03  0.81544577819E+02 0.  0.
         -6    2    1    2    0  502  0.17474012624E+03  0.43618758799E+02  0.88268488687E+02  0.26629101435E+03  0.17516526593E+03 0.  0.
        -24    2    5    5    0    0  0.35288320482E+02  0.65423590342E+02  0.32293972390E+02  0.11437823252E+03  0.80709154908E+02 0.  0.
          5    1    3    3  501    0 -0.16194131630E+03 -0.41603799991E+02 -0.15149833289E+03  0.22567609747E+03  0.47000000000E+01 0. -1.
        -11    1    4    4    0    0 -0.21816186997E+02 -0.23521901097E+02 -0.44334008388E+01  0.32386430636E+02  0.00000000000E+00 0.  1.
         12    1    4    4    0    0  0.90173770575E+01  0.21506942290E+02 -0.90375644008E+02  0.93336052442E+02  0.00000000000E+00 0. -1.
         -5    1    5    5    0  502  0.13945180576E+03 -0.21804831543E+02  0.55974516297E+02  0.15191278183E+03  0.47000000000E+01 0.  1.
         11    1    6    6    0    0  0.12124355819E+02  0.78705213672E+01  0.48209222481E+02  0.50329655699E+02  0.00000000000E+00 0. -1.
        -12    1    6    6    0    0  0.23163964662E+02  0.57553068975E+02 -0.15915250091E+02  0.64048576821E+02  0.00000000000E+00 0.  1.
<mgrwt>
<rscale>  2 0.25108356E+03</rscale>
<asrwt>0</asrwt>
<pdfrwt beam="1">  1       21 0.35357747E-01 0.25123610E+03</pdfrwt>
<pdfrwt beam="2">  1       21 0.59671421E-01 0.25123610E+03</pdfrwt>
<totfact> 0.19582692E+04</totfact>
</mgrwt>
</event>
<event>
12    1  0.1050690E-001  0.2231204E+03  0.7546771E-02  0.1131690E+00
         21   -1    0    0  503  502  0.00000000000E+00  0.00000000000E+00  0.29798655826E+03  0.29798655826E+03  0.00000000000E+00 0.  1.
         21   -1    0    0  501  503 -0.00000000000E+00 -0.00000000000E+00 -0.17930668941E+03  0.17930668941E+03  0.00000000000E+00 0. -1.
          6    2    1    2  501    0  0.13777696681E+03 -0.21436847380E+02 -0.41029511038E+01  0.22315812999E+03  0.17418577946E+03 0.  0.
         24    2    3    3    0    0  0.80665100038E+02  0.55605808895E+02  0.51015934909E+01  0.12670010880E+03  0.80174977181E+02 0.  0.
         -6    2    1    2    0  502 -0.13777696681E+03  0.21436847380E+02  0.12278281996E+03  0.25413511768E+03  0.17339840296E+03 0.  0.
        -24    2    5    5    0    0 -0.92056931028E+02  0.78444540671E+02  0.62808329892E+02  0.15948191792E+03  0.82834602230E+02 0.  0.
          5    1    3    3  501    0  0.57111866772E+02 -0.77042656276E+02 -0.92045445947E+01  0.96458021197E+02  0.47000000000E+01 0. -1.
        -11    1    4    4    0    0 -0.27368635435E+01 -0.69156555250E+01  0.20063155418E+02  0.21397357751E+02  0.00000000000E+00 0.  1.
         12    1    4    4    0    0  0.83401963582E+02  0.62521464420E+02 -0.14961561927E+02  0.10530275105E+03  0.00000000000E+00 0. -1.
         -5    1    5    5    0  502 -0.45720035782E+02 -0.57007693291E+02  0.59974490065E+02  0.94653199760E+02  0.47000000000E+01 0.  1.
         11    1    6    6    0    0 -0.26529668001E+02  0.73885005756E+02  0.48431922350E+02  0.92241359825E+02  0.00000000000E+00 0. -1.
        -12    1    6    6    0    0 -0.65527263027E+02  0.45595349149E+01  0.14376407542E+02  0.67240558090E+02  0.00000000000E+00 0.  1.
<mgrwt>
<rscale>  2 0.22296671E+03</rscale>
<asrwt>0</asrwt>
<pdfrwt beam="1">  1       21 0.45844086E-01 0.22312041E+03</pdfrwt>
<pdfrwt beam="2">  1       21 0.27585644E-01 0.22312041E+03</pdfrwt>
<totfact> 0.56402728E+04</totfact>
</mgrwt>
</event>
<event>
12    1  0.1050690E-001  0.2067773E+03  0.7546771E-02  0.1144572E+00
         21   -1    0    0  503  502  0.00000000000E+00  0.00000000000E+00  0.47547541680E+03  0.47547541680E+03  0.00000000000E+00 0. -1.
         21   -1    0    0  501  503 -0.00000000000E+00 -0.00000000000E+00 -0.15007541795E+03  0.15007541795E+03  0.00000000000E+00 0. -1.
          6    2    1    2  501    0 -0.40633332274E+02  0.10001072429E+03 -0.36319764016E+02  0.20994277508E+03  0.17636221502E+03 0.  0.
         24    2    3    3    0    0 -0.70802051191E+02  0.48452678088E+02 -0.72225619724E+02  0.14008789548E+03  0.83949305237E+02 0.  0.
         -6    2    1    2    0  502  0.40633332274E+02 -0.10001072429E+03  0.36171976286E+03  0.41560805966E+03  0.17388404109E+03 0.  0.
        -24    2    5    5    0    0  0.68630652979E+02 -0.16074638507E+02  0.13206976643E+03  0.16945703422E+03  0.79402158105E+02 0.  0.
          5    1    3    3  501    0  0.30168718917E+02  0.51558046206E+02  0.35905855708E+02  0.69854879599E+02  0.47000000000E+01 0. -1.
        -13    1    4    4    0    0 -0.29899479687E+02 -0.14266767738E+02 -0.53462146915E+02  0.62894520430E+02  0.00000000000E+00 0.  1.
         14    1    4    4    0    0 -0.40902571504E+02  0.62719445826E+02 -0.18763472808E+02  0.77193375054E+02  0.00000000000E+00 0. -1.
         -5    1    5    5    0  502 -0.27997320705E+02 -0.83936085788E+02  0.22964999643E+03  0.24615102544E+03  0.47000000000E+01 0.  1.
         11    1    6    6    0    0  0.50634655198E+02 -0.46967505962E+02  0.99320360579E+02  0.12097251320E+03  0.00000000000E+00 0. -1.
        -12    1    6    6    0    0  0.17995997781E+02  0.30892867455E+02  0.32749405849E+02  0.48484521026E+02  0.00000000000E+00 0.  1.
<mgrwt>
<rscale>  2 0.20624786E+03</rscale>
<asrwt>0</asrwt>
<pdfrwt beam="1">  1       21 0.73150063E-01 0.20677728E+03</pdfrwt>
<pdfrwt beam="2">  1       21 0.23088526E-01 0.20677728E+03</pdfrwt>
<totfact> 0.29384716E+04</totfact>
</mgrwt>
</event>
<event>
12    1  0.1050690E-001  0.1871785E+03  0.7546771E-02  0.1161605E+00
         21   -1    0    0  503  502  0.00000000000E+00  0.00000000000E+00  0.41269275075E+03  0.41269275075E+03  0.00000000000E+00 0. -1.
         21   -1    0    0  501  503 -0.00000000000E+00 -0.00000000000E+00 -0.10062128151E+03  0.10062128151E+03  0.00000000000E+00 0. -1.
          6    2    1    2  501    0 -0.59974485358E+02 -0.27067082977E+02  0.51886551651E+02  0.19423695935E+03  0.17523189282E+03 0.  0.
         24    2    3    3    0    0  0.36925359464E+02 -0.21969905407E+02  0.23896050711E+02  0.93137407978E+02  0.79103707941E+02 0.  0.
         -6    2    1    2    0  502  0.59974485358E+02  0.27067082977E+02  0.26018491760E+03  0.31907707291E+03  0.17258163643E+03 0.  0.
        -24    2    5    5    0    0  0.94268288148E+02  0.82950516032E+01  0.11642390820E+03  0.17002080201E+03  0.79982677393E+02 0.  0.
          5    1    3    3  501    0 -0.96899844822E+02 -0.50971775704E+01  0.27990500940E+02  0.10109955138E+03  0.47000000000E+01 0. -1.
        -13    1    4    4    0    0  0.25932746259E+02 -0.39692107952E+02 -0.14382803956E+02  0.49546299679E+02  0.00000000000E+00 0.  1.
         14    1    4    4    0    0  0.10992613205E+02  0.17722202545E+02  0.38278854666E+02  0.43591108299E+02  0.00000000000E+00 0. -1.
         -5    1    5    5    0  502 -0.34293802790E+02  0.18772031374E+02  0.14376100939E+03  0.14905627090E+03  0.47000000000E+01 0.  1.
         13    1    6    6    0    0  0.26478002759E+02  0.39103412283E+02  0.30022402309E+02  0.55959861711E+02  0.00000000000E+00 0. -1.
        -14    1    6    6    0    0  0.67790285389E+02 -0.30808360680E+02  0.86401505893E+02  0.11406094030E+03  0.00000000000E+00 0.  1.
<mgrwt>
<rscale>  2 0.18655569E+03</rscale>
<asrwt>0</asrwt>
<pdfrwt beam="1">  1       21 0.63491191E-01 0.18717848E+03</pdfrwt>
<pdfrwt beam="2">  1       21 0.15480197E-01 0.18717848E+03</pdfrwt>
<totfact> 0.85137368E+04</totfact>
</mgrwt>
</event>
<event>
12    1  0.1050690E-001  0.1846908E+03  0.7546771E-02  0.1163385E+00
         21   -1    0    0  503  502  0.00000000000E+00  0.00000000000E+00  0.11401585800E+04  0.11401585800E+04  0.00000000000E+00 0. -1.
         21   -1    0    0  501  503 -0.00000000000E+00 -0.00000000000E+00 -0.48806613277E+02  0.48806613277E+02  0.00000000000E+00 0. -1.
          6    2    1    2  501    0  0.44054250687E+02 -0.32649506788E+02  0.17570981210E+03  0.25492082129E+03  0.17636303400E+03 0.  0.
         24    2    3    3    0    0 -0.32833871621E+02  0.41062959440E+01  0.13633586984E+03  0.16092523780E+03  0.78832340851E+02 0.  0.
         -6    2    1    2    0  502 -0.44054250687E+02  0.32649506788E+02  0.91564215465E+03  0.93404437201E+03  0.17615778786E+03 0.  0.
        -24    2    5    5    0    0  0.28908994506E+02  0.17647195679E+01  0.68116316338E+03  0.68649641186E+03  0.80344409581E+02 0.  0.
          5    1    3    3  501    0  0.76888122308E+02 -0.36755802732E+02  0.39373942262E+02  0.93995583491E+02  0.47000000000E+01 0. -1.
        -13    1    4    4    0    0 -0.53932427899E+01  0.37048776782E+02  0.36566144247E+02  0.52333372086E+02  0.00000000000E+00 0.  1.
         14    1    4    4    0    0 -0.27440628831E+02 -0.32942480838E+02  0.99769725596E+02  0.10859186572E+03  0.00000000000E+00 0. -1.
         -5    1    5    5    0  502 -0.72963245192E+02  0.30884787221E+02  0.23447899127E+03  0.24754796016E+03  0.47000000000E+01 0.  1.
         13    1    6    6    0    0 -0.14685551737E+02  0.30001280776E+02  0.27951272317E+03  0.28150151810E+03  0.00000000000E+00 0. -1.
        -14    1    6    6    0    0  0.43594546243E+02 -0.28236561208E+02  0.40165044021E+03  0.40499489376E+03  0.00000000000E+00 0.  1.
<mgrwt>
<rscale>  2 0.18464177E+03</rscale>
<asrwt>0</asrwt>
<pdfrwt beam="1">  1       21 0.17540899E+00 0.18469079E+03</pdfrwt>
<pdfrwt beam="2">  1       21 0.75087106E-02 0.18469079E+03</pdfrwt>
<totfact> 0.26353489E+04</totfact>
</mgrwt>
</event>
<event>
12    1  0.1050690E-001  0.3242347E+03  0.7546771E-02  0.1073760E+00
         21   -1    0    0  501  502  0.00000000000E+00  0.00000000000E+00  0.27866662699E+03  0.27866662699E+03  0.00000000000E+00 0. -1.
         21   -1    0    0  502  503 -0.00000000000E+00 -0.00000000000E+00 -0.51671367460E+03  0.51671367460E+03  0.00000000000E+00 0. -1.
         -6    2    1    2    0  503 -0.18290168907E+03  0.20632358706E+03 -0.32600969568E+03  0.45979391078E+03  0.17060383428E+03 0.  0.
        -24    2    3    3    0    0 -0.15877402818E+03  0.18119929693E+03 -0.18644453213E+03  0.31587067134E+03  0.83488563395E+02 0.  0.
          6    2    1    2  501    0  0.18290168907E+03 -0.20632358706E+03  0.87962648066E+02  0.33558639081E+03  0.16987744936E+03 0.  0.
         24    2    5    5    0    0  0.44222805094E+02 -0.82481297540E+02  0.83724738852E+02  0.14955199773E+03  0.81222824351E+02 0.  0.
          5    1    5    5  501    0  0.13867888397E+03 -0.12384228952E+03  0.42379092136E+01  0.18603439308E+03  0.47000000000E+01 0. -1.
        -11    1    6    6    0    0 -0.25389608184E+01  0.10647941738E+02  0.30770204409E+02  0.32659309004E+02  0.00000000000E+00 0.  1.
         12    1    6    6    0    0  0.46761765913E+02 -0.93129239279E+02  0.52954534444E+02  0.11689268873E+03  0.00000000000E+00 0. -1.
         -5    1    3    3    0  503 -0.24127660885E+02  0.25124290125E+02 -0.13956516355E+03  0.14392323944E+03  0.47000000000E+01 0.  1.
         11    1    4    4    0    0 -0.89200926731E+02  0.15834889463E+03 -0.13238762349E+03  0.22485030712E+03  0.00000000000E+00 0. -1.
        -12    1    4    4    0    0 -0.69573101451E+02  0.22850402308E+02 -0.54056908643E+02  0.91020364222E+02  0.00000000000E+00 0.  1.
<mgrwt>
<rscale>  2 0.32413922E+03</rscale>
<asrwt>0</asrwt>
<pdfrwt beam="1">  1       21 0.42871789E-01 0.32423467E+03</pdfrwt>
<pdfrwt beam="2">  1       21 0.79494411E-01 0.32423467E+03</pdfrwt>
<totfact> 0.67656588E+03</totfact>
</mgrwt>
</event>
<event>
12    1  0.1050690E-001  0.1985231E+03  0.7546771E-02  0.1151028E+00
         21   -1    0    0  501  502  0.00000000000E+00  0.00000000000E+00  0.82872780195E+02  0.82872780195E+02  0.00000000000E+00 0. -1.
         21   -1    0    0  502  503 -0.00000000000E+00 -0.00000000000E+00 -0.54077427896E+03  0.54077427896E+03  0.00000000000E+00 0. -1.
         -6    2    1    2    0  503  0.42635253422E+02 -0.88065577517E+02 -0.33765979068E+03  0.39169574036E+03  0.17273710659E+03 0.  0.
        -24    2    3    3    0    0 -0.39386353265E+02 -0.51916863957E+02 -0.22290935748E+03  0.24601106245E+03  0.81155502663E+02 0.  0.
          6    2    1    2  501    0 -0.42635253422E+02  0.88065577517E+02 -0.12024170808E+03  0.23195131879E+03  0.17253995233E+03 0.  0.
         24    2    5    5    0    0 -0.36456109243E+02 -0.20131062916E+02 -0.55113128117E+02  0.10542655145E+03  0.79642910946E+02 0.  0.
          5    1    5    5  501    0 -0.61791441789E+01  0.10819664043E+03 -0.65128579962E+02  0.12652476735E+03  0.47000000000E+01 0. -1.
        -11    1    6    6    0    0  0.24646700024E+02 -0.90989693766E+01 -0.79325160617E+01  0.27444049935E+02  0.00000000000E+00 0.  1.
         12    1    6    6    0    0 -0.61102809267E+02 -0.11032093540E+02 -0.47180612056E+02  0.77982501512E+02  0.00000000000E+00 0. -1.
         -5    1    3    3    0  503  0.82021606687E+02 -0.36148713560E+02 -0.11475043321E+03  0.14568467791E+03  0.47000000000E+01 0.  1.
         11    1    4    4    0    0 -0.25653930126E+02 -0.44767523857E+02 -0.48171197869E+02  0.70588381674E+02  0.00000000000E+00 0. -1.
        -12    1    4    4    0    0 -0.13732423139E+02 -0.71493401002E+01 -0.17473815961E+03  0.17542268078E+03  0.00000000000E+00 0.  1.
<mgrwt>
<rscale>  2 0.19848020E+03</rscale>
<asrwt>0</asrwt>
<pdfrwt beam="1">  1       21 0.12749658E-01 0.19852309E+03</pdfrwt>
<pdfrwt beam="2">  1       21 0.83196046E-01 0.19852309E+03</pdfrwt>
<totfact> 0.66060362E+04</totfact>
</mgrwt>
</event>
<event>
12    1  0.1050690E-001  0.1796415E+03  0.7546771E-02  0.1168185E+00
         21   -1    0    0  503  502  0.00000000000E+00  0.00000000000E+00  0.16272366901E+03  0.16272366901E+03  0.00000000000E+00 0.  1.
         21   -1    0    0  501  503 -0.00000000000E+00 -0.00000000000E+00 -0.28203792125E+03  0.28203792125E+03  0.00000000000E+00 0.  1.
          6    2    1    2  501    0 -0.36683752151E+02 -0.28090505196E+02 -0.18091393701E+03  0.25485219975E+03  0.17345032995E+03 0.  0.
         24    2    3    3    0    0 -0.42633586682E+02  0.95649346586E+01 -0.19339100853E+03  0.21446532075E+03  0.81769070789E+02 0.  0.
         -6    2    1    2    0  502  0.36683752151E+02  0.28090505196E+02  0.61599684778E+02  0.18990939050E+03  0.17359804516E+03 0.  0.
        -24    2    5    5    0    0  0.50251045877E+02  0.75383941926E+02  0.17173128911E+02  0.12345226536E+03  0.82083123437E+02 0.  0.
          5    1    3    3  501    0  0.59498345311E+01 -0.37655439855E+02  0.12477071517E+02  0.40386878999E+02  0.47000000000E+01 0. -1.
        -11    1    4    4    0    0 -0.40785841241E+02 -0.29366194140E+02 -0.79142751136E+02  0.93751977374E+02  0.00000000000E+00 0.  1.
         12    1    4    4    0    0 -0.18477454411E+01  0.38931128799E+02 -0.11424825739E+03  0.12071334338E+03  0.00000000000E+00 0. -1.
         -5    1    5    5    0  502 -0.13567293726E+02 -0.47293436729E+02  0.44426555867E+02  0.66457125148E+02  0.47000000000E+01 0.  1.
         13    1    6    6    0    0 -0.13527683733E+02  0.49665317133E+02 -0.36385709104E+01  0.51603111838E+02  0.00000000000E+00 0. -1.
        -14    1    6    6    0    0  0.63778729610E+02  0.25718624793E+02  0.20811699821E+02  0.71849153519E+02  0.00000000000E+00 0.  1.
<mgrwt>
<rscale>  2 0.17960577E+03</rscale>
<asrwt>0</asrwt>
<pdfrwt beam="1">  1       21 0.25034411E-01 0.17964146E+03</pdfrwt>
<pdfrwt beam="2">  1       21 0.43390449E-01 0.17964146E+03</pdfrwt>
<totfact> 0.77546020E+04</totfact>
</mgrwt>
</event>
<event>
12    1  0.1050690E-001  0.2212794E+03  0.7546771E-02  0.1132965E+00
         21   -1    0    0  501  502  0.00000000000E+00  0.00000000000E+00  0.11449817818E+04  0.11449817818E+04  0.00000000000E+00 0.  1.
         21   -1    0    0  502  503 -0.00000000000E+00 -0.00000000000E+00 -0.63126241647E+02  0.63126241647E+02  0.00000000000E+00 0.  1.
         -6    2    1    2    0  503  0.90874516742E+02  0.10397015687E+03  0.88442641503E+03  0.91168780379E+03  0.17290632340E+03 0.  0.
        -24    2    3    3    0    0  0.73636850393E+02  0.10080045137E+02  0.63622901151E+03  0.64572440155E+03  0.81539282655E+02 0.  0.
          6    2    1    2  501    0 -0.90874516742E+02 -0.10397015687E+03  0.19742912516E+03  0.29642021968E+03  0.17268096555E+03 0.  0.
         24    2    5    5    0    0 -0.10783232956E+03 -0.91940677379E+02  0.86159431180E+02  0.18312718993E+03  0.77660933918E+02 0.  0.
          5    1    5    5  501    0  0.16957812817E+02 -0.12029479493E+02  0.11126969398E+03  0.11329302975E+03  0.47000000000E+01 0. -1.
        -11    1    6    6    0    0 -0.72897458393E+02 -0.44859901621E+02  0.87758499400E+01  0.86043394609E+02  0.00000000000E+00 0.  1.
         12    1    6    6    0    0 -0.34934871166E+02 -0.47080775758E+02  0.77383581240E+02  0.97083795326E+02  0.00000000000E+00 0. -1.
         -5    1    3    3    0  503  0.17237666350E+02  0.93890111735E+02  0.24819740351E+03  0.26596340225E+03  0.47000000000E+01 0.  1.
         13    1    4    4    0    0  0.58586729101E+02  0.17441909868E+02  0.19905544323E+03  0.20822990785E+03  0.00000000000E+00 0. -1.
        -14    1    4    4    0    0  0.15050121292E+02 -0.73618647314E+01  0.43717356829E+03  0.43749449369E+03  0.00000000000E+00 0.  1.
<mgrwt>
<rscale>  2 0.22123536E+03</rscale>
<asrwt>0</asrwt>
<pdfrwt beam="1">  1       21 0.17615103E+00 0.22127939E+03</pdfrwt>
<pdfrwt beam="2">  1       21 0.97117303E-02 0.22127939E+03</pdfrwt>
<totfact> 0.16186699E+04</totfact>
</mgrwt>
</event>
<event>
12    1  0.1050690E-001  0.1885640E+03  0.7546771E-02  0.1160158E+00
         21   -1    0    0  503  502  0.00000000000E+00  0.00000000000E+00  0.33295258582E+03  0.33295258582E+03  0.00000000000E+00 0. -1.
         21   -1    0    0  501  503 -0.00000000000E+00 -0.00000000000E+00 -0.10868032725E+03  0.10868032725E+03  0.00000000000E+00 0. -1.
          6    2    1    2  501    0 -0.66724213141E+02  0.25247741401E+02  0.76791452457E+02  0.20360087933E+03  0.17454747729E+03 0.  0.
         24    2    3    3    0    0 -0.10684848316E+03  0.29585212363E+02  0.30965260449E+02  0.14235628305E+03  0.83753094433E+02 0.  0.
         -6    2    1    2    0  502  0.66724213141E+02 -0.25247741401E+02  0.14748080611E+03  0.23803203375E+03  0.17268205423E+03 0.  0.
        -24    2    5    5    0    0  0.95559243890E+02  0.20341195676E+02  0.12878630614E+03  0.18074866346E+03  0.80863053118E+02 0.  0.
          5    1    3    3  501    0  0.40124270016E+02 -0.43374709623E+01  0.45826192008E+02  0.61244596272E+02  0.47000000000E+01 0. -1.
        -11    1    4    4    0    0 -0.29822864181E+02  0.14566447844E+02 -0.28617457788E+02  0.43824006218E+02  0.00000000000E+00 0.  1.
         12    1    4    4    0    0 -0.77025618975E+02  0.15018764520E+02  0.59582718237E+02  0.98532276837E+02  0.00000000000E+00 0. -1.
         -5    1    5    5    0  502 -0.28835030749E+02 -0.45588937077E+02  0.18694499970E+02  0.57283370285E+02  0.47000000000E+01 0.  1.
         11    1    6    6    0    0 -0.14665048619E+02  0.37303463728E+01  0.19044460410E+02  0.24324280202E+02  0.00000000000E+00 0. -1.
        -12    1    6    6    0    0  0.11022429251E+03  0.16610849303E+02  0.10974184573E+03  0.15642438326E+03  0.00000000000E+00 0.  1.
<mgrwt>
<rscale>  2 0.18813118E+03</rscale>
<asrwt>0</asrwt>
<pdfrwt beam="1">  1       21 0.51223474E-01 0.18856402E+03</pdfrwt>
<pdfrwt beam="2">  1       21 0.16720051E-01 0.18856402E+03</pdfrwt>
<totfact> 0.11669558E+05</totfact>
</mgrwt>
</event>
<event>
12    1  0.1050690E-001  0.2271815E+03  0.7546771E-02  0.1128668E+00
         21   -1    0    0  503  502  0.00000000000E+00  0.00000000000E+00  0.37489646101E+02  0.37489646101E+02  0.00000000000E+00 0. -1.
         21   -1    0    0  501  503 -0.00000000000E+00 -0.00000000000E+00 -0.18347564425E+04  0.18347564425E+04  0.00000000000E+00 0.  1.
          6    2    1    2  501    0 -0.38238970826E+02 -0.14192815475E+03 -0.13666331570E+04  0.13853613245E+04  0.17301443182E+03 0.  0.
         24    2    3    3    0    0 -0.47858260183E+02 -0.45223780661E+02 -0.10205927704E+04  0.10259029738E+04  0.80818966568E+02 0.  0.
         -6    2    1    2    0  502  0.38238970826E+02  0.14192815475E+03 -0.43063363940E+03  0.48688476410E+03  0.17322130968E+03 0.  0.
        -24    2    5    5    0    0  0.27897105008E+02  0.24145851794E+02 -0.79288897108E+02  0.11614922087E+03  0.76437174703E+02 0.  0.
          5    1    3    3  501    0  0.96192893569E+01 -0.96704374092E+02 -0.34604038660E+03  0.35945835066E+03  0.47000000000E+01 0. -1.
        -11    1    4    4    0    0  0.18817896588E+02  0.25209840760E+01 -0.31269560687E+03  0.31327146559E+03  0.00000000000E+00 0.  1.
         12    1    4    4    0    0 -0.66676156770E+02 -0.47744764737E+02 -0.70789716350E+03  0.71263150824E+03  0.00000000000E+00 0. -1.
         -5    1    5    5    0  502  0.10341865817E+02  0.11778230296E+03 -0.35134474229E+03  0.37073554323E+03  0.47000000000E+01 0.  1.
         13    1    6    6    0    0  0.92364635281E+00  0.47579580510E+02 -0.34119806997E+02  0.58556219427E+02  0.00000000000E+00 0. -1.
        -14    1    6    6    0    0  0.26973458656E+02 -0.23433728716E+02 -0.45169090112E+02  0.57593001440E+02  0.00000000000E+00 0.  1.
<mgrwt>
<rscale>  2 0.22714208E+03</rscale>
<asrwt>0</asrwt>
<pdfrwt beam="1">  1       21 0.57676366E-02 0.22718152E+03</pdfrwt>
<pdfrwt beam="2">  1       21 0.28227028E+00 0.22718152E+03</pdfrwt>
<totfact> 0.88051018E+03</totfact>
</mgrwt>
</event>
<event>
12    1  0.1050690E-001  0.1962027E+03  0.7546771E-02  0.1153169E+00
         21   -1    0    0  503  502  0.00000000000E+00  0.00000000000E+00  0.40400488826E+02  0.40400488826E+02  0.00000000000E+00 0. -1.
         21   -1    0    0  501  503 -0.00000000000E+00 -0.00000000000E+00 -0.20220613151E+04  0.20220613151E+04  0.00000000000E+00 0. -1.
          6    2    1    2  501    0  0.41177231532E+02  0.79541188420E+02 -0.17411482212E+04  0.17520720021E+04  0.17359956080E+03 0.  0.
         24    2    3    3    0    0  0.51718388666E+02  0.11510979013E+03 -0.13224999389E+04  0.13317569825E+04  0.92981270796E+02 0.  0.
         -6    2    1    2    0  502 -0.41177231532E+02 -0.79541188420E+02 -0.24051260510E+03  0.31038980180E+03  0.17456560599E+03 0.  0.
        -24    2    5    5    0    0 -0.65000706513E+02  0.10637566153E+02 -0.12165343198E+03  0.15922975822E+03  0.78843571273E+02 0.  0.
          5    1    3    3  501    0 -0.10541157134E+02 -0.35568601707E+02 -0.41864828232E+03  0.42031501962E+03  0.47000000000E+01 0. -1.
        -11    1    4    4    0    0  0.17808683554E+02  0.82749527206E+02 -0.44331292112E+03  0.45132137053E+03  0.00000000000E+00 0.  1.
         12    1    4    4    0    0  0.33909705112E+02  0.32360262921E+02 -0.87918701774E+03  0.88043561200E+03  0.00000000000E+00 0. -1.
         -5    1    5    5    0  502  0.23823474981E+02 -0.90178754573E+02 -0.11885917313E+03  0.15116004357E+03  0.47000000000E+01 0.  1.
         11    1    6    6    0    0 -0.59358688043E+02 -0.26032568732E+02 -0.67453250849E+02  0.93547258277E+02  0.00000000000E+00 0. -1.
        -12    1    6    6    0    0 -0.56420184699E+01  0.36670134885E+02 -0.54200181126E+02  0.65682499945E+02  0.00000000000E+00 0.  1.
<mgrwt>
<rscale>  2 0.19598764E+03</rscale>
<asrwt>0</asrwt>
<pdfrwt beam="1">  1       21 0.62154599E-02 0.19620274E+03</pdfrwt>
<pdfrwt beam="2">  1       21 0.31108635E+00 0.19620274E+03</pdfrwt>
<totfact> 0.54467174E+03</totfact>
</mgrwt>
</event>
<event>
12    1  0.1050690E-001  0.2159388E+03  0.7546771E-02  0.1138888E+00
         21   -1    0    0  501  502  0.00000000000E+00  0.00000000000E+00  0.21118464843E+02  0.21118464843E+02  0.00000000000E+00 0.  1.
         21   -1    0    0  502  503 -0.00000000000E+00 -0.00000000000E+00 -0.23400153289E+04  0.23400153289E+04  0.00000000000E+00 0.  1.
         -6    2    1    2    0  503  0.98411292945E+02  0.53111621607E+02 -0.15557817958E+04  0.15706961994E+04  0.18472663005E+03 0.  0.
        -24    2    3    3    0    0 -0.25892398768E+01  0.73561722852E+02 -0.62404001790E+03  0.63326132439E+03  0.78587084136E+02 0.  0.
          6    2    1    2  501    0 -0.98411292945E+02 -0.53111621607E+02 -0.76311506823E+03  0.79043759428E+03  0.17303570777E+03 0.  0.
         24    2    5    5    0    0 -0.99884844841E+02 -0.37690405862E+02 -0.31005787778E+03  0.33709126632E+03  0.78083835314E+02 0.  0.
          5    1    5    5  501    0  0.14735518969E+01 -0.15421215745E+02 -0.45305719045E+03  0.45334632795E+03  0.47000000000E+01 0. -1.
        -13    1    6    6    0    0 -0.90132019002E+02 -0.36738711276E+02 -0.31223444274E+03  0.32705329992E+03  0.00000000000E+00 0.  1.
         14    1    6    6    0    0 -0.97528258393E+01 -0.95169458608E+00  0.21765649651E+01  0.10037966402E+02  0.00000000000E+00 0. -1.
         -5    1    3    3    0  503  0.10100053282E+03 -0.20450101244E+02 -0.93174177789E+03  0.93743487504E+03  0.47000000000E+01 0.  1.
         11    1    4    4    0    0 -0.24101084373E+01  0.19835165750E+02 -0.46426793321E+03  0.46469770413E+03  0.00000000000E+00 0. -1.
        -12    1    4    4    0    0 -0.17913143957E+00  0.53726557101E+02 -0.15977208469E+03  0.16856362026E+03  0.00000000000E+00 0.  1.
<mgrwt>
<rscale>  2 0.21341691E+03</rscale>
<asrwt>0</asrwt>
<pdfrwt beam="1">  1       21 0.32489966E-02 0.21593878E+03</pdfrwt>
<pdfrwt beam="2">  1       21 0.36000214E+00 0.21593878E+03</pdfrwt>
<totfact> 0.82295734E+03</totfact>
</mgrwt>
</event>
<event>
12    1  0.1050690E-001  0.2071614E+03  0.7546771E-02  0.1144097E+00
         21   -1    0    0  501  502  0.00000000000E+00  0.00000000000E+00  0.18636544969E+04  0.18636544969E+04  0.00000000000E+00 0. -1.
         21   -1    0    0  502  503 -0.00000000000E+00 -0.00000000000E+00 -0.32476344675E+02  0.32476344675E+02  0.00000000000E+00 0.  1.
         -6    2    1    2    0  503 -0.11357263425E+03 -0.35277738344E+01  0.39829801022E+03  0.44835276238E+03  0.17166160360E+03 0.  0.
        -24    2    3    3    0    0 -0.73108161611E+01  0.16100984153E+02  0.25823722646E+03  0.27138955922E+03  0.81566770217E+02 0.  0.
          6    2    1    2  501    0  0.11357263425E+03  0.35277738344E+01  0.14328801420E+04  0.14477780792E+04  0.17321858102E+03 0.  0.
         24    2    5    5    0    0  0.10779863282E+03 -0.28050016303E+02  0.64437852994E+03  0.65860928980E+03  0.78327250136E+02 0.  0.
          5    1    5    5  501    0  0.57740014239E+01  0.31577790137E+02  0.78850161208E+03  0.78916878941E+03  0.47000000000E+01 0. -1.
        -13    1    6    6    0    0  0.41247415175E+02 -0.50312983191E+02  0.27166764638E+03  0.27934934334E+03  0.00000000000E+00 0.  1.
         14    1    6    6    0    0  0.66551217646E+02  0.22262966888E+02  0.37271088356E+03  0.37925994646E+03  0.00000000000E+00 0. -1.
         -5    1    3    3    0  503 -0.10626181808E+03 -0.19628757987E+02  0.14006078376E+03  0.17696320315E+03  0.47000000000E+01 0.  1.
         13    1    4    4    0    0 -0.33233243436E+02  0.15893542528E+02  0.53136702430E+02  0.64657268026E+02  0.00000000000E+00 0. -1.
        -14    1    4    4    0    0  0.25922427275E+02  0.20744162541E+00  0.20510052403E+03  0.20673229120E+03  0.00000000000E+00 0.  1.
<mgrwt>
<rscale>  2 0.20683565E+03</rscale>
<asrwt>0</asrwt>
<pdfrwt beam="1">  1       21 0.28671599E+00 0.20716145E+03</pdfrwt>
<pdfrwt beam="2">  1       21 0.49963622E-02 0.20716145E+03</pdfrwt>
<totfact> 0.10804269E+04</totfact>
</mgrwt>
</event>
<event>
12    1  0.1050690E-001  0.3167965E+03  0.7546771E-02  0.1077150E+00
         21   -1    0    0  503  502  0.00000000000E+00  0.00000000000E+00  0.31292078921E+03  0.31292078921E+03  0.00000000000E+00 0.  1.
         21   -1    0    0  501  503 -0.00000000000E+00 -0.00000000000E+00 -0.38186495287E+03  0.38186495287E+03  0.00000000000E+00 0. -1.
          6    2    1    2  501    0 -0.54839023776E+02  0.25967300715E+03 -0.17365340718E+03  0.36126931743E+03  0.17298157336E+03 0.  0.
         24    2    3    3    0    0 -0.10046337491E+03  0.20503004757E+03 -0.15642745517E+03  0.28787818806E+03  0.79209168192E+02 0.  0.
         -6    2    1    2    0  502  0.54839023776E+02 -0.25967300715E+03  0.10470924352E+03  0.33351642464E+03  0.17271881964E+03 0.  0.
        -24    2    5    5    0    0  0.10974047233E+02 -0.11855907981E+03  0.11500440474E+03  0.18530928244E+03  0.83287645720E+02 0.  0.
          5    1    3    3  501    0  0.45624351132E+02  0.54642959573E+02 -0.17225952014E+02  0.73391129368E+02  0.47000000000E+01 0. -1.
        -11    1    4    4    0    0 -0.55929920050E+02  0.11492588720E+03 -0.39689033200E+02  0.13383323527E+03  0.00000000000E+00 0.  1.
         12    1    4    4    0    0 -0.44533454858E+02  0.90104160375E+02 -0.11673842197E+03  0.15404495280E+03  0.00000000000E+00 0. -1.
         -5    1    5    5    0  502  0.43864976543E+02 -0.14111392734E+03 -0.10295161217E+02  0.14820714221E+03  0.47000000000E+01 0.  1.
         13    1    6    6    0    0 -0.30421918993E+01 -0.92820700782E+02  0.33553203316E+02  0.98745910690E+02  0.00000000000E+00 0. -1.
        -14    1    6    6    0    0  0.14016239132E+02 -0.25738379024E+02  0.81451201426E+02  0.86563371745E+02  0.00000000000E+00 0.  1.
<mgrwt>
<rscale>  2 0.31676063E+03</rscale>
<asrwt>0</asrwt>
<pdfrwt beam="1">  1       21 0.48141660E-01 0.31679649E+03</pdfrwt>
<pdfrwt beam="2">  1       21 0.58748454E-01 0.31679649E+03</pdfrwt>
<totfact> 0.10451177E+04</totfact>
</mgrwt>
</event>
<event>
12    1  0.1050690E-001  0.1829860E+03  0.7546771E-02  0.1165204E+00
         21   -1    0    0  503  502  0.00000000000E+00  0.00000000000E+00  0.13319655972E+03  0.13319655972E+03  0.00000000000E+00 0.  1.
         21   -1    0    0  501  503 -0.00000000000E+00 -0.00000000000E+00 -0.40749117829E+03  0.40749117829E+03  0.00000000000E+00 0. -1.
          6    2    1    2  501    0  0.37470682054E+02  0.40640945100E+02 -0.30552600430E+03  0.35613200220E+03  0.17443659381E+03 0.  0.
         24    2    3    3    0    0  0.73024609188E+02  0.37353109277E+02 -0.11613827107E+03  0.16335053241E+03  0.80420458292E+02 0.  0.
         -6    2    1    2    0  502 -0.37470682054E+02 -0.40640945100E+02  0.31231385728E+02  0.18455573581E+03  0.17329074336E+03 0.  0.
        -24    2    5    5    0    0 -0.37800500767E+02  0.34264612105E+02 -0.17124248437E+02  0.95273550377E+02  0.78618496652E+02 0.  0.
          5    1    3    3  501    0 -0.35553927134E+02  0.32878358225E+01 -0.18938773322E+03  0.19278146979E+03  0.47000000000E+01 0. -1.
        -13    1    4    4    0    0  0.28390475940E+02  0.58756859107E+02 -0.62427275287E+02  0.90308096625E+02  0.00000000000E+00 0.  1.
         14    1    4    4    0    0  0.44634133247E+02 -0.21403749829E+02 -0.53710995787E+02  0.73042435789E+02  0.00000000000E+00 0. -1.
         -5    1    5    5    0  502  0.32981871312E+00 -0.74905557205E+02  0.48355634165E+02  0.89282185435E+02  0.47000000000E+01 0.  1.
         13    1    6    6    0    0 -0.51141770384E+02  0.17211087676E+02 -0.37364894196E+02  0.65634118683E+02  0.00000000000E+00 0. -1.
        -14    1    6    6    0    0  0.13341269616E+02  0.17053524429E+02  0.20240645759E+02  0.29639431694E+02  0.00000000000E+00 0.  1.
<mgrwt>
<rscale>  2 0.18271236E+03</rscale>
<asrwt>0</asrwt>
<pdfrwt beam="1">  1       21 0.20491779E-01 0.18298597E+03</pdfrwt>
<pdfrwt beam="2">  1       21 0.62690949E-01 0.18298597E+03</pdfrwt>
<totfact> 0.52235538E+04</totfact>
</mgrwt>
</event>
<event>
12    1  0.1050690E-001  0.1973844E+03  0.7546771E-02  0.1152151E+00
         21   -1    0    0  501  502  0.00000000000E+00  0.00000000000E+00  0.71563910014E+03  0.71563910014E+03  0.00000000000E+00 0.  1.
         21   -1    0    0  502  503 -0.00000000000E+00 -0.00000000000E+00 -0.88046619844E+02  0.88046619844E+02  0.00000000000E+00 0.  1.
         -6    2    1    2    0  503 -0.28297867391E+02 -0.89971328103E+02  0.65085092923E+02  0.20783811440E+03  0.17339262758E+03 0.  0.
        -24    2    3    3    0    0 -0.22260771673E+02 -0.12927328615E+03  0.66713445134E+02  0.16776528119E+03  0.80544281886E+02 0.  0.
          6    2    1    2  501    0  0.28297867391E+02  0.89971328103E+02  0.56250738737E+03  0.59584760558E+03  0.17240707366E+03 0.  0.
         24    2    5    5    0    0  0.78315825809E+02  0.49384614767E+02  0.45736569285E+03  0.47245415603E+03  0.73873837113E+02 0.  0.
          5    1    5    5  501    0 -0.50017958418E+02  0.40586713337E+02  0.10514169452E+03  0.12339344954E+03  0.47000000000E+01 0. -1.
        -11    1    6    6    0    0  0.60334659271E+02  0.32686809121E+02  0.43103095703E+03  0.43645891504E+03  0.00000000000E+00 0.  1.
         12    1    6    6    0    0  0.17981166538E+02  0.16697805645E+02  0.26334735817E+02  0.35995240991E+02  0.00000000000E+00 0. -1.
         -5    1    3    3    0  503 -0.60370957178E+01  0.39301958044E+02 -0.16283522107E+01  0.40072833214E+02  0.47000000000E+01 0.  1.
         11    1    4    4    0    0 -0.21071162841E+02  0.26460908252E+01  0.15309103833E+02  0.26179464476E+02  0.00000000000E+00 0. -1.
        -12    1    4    4    0    0 -0.11896088327E+01 -0.13191937697E+03  0.51404341301E+02  0.14158581671E+03  0.00000000000E+00 0.  1.
<mgrwt>
<rscale>  2 0.19716777E+03</rscale>
<asrwt>0</asrwt>
<pdfrwt beam="1">  1       21 0.11009832E+00 0.19738443E+03</pdfrwt>
<pdfrwt beam="2">  1       21 0.13545634E-01 0.19738443E+03</pdfrwt>
<totfact> 0.30674739E+04</totfact>
</mgrwt>
</event>
<event>
12    1  0.1050690E-001  0.2235764E+03  0.7546771E-02  0.1131313E+00
         21   -1    0    0  501  502  0.00000000000E+00  0.00000000000E+00  0.16568798629E+04  0.16568798629E+04  0.00000000000E+00 0.  1.
         21   -1    0    0  502  503 -0.00000000000E+00 -0.00000000000E+00 -0.81382701048E+02  0.81382701048E+02  0.00000000000E+00 0.  1.
         -6    2    1    2    0  503 -0.49845373682E+02 -0.13171117474E+03  0.98187307556E+02  0.24418675929E+03  0.17364916130E+03 0.  0.
        -24    2    3    3    0    0 -0.82186037553E+02 -0.95316838071E+02  0.11561165746E+03  0.19226215770E+03  0.88084263925E+02 0.  0.
          6    2    1    2  501    0  0.49845373682E+02  0.13171117474E+03  0.14773098543E+04  0.14940758046E+04  0.17316382310E+03 0.  0.
         24    2    5    5    0    0  0.79772695384E+02  0.14216880057E+03  0.10536045321E+04  0.10691601700E+04  0.80282677200E+02 0.  0.
          5    1    5    5  501    0 -0.29927321703E+02 -0.10457625831E+02  0.42370532218E+03  0.42491563464E+03  0.47000000000E+01 0. -1.
        -13    1    6    6    0    0  0.79268810820E+02  0.68906789558E+02  0.71881796916E+03  0.72645093627E+03  0.00000000000E+00 0.  1.
         14    1    6    6    0    0  0.50388456449E+00  0.73262011014E+02  0.33478656292E+03  0.34270923371E+03  0.00000000000E+00 0. -1.
         -5    1    3    3    0  503  0.32340663871E+02 -0.36394336669E+02 -0.17424349908E+02  0.51924601597E+02  0.47000000000E+01 0.  1.
         11    1    4    4    0    0 -0.53717092616E+02  0.12004082996E+00  0.46392473270E+02  0.70977475477E+02  0.00000000000E+00 0. -1.
        -12    1    4    4    0    0 -0.28468944937E+02 -0.95436878901E+02  0.69219184195E+02  0.12128468222E+03  0.00000000000E+00 0.  1.
<mgrwt>
<rscale>  2 0.22348220E+03</rscale>
<asrwt>0</asrwt>
<pdfrwt beam="1">  1       21 0.25490457E+00 0.22357644E+03</pdfrwt>
<pdfrwt beam="2">  1       21 0.12520417E-01 0.22357644E+03</pdfrwt>
<totfact> 0.32773986E+03</totfact>
</mgrwt>
</event>
<event>
12    1  0.1050690E-001  0.2398795E+03  0.7546771E-02  0.1120174E+00
         21   -1    0    0  501  502  0.00000000000E+00  0.00000000000E+00  0.17351674263E+03  0.17351674263E+03  0.00000000000E+00 0.  1.
         21   -1    0    0  502  503 -0.00000000000E+00 -0.00000000000E+00 -0.36603492101E+03  0.36603492101E+03  0.00000000000E+00 0.  1.
         -6    2    1    2    0  503 -0.81805326614E+02  0.14523983294E+03 -0.10934752743E+02  0.24012859523E+03  0.17249768953E+03 0.  0.
        -24    2    3    3    0    0 -0.47851391256E+02  0.50675560455E+02  0.55390545598E+02  0.11964454418E+03  0.79930822199E+02 0.  0.
          6    2    1    2  501    0  0.81805326614E+02 -0.14523983294E+03 -0.18158342564E+03  0.29942306841E+03  0.16998503727E+03 0.  0.
         24    2    5    5    0    0  0.49190945201E+02 -0.68409722305E+02 -0.27824716030E+02  0.12440765607E+03  0.87197539367E+02 0.  0.
          5    1    5    5  501    0  0.32614381413E+02 -0.76830110637E+02 -0.15375870961E+03  0.17501541234E+03  0.47000000000E+01 0. -1.
        -11    1    6    6    0    0  0.30576978585E+02 -0.82216857572E+02 -0.41984618117E+02  0.97248503572E+02  0.00000000000E+00 0.  1.
         12    1    6    6    0    0  0.18613966616E+02  0.13807135267E+02  0.14159902087E+02  0.27159152501E+02  0.00000000000E+00 0. -1.
         -5    1    3    3    0  503 -0.33953935358E+02  0.94564272488E+02 -0.66325298340E+02  0.12048405105E+03  0.47000000000E+01 0.  1.
         13    1    4    4    0    0 -0.49039213903E+02  0.69830673366E+02  0.36806543066E+02  0.92929484317E+02  0.00000000000E+00 0. -1.
        -14    1    4    4    0    0  0.11878226474E+01 -0.19155112911E+02  0.18584002532E+02  0.26715059861E+02  0.00000000000E+00 0.  1.
<mgrwt>
<rscale>  2 0.23942811E+03</rscale>
<asrwt>0</asrwt>
<pdfrwt beam="1">  1       21 0.26694883E-01 0.23987950E+03</pdfrwt>
<pdfrwt beam="2">  1       21 0.56313065E-01 0.23987950E+03</pdfrwt>
<totfact> 0.38737908E+04</totfact>
</mgrwt>
</event>
<event>
12    1  0.1050690E-001  0.2036130E+03  0.7546771E-02  0.1147605E+00
         21   -1    0    0  503  502  0.00000000000E+00  0.00000000000E+00  0.51589563174E+02  0.51589563174E+02  0.00000000000E+00 0.  1.
         21   -1    0    0  501  503 -0.00000000000E+00 -0.00000000000E+00 -0.10190807851E+04  0.10190807851E+04  0.00000000000E+00 0. -1.
          6    2    1    2  501    0 -0.82937357290E+02 -0.69489986463E+02 -0.73526247204E+03  0.76182014398E+03  0.16748601596E+03 0.  0.
         24    2    3    3    0    0  0.82064376798E+01 -0.30753401335E+02 -0.46166612950E+03  0.47081367835E+03  0.86699407640E+02 0.  0.
         -6    2    1    2    0  502  0.82937357290E+02  0.69489986463E+02 -0.23222874987E+03  0.30885020427E+03  0.17248418176E+03 0.  0.
        -24    2    5    5    0    0  0.84243146365E+02  0.10902457112E+03 -0.19690008346E+03  0.25560648972E+03  0.87073359322E+02 0.  0.
          5    1    3    3  501    0 -0.91143794970E+02 -0.38736585128E+02 -0.27359634254E+03  0.29100646563E+03  0.47000000000E+01 0. -1.
        -11    1    4    4    0    0  0.38200263068E+02  0.59397018769E+01 -0.12538617852E+03  0.13121064713E+03  0.00000000000E+00 0.  1.
         12    1    4    4    0    0 -0.29993825388E+02 -0.36693103212E+02 -0.33627995098E+03  0.33960303122E+03  0.00000000000E+00 0. -1.
         -5    1    5    5    0  502 -0.13057890745E+01 -0.39534584654E+02 -0.35328666410E+02  0.53243714551E+02  0.47000000000E+01 0.  1.
         13    1    6    6    0    0  0.54634832871E+02  0.20852652277E+02 -0.32981893870E+02  0.67138687752E+02  0.00000000000E+00 0. -1.
        -14    1    6    6    0    0  0.29608313494E+02  0.88171918840E+02 -0.16391818959E+03  0.18846780197E+03  0.00000000000E+00 0.  1.
<mgrwt>
<rscale>  2 0.20255063E+03</rscale>
<asrwt>0</asrwt>
<pdfrwt beam="1">  1       21 0.79368566E-02 0.20361301E+03</pdfrwt>
<pdfrwt beam="2">  1       21 0.15678165E+00 0.20361301E+03</pdfrwt>
<totfact> 0.32120884E+04</totfact>
</mgrwt>
</event>
<event>
12    1  0.1050690E-001  0.1879901E+03  0.7546771E-02  0.1160388E+00
         21   -1    0    0  501  502  0.00000000000E+00  0.00000000000E+00  0.50804850551E+03  0.50804850551E+03  0.00000000000E+00 0. -1.
         21   -1    0    0  502  503 -0.00000000000E+00 -0.00000000000E+00 -0.19989283142E+03  0.19989283142E+03  0.00000000000E+00 0. -1.
         -6    2    1    2    0  503 -0.43524748010E+02  0.56315304413E+02 -0.13198435175E+03  0.22933551803E+03  0.17351972085E+03 0.  0.
        -24    2    3    3    0    0 -0.51349111855E+02 -0.13737388129E+02 -0.12596921469E+03  0.15843507885E+03  0.80049884692E+02 0.  0.
          6    2    1    2  501    0  0.43524748010E+02 -0.56315304413E+02  0.44014002583E+03  0.47860581890E+03  0.17399560439E+03 0.  0.
         24    2    5    5    0    0  0.25151475149E+02  0.13813873588E+02  0.36110674791E+03  0.37125579430E+03  0.81297980362E+02 0.  0.
          5    1    5    5  501    0  0.18373272861E+02 -0.70129178000E+02  0.79033277926E+02  0.10735002460E+03  0.47000000000E+01 0. -1.
        -13    1    6    6    0    0  0.44554716490E+02 -0.63214679406E+01  0.11382073741E+03  0.12239380696E+03  0.00000000000E+00 0.  1.
         14    1    6    6    0    0 -0.19403241341E+02  0.20135341529E+02  0.24728601050E+03  0.24886198734E+03  0.00000000000E+00 0. -1.
         -5    1    3    3    0  503  0.78243638450E+01  0.70052692542E+02 -0.60151370572E+01  0.70900439179E+02  0.47000000000E+01 0.  1.
         13    1    4    4    0    0 -0.57953183427E+02  0.16613759318E+02 -0.57782654892E+02  0.83507027694E+02  0.00000000000E+00 0. -1.
        -14    1    4    4    0    0  0.66040715715E+01 -0.30351147447E+02 -0.68186559799E+02  0.74928051155E+02  0.00000000000E+00 0.  1.
<mgrwt>
<rscale>  2 0.18787994E+03</rscale>
<asrwt>0</asrwt>
<pdfrwt beam="1">  1       21 0.78161308E-01 0.18799013E+03</pdfrwt>
<pdfrwt beam="2">  1       21 0.30752743E-01 0.18799013E+03</pdfrwt>
<totfact> 0.14759827E+04</totfact>
</mgrwt>
</event>
<event>
12    1  0.1050690E-001  0.1899580E+03  0.7546771E-02  0.1158618E+00
         21   -1    0    0  501  502  0.00000000000E+00  0.00000000000E+00  0.71347003007E+02  0.71347003007E+02  0.00000000000E+00 0.  1.
         21   -1    0    0  502  503 -0.00000000000E+00 -0.00000000000E+00 -0.60154848312E+03  0.60154848312E+03  0.00000000000E+00 0.  1.
         -6    2    1    2    0  503 -0.31142484171E+02  0.72812954125E+02 -0.40002979846E+03  0.44261589387E+03  0.17208547075E+03 0.  0.
        -24    2    3    3    0    0 -0.47510261468E+02 -0.13347109012E+02 -0.26290375808E+03  0.27977516935E+03  0.81977979406E+02 0.  0.
          6    2    1    2  501    0  0.31142484171E+02 -0.72812954125E+02 -0.13017168166E+03  0.23027959226E+03  0.17266280230E+03 0.  0.
         24    2    5    5    0    0  0.83069232607E+02 -0.71851278706E+02 -0.84371363098E+02  0.16087446851E+03  0.81847199395E+02 0.  0.
          5    1    5    5  501    0 -0.51926748436E+02 -0.96167541937E+00 -0.45800318564E+02  0.69405123754E+02  0.47000000000E+01 0. -1.
        -13    1    6    6    0    0  0.65527562105E+02 -0.22243508553E+02 -0.10219277001E+02  0.69950473126E+02  0.00000000000E+00 0.  1.
         14    1    6    6    0    0  0.17541670502E+02 -0.49607770153E+02 -0.74152086097E+02  0.90923995381E+02  0.00000000000E+00 0. -1.
         -5    1    3    3    0  503  0.16367777297E+02  0.86160063138E+02 -0.13712604038E+03  0.16284072452E+03  0.47000000000E+01 0.  1.
         11    1    4    4    0    0 -0.68473274332E+02 -0.22704164984E+02 -0.21190626975E+03  0.22384891236E+03  0.00000000000E+00 0. -1.
        -12    1    4    4    0    0  0.20963012863E+02  0.93570559717E+01 -0.50997488328E+02  0.55926256986E+02  0.00000000000E+00 0.  1.
<mgrwt>
<rscale>  2 0.18982666E+03</rscale>
<asrwt>0</asrwt>
<pdfrwt beam="1">  1       21 0.10976462E-01 0.18995795E+03</pdfrwt>
<pdfrwt beam="2">  1       21 0.92545923E-01 0.18995795E+03</pdfrwt>
<totfact> 0.67826986E+04</totfact>
</mgrwt>
</event>
<event>
12    1  0.1050690E-001  0.2038744E+03  0.7546771E-02  0.1148595E+00
         21   -1    0    0  501  502  0.00000000000E+00  0.00000000000E+00  0.11505278839E+04  0.11505278839E+04  0.00000000000E+00 0.  1.
         21   -1    0    0  502  503 -0.00000000000E+00 -0.00000000000E+00 -0.25152728458E+03  0.25152728458E+03  0.00000000000E+00 0.  1.
         -6    2    1    2    0  503  0.15329493781E+02  0.85613919881E+02 -0.20332501117E+03  0.28103486409E+03  0.17342086958E+03 0.  0.
        -24    2    3    3    0    0 -0.13635638692E+02  0.81215664769E+02 -0.71725057914E+02  0.14613133839E+03  0.97097730567E+02 0.  0.
          6    2    1    2  501    0 -0.15329493781E+02 -0.85613919881E+02  0.11023256105E+04  0.11210203044E+04  0.18439098317E+03 0.  0.
         24    2    5    5    0    0 -0.35422682401E+02 -0.12311882254E+03  0.97617927444E+03  0.98780866057E+03  0.80168342654E+02 0.  0.
          5    1    5    5  501    0  0.20093188620E+02  0.37504902655E+02  0.12614633607E+03  0.13321164384E+03  0.47000000000E+01 0. -1.
        -13    1    6    6    0    0  0.23222514338E+02 -0.16158348710E+02  0.14604174723E+03  0.14875674552E+03  0.00000000000E+00 0.  1.
         14    1    6    6    0    0 -0.58645196739E+02 -0.10696047383E+03  0.83013752721E+03  0.83905191505E+03  0.00000000000E+00 0. -1.
         -5    1    3    3    0  503  0.28965132473E+02  0.43982551119E+01 -0.13159995326E+03  0.13490352569E+03  0.47000000000E+01 0.  1.
         11    1    4    4    0    0 -0.48828101354E+02  0.42171267675E+02 -0.67535800357E+02  0.93400661823E+02  0.00000000000E+00 0. -1.
        -12    1    4    4    0    0  0.35192462661E+02  0.39044397095E+02 -0.41892575574E+01  0.52730676570E+02  0.00000000000E+00 0.  1.
<mgrwt>
<rscale>  2 0.20136202E+03</rscale>
<asrwt>0</asrwt>
<pdfrwt beam="1">  1       21 0.17700429E+00 0.20387440E+03</pdfrwt>
<pdfrwt beam="2">  1       21 0.38696506E-01 0.20387440E+03</pdfrwt>
<totfact> 0.12139800E+03</totfact>
</mgrwt>
</event>
<event>
12    1  0.1050690E-001  0.1782518E+03  0.7546771E-02  0.1169769E+00
         21   -1    0    0  503  502  0.00000000000E+00  0.00000000000E+00  0.26519279044E+03  0.26519279044E+03  0.00000000000E+00 0. -1.
         21   -1    0    0  501  503 -0.00000000000E+00 -0.00000000000E+00 -0.22504585057E+03  0.22504585057E+03  0.00000000000E+00 0. -1.
          6    2    1    2  501    0  0.17661354756E+02 -0.37062107871E+02 -0.14808095300E+03  0.23173623097E+03  0.17345947311E+03 0.  0.
         24    2    3    3    0    0  0.76716876656E+02 -0.93387661569E+01 -0.10208678468E+03  0.15177566655E+03  0.81495089634E+02 0.  0.
         -6    2    1    2    0  502 -0.17661354756E+02  0.37062107871E+02  0.18822789287E+03  0.25850241004E+03  0.17236076424E+03 0.  0.
        -24    2    5    5    0    0 -0.57497055080E+02  0.32582289833E+02  0.19219363261E+03  0.21794665975E+03  0.78707287635E+02 0.  0.
          5    1    3    3  501    0 -0.59055521900E+02 -0.27723341714E+02 -0.45994168321E+02  0.79960564419E+02  0.47000000000E+01 0. -1.
        -11    1    4    4    0    0 -0.10357625298E+02  0.31358210300E+01 -0.46449565454E+02  0.47693562524E+02  0.00000000000E+00 0.  1.
         12    1    4    4    0    0  0.87074501954E+02 -0.12474587187E+02 -0.55637219222E+02  0.10408210403E+03  0.00000000000E+00 0. -1.
         -5    1    5    5    0  502  0.39835700324E+02  0.44798180377E+01 -0.39657397385E+01  0.40555750290E+02  0.47000000000E+01 0.  1.
         13    1    6    6    0    0 -0.19566058112E+02  0.54609144851E+02  0.12347651234E+03  0.13642374585E+03  0.00000000000E+00 0. -1.
        -14    1    6    6    0    0 -0.37930996968E+02 -0.22026855018E+02  0.68717120272E+02  0.81522913904E+02  0.00000000000E+00 0.  1.
<mgrwt>
<rscale>  2 0.17798397E+03</rscale>
<asrwt>0</asrwt>
<pdfrwt beam="1">  1       21 0.40798890E-01 0.17825182E+03</pdfrwt>
<pdfrwt beam="2">  1       21 0.34622439E-01 0.17825182E+03</pdfrwt>
<totfact> 0.46855579E+04</totfact>
</mgrwt>
</event>
<event>
12    1  0.1050690E-001  0.2181413E+03  0.7546771E-02  0.1135642E+00
         21   -1    0    0  503  502  0.00000000000E+00  0.00000000000E+00  0.44113243371E+03  0.44113243371E+03  0.00000000000E+00 0.  1.
         21   -1    0    0  501  503 -0.00000000000E+00 -0.00000000000E+00 -0.10934731597E+03  0.10934731597E+03  0.00000000000E+00 0. -1.
          6    2    1    2  501    0  0.71626261894E+02  0.10813984523E+03  0.12559844031E+03  0.25171526858E+03  0.17538831406E+03 0.  0.
         24    2    3    3    0    0  0.59016672225E+02 -0.94895187973E+01  0.61743749327E+02  0.11719694049E+03  0.79685718362E+02 0.  0.
         -6    2    1    2    0  502 -0.71626261894E+02 -0.10813984523E+03  0.20618667743E+03  0.29876448110E+03  0.17298185368E+03 0.  0.
        -24    2    5    5    0    0  0.45953532738E+01 -0.44298820311E+02  0.16983183920E+03  0.19279667777E+03  0.79650502817E+02 0.  0.
          5    1    3    3  501    0  0.12609589670E+02  0.11762936402E+03  0.63854690982E+02  0.13451832809E+03  0.47000000000E+01 0. -1.
        -13    1    4    4    0    0  0.45720336449E+02  0.27773553106E+02  0.55604096043E+02  0.77159153144E+02  0.00000000000E+00 0.  1.
         14    1    4    4    0    0  0.13296335776E+02 -0.37263071904E+02  0.61396532832E+01  0.40037787341E+02  0.00000000000E+00 0. -1.
         -5    1    5    5    0  502 -0.76221615168E+02 -0.63841024916E+02  0.36354838225E+02  0.10596780333E+03  0.47000000000E+01 0.  1.
         11    1    6    6    0    0 -0.27885267760E+02 -0.16472378846E+01  0.22040518223E+02  0.35582102162E+02  0.00000000000E+00 0. -1.
        -12    1    6    6    0    0  0.32480621034E+02 -0.42651582426E+02  0.14779132098E+03  0.15721457561E+03  0.00000000000E+00 0.  1.
<mgrwt>
<rscale>  2 0.21765713E+03</rscale>
<asrwt>0</asrwt>
<pdfrwt beam="1">  1       21 0.67866527E-01 0.21814126E+03</pdfrwt>
<pdfrwt beam="2">  1       21 0.16822664E-01 0.21814126E+03</pdfrwt>
<totfact> 0.62351737E+04</totfact>
</mgrwt>
</event>
<event>
12    1  0.1050690E-001  0.1977813E+03  0.7546771E-02  0.1151680E+00
         21   -1    0    0  503  502  0.00000000000E+00  0.00000000000E+00  0.14321777947E+03  0.14321777947E+03  0.00000000000E+00 0. -1.
         21   -1    0    0  501  503 -0.00000000000E+00 -0.00000000000E+00 -0.27318475436E+03  0.27318475436E+03  0.00000000000E+00 0. -1.
          6    2    1    2  501    0 -0.89588209395E+01 -0.95750899882E+02 -0.73089665962E+02  0.21085428646E+03  0.17282631613E+03 0.  0.
         24    2    3    3    0    0  0.55737465013E+02 -0.25541446709E+02 -0.45127539926E+02  0.11126037488E+03  0.81137818878E+02 0.  0.
         -6    2    1    2    0  502  0.89588209395E+01  0.95750899882E+02 -0.56877308937E+02  0.20554824737E+03  0.17252987691E+03 0.  0.
        -24    2    5    5    0    0  0.73308400399E+02  0.56526438989E+02 -0.33202185150E+02  0.12641526945E+03  0.79429688259E+02 0.  0.
          5    1    3    3  501    0 -0.64696285953E+02 -0.70209453173E+02 -0.27962126036E+02  0.99593911578E+02  0.47000000000E+01 0. -1.
        -13    1    4    4    0    0  0.68271268488E+02  0.32699114153E+01 -0.20556218911E+02  0.71373780603E+02  0.00000000000E+00 0.  1.
         14    1    4    4    0    0 -0.12533803475E+02 -0.28811358124E+02 -0.24571321015E+02  0.39886594276E+02  0.00000000000E+00 0. -1.
         -5    1    5    5    0  502 -0.64349579460E+02  0.39224460893E+02 -0.23675123788E+02  0.79132977926E+02  0.47000000000E+01 0.  1.
         13    1    6    6    0    0  0.34873150816E+02  0.42624878431E+02 -0.56885890636E+02  0.79177152402E+02  0.00000000000E+00 0. -1.
        -14    1    6    6    0    0  0.38435249583E+02  0.13901560558E+02  0.23683705486E+02  0.47238117046E+02  0.00000000000E+00 0.  1.
<mgrwt>
<rscale>  2 0.19771649E+03</rscale>
<asrwt>0</asrwt>
<pdfrwt beam="1">  1       21 0.22033505E-01 0.19778127E+03</pdfrwt>
<pdfrwt beam="2">  1       21 0.42028423E-01 0.19778127E+03</pdfrwt>
<totfact> 0.10466423E+05</totfact>
</mgrwt>
</event>
<event>
12    1  0.1050690E-001  0.1840350E+03  0.7546771E-02  0.1164513E+00
         21   -1    0    0  503  502  0.00000000000E+00  0.00000000000E+00  0.29982664121E+03  0.29982664121E+03  0.00000000000E+00 0. -1.
         21   -1    0    0  501  503 -0.00000000000E+00 -0.00000000000E+00 -0.13736689235E+03  0.13736689235E+03  0.00000000000E+00 0. -1.
          6    2    1    2  501    0  0.56238075801E+02 -0.21052909393E+02 -0.13170641500E+02  0.18450566789E+03  0.17396243711E+03 0.  0.
         24    2    3    3    0    0 -0.14703217920E+02  0.24106746088E+02 -0.53410264665E+02  0.91160186427E+02  0.68265682401E+02 0.  0.
         -6    2    1    2    0  502 -0.56238075801E+02  0.21052909393E+02  0.17563039036E+03  0.25268786566E+03  0.17146188285E+03 0.  0.
        -24    2    5    5    0    0 -0.89650097783E+02  0.20717492436E+02  0.87207904769E+02  0.15804589994E+03  0.94376550623E+02 0.  0.
          5    1    3    3  501    0  0.70941293721E+02 -0.45159655481E+02  0.40239623164E+02  0.93345481468E+02  0.47000000000E+01 0. -1.
        -13    1    4    4    0    0 -0.24431339914E+02  0.43267513580E+02 -0.25246585158E+02  0.55734712375E+02  0.00000000000E+00 0.  1.
         14    1    4    4    0    0  0.97281219939E+01 -0.19160767492E+02 -0.28163679507E+02  0.35425474052E+02  0.00000000000E+00 0. -1.
         -5    1    5    5    0  502  0.33412021983E+02  0.33541695777E+00  0.88422485590E+02  0.94641965720E+02  0.47000000000E+01 0.  1.
         13    1    6    6    0    0 -0.47925596994E+02 -0.36983998753E+02  0.37612808444E+02  0.71269926126E+02  0.00000000000E+00 0. -1.
        -14    1    6    6    0    0 -0.41724500790E+02  0.57701491188E+02  0.49595096325E+02  0.86775973812E+02  0.00000000000E+00 0.  1.
<mgrwt>
<rscale>  2 0.18344166E+03</rscale>
<asrwt>0</asrwt>
<pdfrwt beam="1">  1       21 0.46127176E-01 0.18403498E+03</pdfrwt>
<pdfrwt beam="2">  1       21 0.21133368E-01 0.18403498E+03</pdfrwt>
<totfact> 0.94070025E+04</totfact>
</mgrwt>
</event>
<event>
12    1  0.1050690E-001  0.1784266E+03  0.7546771E-02  0.1170435E+00
         21   -1    0    0  503  502  0.00000000000E+00  0.00000000000E+00  0.81947210157E+02  0.81947210157E+02  0.00000000000E+00 0.  1.
         21   -1    0    0  501  503 -0.00000000000E+00 -0.00000000000E+00 -0.37889501642E+03  0.37889501642E+03  0.00000000000E+00 0.  1.
          6    2    1    2  501    0  0.24117795122E+02  0.23913699654E+02 -0.14682007740E+03  0.22765904167E+03  0.17064281718E+03 0.  0.
         24    2    3    3    0    0 -0.18005149262E+01 -0.45051562559E+02 -0.10547358657E+03  0.14304469010E+03  0.85464734012E+02 0.  0.
         -6    2    1    2    0  502 -0.24117795122E+02 -0.23913699654E+02 -0.15012772887E+03  0.23318318491E+03  0.17516429338E+03 0.  0.
        -24    2    5    5    0    0 -0.40999845475E+02  0.80580345711E+00 -0.89831878029E+01  0.88822771596E+02  0.78276116682E+02 0.  0.
          5    1    3    3  501    0  0.25918310048E+02  0.68965262213E+02 -0.41346490824E+02  0.84614351569E+02  0.47000000000E+01 0. -1.
        -11    1    4    4    0    0  0.23034575949E+02  0.53545749448E+01 -0.75995031285E+02  0.79589622075E+02  0.00000000000E+00 0.  1.
         12    1    4    4    0    0 -0.24835090875E+02 -0.50406137504E+02 -0.29478555287E+02  0.63455068030E+02  0.00000000000E+00 0. -1.
         -5    1    5    5    0  502  0.16882050353E+02 -0.24719503111E+02 -0.14114454107E+03  0.14436041331E+03  0.47000000000E+01 0.  1.
         13    1    6    6    0    0 -0.11571635882E+02  0.76148902345E+01 -0.41909961183E+02  0.44139938340E+02  0.00000000000E+00 0. -1.
        -14    1    6    6    0    0 -0.29428209592E+02 -0.68090867773E+01  0.32926773380E+02  0.44682833256E+02  0.00000000000E+00 0.  1.
<mgrwt>
<rscale>  2 0.17730697E+03</rscale>
<asrwt>0</asrwt>
<pdfrwt beam="1">  1       21 0.12607263E-01 0.17842663E+03</pdfrwt>
<pdfrwt beam="2">  1       21 0.58291539E-01 0.17842663E+03</pdfrwt>
<totfact> 0.14876507E+05</totfact>
</mgrwt>
</event>
<event>
12    1  0.1050690E-001  0.1827382E+03  0.7546771E-02  0.1165522E+00
         21   -1    0    0  501  502  0.00000000000E+00  0.00000000000E+00  0.13717729691E+03  0.13717729691E+03  0.00000000000E+00 0.  1.
         21   -1    0    0  502  503 -0.00000000000E+00 -0.00000000000E+00 -0.32100232756E+03  0.32100232756E+03  0.00000000000E+00 0.  1.
         -6    2    1    2    0  503 -0.41602465556E+02  0.34452292577E+02 -0.20618363810E+03  0.27550851195E+03  0.17457239739E+03 0.  0.
        -24    2    3    3    0    0 -0.20493236323E+02  0.74803422237E+02 -0.70354899903E+02  0.13217202202E+03  0.80648042451E+02 0.  0.
          6    2    1    2  501    0  0.41602465556E+02 -0.34452292577E+02  0.22358607455E+02  0.18267111253E+03  0.17306386804E+03 0.  0.
         24    2    5    5    0    0  0.31566805521E+02 -0.10568530838E+02  0.81842075499E+02  0.11762096635E+03  0.77642831918E+02 0.  0.
          5    1    5    5  501    0  0.10035660036E+02 -0.23883761739E+02 -0.59483468045E+02  0.65050146178E+02  0.47000000000E+01 0. -1.
        -11    1    6    6    0    0  0.48533898981E+02  0.14229103538E+02  0.33376066715E+02  0.60596770269E+02  0.00000000000E+00 0.  1.
         12    1    6    6    0    0 -0.16967093460E+02 -0.24797634376E+02  0.48466008785E+02  0.57024196080E+02  0.00000000000E+00 0. -1.
         -5    1    3    3    0  503 -0.21109229234E+02 -0.40351129660E+02 -0.13582873820E+03  0.14333648993E+03  0.47000000000E+01 0.  1.
         13    1    4    4    0    0 -0.37644335689E+02  0.60788465896E+02 -0.80621107650E+02  0.10775943854E+03  0.00000000000E+00 0. -1.
        -14    1    4    4    0    0  0.17151099367E+02  0.14014956341E+02  0.10266207747E+02  0.24412583481E+02  0.00000000000E+00 0.  1.
<mgrwt>
<rscale>  2 0.18237698E+03</rscale>
<asrwt>0</asrwt>
<pdfrwt beam="1">  1       21 0.21104200E-01 0.18273819E+03</pdfrwt>
<pdfrwt beam="2">  1       21 0.49384973E-01 0.18273819E+03</pdfrwt>
<totfact> 0.81940277E+04</totfact>
</mgrwt>
</event>
<event>
12    1  0.1050690E-001  0.1842623E+03  0.7546771E-02  0.1164072E+00
         21   -1    0    0  501  502  0.00000000000E+00  0.00000000000E+00  0.14655386496E+03  0.14655386496E+03  0.00000000000E+00 0.  1.
         21   -1    0    0  502  503 -0.00000000000E+00 -0.00000000000E+00 -0.49124557970E+03  0.49124557970E+03  0.00000000000E+00 0.  1.
         -6    2    1    2    0  503  0.24416599453E+02  0.59225236240E+02 -0.40463428121E+03  0.44403232873E+03  0.17126589995E+03 0.  0.
        -24    2    3    3    0    0  0.72116911467E+02  0.66430837647E+02 -0.22091577442E+03  0.25402753880E+03  0.78181237971E+02 0.  0.
          6    2    1    2  501    0 -0.24416599453E+02 -0.59225236240E+02  0.59942566474E+02  0.19376711593E+03  0.17276800921E+03 0.  0.
         24    2    5    5    0    0  0.14343797074E+02  0.28333782388E+02  0.19353673080E+02  0.89659006984E+02  0.81582014763E+02 0.  0.
          5    1    5    5  501    0 -0.38760396527E+02 -0.87559018627E+02  0.40588893394E+02  0.10410810895E+03  0.47000000000E+01 0. -1.
        -13    1    6    6    0    0  0.13986131827E+02 -0.27684364054E+02  0.23019392380E+01  0.31102006701E+02  0.00000000000E+00 0.  1.
         14    1    6    6    0    0  0.35766524725E+00  0.56018146441E+02  0.17051733842E+02  0.58557000283E+02  0.00000000000E+00 0. -1.
         -5    1    3    3    0  503 -0.47700312014E+02 -0.72056014073E+01 -0.18371850679E+03  0.19000478993E+03  0.47000000000E+01 0.  1.
         13    1    4    4    0    0  0.21860336671E+02 -0.57570637370E+01 -0.85534375972E+01  0.24169803412E+02  0.00000000000E+00 0. -1.
        -14    1    4    4    0    0  0.50256574796E+02  0.72187901384E+02 -0.21236233683E+03  0.22985773539E+03  0.00000000000E+00 0.  1.
<mgrwt>
<rscale>  2 0.18390934E+03</rscale>
<asrwt>0</asrwt>
<pdfrwt beam="1">  1       21 0.22546748E-01 0.18426227E+03</pdfrwt>
<pdfrwt beam="2">  1       21 0.75576243E-01 0.18426227E+03</pdfrwt>
<totfact> 0.28937609E+04</totfact>
</mgrwt>
</event>
<event>
12    1  0.1050690E-001  0.2050372E+03  0.7546771E-02  0.1145604E+00
         21   -1    0    0  501  502  0.00000000000E+00  0.00000000000E+00  0.25926607333E+02  0.25926607333E+02  0.00000000000E+00 0.  1.
         21   -1    0    0  502  503 -0.00000000000E+00 -0.00000000000E+00 -0.17605561069E+04  0.17605561069E+04  0.00000000000E+00 0.  1.
         -6    2    1    2    0  503  0.81734605903E+02 -0.74786860706E+02 -0.11204097402E+04  0.11390163441E+04  0.17253007233E+03 0.  0.
        -24    2    3    3    0    0  0.74414345951E+02 -0.10933754845E+03 -0.98269503370E+03  0.99676738413E+03  0.10180124953E+03 0.  0.
          6    2    1    2  501    0 -0.81734605903E+02  0.74786860706E+02 -0.61421975936E+03  0.64746637013E+03  0.17225901230E+03 0.  0.
         24    2    5    5    0    0 -0.11420993662E+03  0.91210509453E+02 -0.51906739807E+03  0.54548379709E+03  0.82209138757E+02 0.  0.
          5    1    5    5  501    0  0.32475330714E+02 -0.16423648747E+02 -0.95152361293E+02  0.10198257304E+03  0.47000000000E+01 0. -1.
        -13    1    6    6    0    0 -0.21053218624E+02  0.68362966729E+02 -0.23645997853E+03  0.24704261713E+03  0.00000000000E+00 0.  1.
         14    1    6    6    0    0 -0.93156717993E+02  0.22847542723E+02 -0.28260741954E+03  0.29844117996E+03  0.00000000000E+00 0. -1.
         -5    1    3    3    0  503  0.73202599524E+01  0.34550687742E+02 -0.13771470654E+03  0.14224896002E+03  0.47000000000E+01 0.  1.
         13    1    4    4    0    0  0.44963610376E+02 -0.15497772064E+01 -0.14979257212E+03  0.15640314169E+03  0.00000000000E+00 0. -1.
        -14    1    4    4    0    0  0.29450735575E+02 -0.10778777124E+03 -0.83290246158E+03  0.84036424244E+03  0.00000000000E+00 0.  1.
<mgrwt>
<rscale>  2 0.20498015E+03</rscale>
<asrwt>0</asrwt>
<pdfrwt beam="1">  1       21 0.39887072E-02 0.20503718E+03</pdfrwt>
<pdfrwt beam="2">  1       21 0.27085489E+00 0.20503718E+03</pdfrwt>
<totfact> 0.19565488E+04</totfact>
</mgrwt>
</event>
<event>
12    1  0.1050690E-001  0.2242192E+03  0.7546771E-02  0.1132098E+00
         21   -1    0    0  501  502  0.00000000000E+00  0.00000000000E+00  0.12897910886E+03  0.12897910886E+03  0.00000000000E+00 0. -1.
         21   -1    0    0  502  503 -0.00000000000E+00 -0.00000000000E+00 -0.37762837019E+03  0.37762837019E+03  0.00000000000E+00 0. -1.
         -6    2    1    2    0  503  0.12056848613E+03  0.51882352537E+02 -0.13161564920E+03  0.25999411722E+03  0.18178482753E+03 0.  0.
        -24    2    3    3    0    0  0.10141848719E+03  0.92105570070E+01 -0.40887401541E+01  0.12407941189E+03  0.70770323962E+02 0.  0.
          6    2    1    2  501    0 -0.12056848613E+03 -0.51882352537E+02 -0.11703361212E+03  0.24661336183E+03  0.17289518651E+03 0.  0.
         24    2    5    5    0    0 -0.87386183511E+02  0.28918677998E+02 -0.98227230769E+02  0.15713911011E+03  0.81064641214E+02 0.  0.
          5    1    5    5  501    0 -0.33182302616E+02 -0.80801030535E+02 -0.18806381348E+02  0.89474251726E+02  0.47000000000E+01 0. -1.
        -13    1    6    6    0    0 -0.88526960436E+02  0.12783479453E+02 -0.10641212526E+03  0.13901072072E+03  0.00000000000E+00 0.  1.
         14    1    6    6    0    0  0.11407769247E+01  0.16135198545E+02  0.81848944939E+01  0.18128389392E+02  0.00000000000E+00 0. -1.
         -5    1    3    3    0  503  0.19149998937E+02  0.42671795530E+02 -0.12752690905E+03  0.13591470533E+03  0.47000000000E+01 0.  1.
         11    1    4    4    0    0  0.73881198790E+02 -0.22523293205E+02 -0.18921694895E+02  0.79522077496E+02  0.00000000000E+00 0. -1.
        -12    1    4    4    0    0  0.27537288400E+02  0.31733850212E+02  0.14832954741E+02  0.44557334391E+02  0.00000000000E+00 0.  1.
<mgrwt>
<rscale>  2 0.22241126E+03</rscale>
<asrwt>0</asrwt>
<pdfrwt beam="1">  1       21 0.19842940E-01 0.22421923E+03</pdfrwt>
<pdfrwt beam="2">  1       21 0.58096672E-01 0.22421923E+03</pdfrwt>
<totfact> 0.64133556E+04</totfact>
</mgrwt>
</event>
<event>
12    1  0.1050690E-001  0.2162459E+03  0.7546771E-02  0.1137027E+00
         21   -1    0    0  503  502  0.00000000000E+00  0.00000000000E+00  0.10365080416E+04  0.10365080416E+04  0.00000000000E+00 0.  1.
         21   -1    0    0  501  503 -0.00000000000E+00 -0.00000000000E+00 -0.50423436535E+02  0.50423436535E+02  0.00000000000E+00 0.  1.
          6    2    1    2  501    0  0.12784639288E+03 -0.15717496379E+02  0.30946234590E+03  0.37659353888E+03  0.17165083783E+03 0.  0.
         24    2    3    3    0    0  0.15570417458E+03 -0.66916037324E+01  0.29558579363E+03  0.34384950977E+03  0.81073771512E+02 0.  0.
         -6    2    1    2    0  502 -0.12784639288E+03  0.15717496379E+02  0.67662225919E+03  0.71033793928E+03  0.17369676591E+03 0.  0.
        -24    2    5    5    0    0 -0.29286769129E+02 -0.24560823959E+02  0.46173686523E+03  0.47047513462E+03  0.81761669888E+02 0.  0.
          5    1    3    3  501    0 -0.27857781702E+02 -0.90258926467E+01  0.13876552269E+02  0.32744029109E+02  0.47000000000E+01 0. -1.
        -11    1    4    4    0    0  0.98542931597E+02  0.15878551804E+02  0.11088182183E+03  0.14918986624E+03  0.00000000000E+00 0.  1.
         12    1    4    4    0    0  0.57161242988E+02 -0.22570155537E+02  0.18470397180E+03  0.19465964353E+03  0.00000000000E+00 0. -1.
         -5    1    5    5    0  502 -0.98559623754E+02  0.40278320338E+02  0.21488539396E+03  0.23986280466E+03  0.47000000000E+01 0.  1.
         11    1    6    6    0    0  0.15750985701E+02 -0.28265244015E+02  0.83534008394E+02  0.89582074815E+02  0.00000000000E+00 0. -1.
        -12    1    6    6    0    0 -0.45037754829E+02  0.37044200561E+01  0.37820285684E+03  0.38089305980E+03  0.00000000000E+00 0.  1.
<mgrwt>
<rscale>  2 0.21583479E+03</rscale>
<asrwt>0</asrwt>
<pdfrwt beam="1">  1       21 0.15946276E+00 0.21624594E+03</pdfrwt>
<pdfrwt beam="2">  1       21 0.77574526E-02 0.21624594E+03</pdfrwt>
<totfact> 0.31688692E+04</totfact>
</mgrwt>
</event>
<event>
12    1  0.1050690E-001  0.2308521E+03  0.7546771E-02  0.1126129E+00
         21   -1    0    0  503  502  0.00000000000E+00  0.00000000000E+00  0.71074926697E+03  0.71074926697E+03  0.00000000000E+00 0.  1.
         21   -1    0    0  501  503 -0.00000000000E+00 -0.00000000000E+00 -0.10985854286E+03  0.10985854286E+03  0.00000000000E+00 0.  1.
          6    2    1    2  501    0 -0.13229861728E+03 -0.77233283235E+02  0.68945332024E+02  0.24092765948E+03  0.17269850643E+03 0.  0.
         24    2    3    3    0    0 -0.10565773755E+03 -0.27174798473E+02 -0.18396374507E+02  0.13668634296E+03  0.80266447422E+02 0.  0.
         -6    2    1    2    0  502  0.13229861728E+03  0.77233283235E+02  0.53194539209E+03  0.57968015035E+03  0.17203276541E+03 0.  0.
        -24    2    5    5    0    0  0.10138935340E+03  0.59008592486E+02  0.52394348061E+03  0.54261746650E+03  0.78454630887E+02 0.  0.
          5    1    3    3  501    0 -0.26640879731E+02 -0.50058484762E+02  0.87341706531E+02  0.10424131652E+03  0.47000000000E+01 0. -1.
        -11    1    4    4    0    0 -0.14430274688E+02 -0.40322498835E+02 -0.11018366950E+02  0.44221500994E+02  0.00000000000E+00 0.  1.
         12    1    4    4    0    0 -0.91227462862E+02  0.13147700363E+02 -0.73780075566E+01  0.92464841970E+02  0.00000000000E+00 0. -1.
         -5    1    5    5    0  502  0.30909263886E+02  0.18224690749E+02  0.80019114758E+01  0.37062683850E+02  0.47000000000E+01 0.  1.
         11    1    6    6    0    0  0.59669458964E+02 -0.99421984363E+01  0.21787686804E+03  0.22611860001E+03  0.00000000000E+00 0. -1.
        -12    1    6    6    0    0  0.41719894431E+02  0.68950790922E+02  0.30606661257E+03  0.31649886649E+03  0.00000000000E+00 0.  1.
<mgrwt>
<rscale>  2 0.23072757E+03</rscale>
<asrwt>0</asrwt>
<pdfrwt beam="1">  1       21 0.10934604E+00 0.23085207E+03</pdfrwt>
<pdfrwt beam="2">  1       21 0.16901315E-01 0.23085207E+03</pdfrwt>
<totfact> 0.20424767E+04</totfact>
</mgrwt>
</event>
<event>
12    1  0.1050690E-001  0.2470470E+03  0.7546771E-02  0.1115206E+00
         21   -1    0    0  503  502  0.00000000000E+00  0.00000000000E+00  0.53282792076E+03  0.53282792076E+03  0.00000000000E+00 0. -1.
         21   -1    0    0  501  503 -0.00000000000E+00 -0.00000000000E+00 -0.14099707807E+03  0.14099707807E+03  0.00000000000E+00 0.  1.
          6    2    1    2  501    0 -0.14376714961E+03  0.10148819025E+03  0.49779516464E+02  0.25188738916E+03  0.17320626574E+03 0.  0.
         24    2    3    3    0    0 -0.53922756552E+02  0.89079093238E+02 -0.26596020390E+02  0.13322267965E+03  0.78728556112E+02 0.  0.
         -6    2    1    2    0  502  0.14376714961E+03 -0.10148819025E+03  0.34205132623E+03  0.42193760967E+03  0.17338797713E+03 0.  0.
        -24    2    5    5    0    0  0.10024917128E+03 -0.13087942277E+03  0.31034849095E+03  0.36041672906E+03  0.80029451463E+02 0.  0.
          5    1    3    3  501    0 -0.89844393061E+02  0.12409097016E+02  0.76375536854E+02  0.11866470951E+03  0.47000000000E+01 0. -1.
        -11    1    4    4    0    0 -0.12170501302E+02  0.59421246708E+02  0.20118153509E+02  0.63904192060E+02  0.00000000000E+00 0.  1.
         12    1    4    4    0    0 -0.41752255251E+02  0.29657846530E+02 -0.46714173899E+02  0.69318487594E+02  0.00000000000E+00 0. -1.
         -5    1    5    5    0  502  0.43517978330E+02  0.29391232517E+02  0.31702835277E+02  0.61520880613E+02  0.47000000000E+01 0.  1.
         11    1    6    6    0    0  0.39347377508E+02 -0.90202916623E+02  0.11261224037E+03  0.14955366584E+03  0.00000000000E+00 0. -1.
        -12    1    6    6    0    0  0.60901793776E+02 -0.40676506148E+02  0.19773625058E+03  0.21086306322E+03  0.00000000000E+00 0.  1.
<mgrwt>
<rscale>  2 0.24701515E+03</rscale>
<asrwt>0</asrwt>
<pdfrwt beam="1">  1       21 0.81973525E-01 0.24704703E+03</pdfrwt>
<pdfrwt beam="2">  1       21 0.21691859E-01 0.24704703E+03</pdfrwt>
<totfact> 0.25062196E+04</totfact>
</mgrwt>
</event>
<event>
12    1  0.1050690E-001  0.1975592E+03  0.7546771E-02  0.1152086E+00
         21   -1    0    0  501  502  0.00000000000E+00  0.00000000000E+00  0.71102726633E+02  0.71102726633E+02  0.00000000000E+00 0.  1.
         21   -1    0    0  502  503 -0.00000000000E+00 -0.00000000000E+00 -0.10933210380E+04  0.10933210380E+04  0.00000000000E+00 0. -1.
         -6    2    1    2    0  503 -0.93181648118E+01 -0.95534537999E+02 -0.92407749706E+03  0.94495972037E+03  0.17267303321E+03 0.  0.
        -24    2    3    3    0    0 -0.10918069926E+02 -0.91277329720E+02 -0.92880745488E+03  0.93688841194E+03  0.81399342927E+02 0.  0.
          6    2    1    2  501    0  0.93181648118E+01  0.95534537999E+02 -0.98140814263E+02  0.21946404422E+03  0.17122841801E+03 0.  0.
         24    2    5    5    0    0 -0.60913397519E+02  0.54306930410E+02 -0.54326807584E+02  0.12686844413E+03  0.80526488846E+02 0.  0.
          5    1    5    5  501    0  0.70231562331E+02  0.41227607589E+02 -0.43814006679E+02  0.92595600091E+02  0.47000000000E+01 0. -1.
        -11    1    6    6    0    0 -0.69066643865E+01 -0.21588279336E+01  0.18618573566E+02  0.19975330601E+02  0.00000000000E+00 0.  1.
         12    1    6    6    0    0 -0.54006733133E+02  0.56465758343E+02 -0.72945381150E+02  0.10689311353E+03  0.00000000000E+00 0. -1.
         -5    1    3    3    0  503  0.15999051145E+01 -0.42572082793E+01  0.47299578169E+01  0.80713084230E+01  0.47000000000E+01 0.  1.
         11    1    4    4    0    0  0.73033032034E+01 -0.32982477892E+02 -0.67465549750E+03  0.67550071976E+03  0.00000000000E+00 0. -1.
        -12    1    4    4    0    0 -0.18221373130E+02 -0.58294851828E+02 -0.25415195737E+03  0.26138769218E+03  0.00000000000E+00 0.  1.
<mgrwt>
<rscale>  2 0.19724313E+03</rscale>
<asrwt>0</asrwt>
<pdfrwt beam="1">  1       21 0.10938881E-01 0.19755924E+03</pdfrwt>
<pdfrwt beam="2">  1       21 0.16820323E+00 0.19755924E+03</pdfrwt>
<totfact> 0.15151769E+04</totfact>
</mgrwt>
</event>
<event>
12    1  0.1050690E-001  0.1890129E+03  0.7546771E-02  0.1159438E+00
         21   -1    0    0  503  502  0.00000000000E+00  0.00000000000E+00  0.32883659236E+03  0.32883659236E+03  0.00000000000E+00 0. -1.
         21   -1    0    0  501  503 -0.00000000000E+00 -0.00000000000E+00 -0.18333183420E+03  0.18333183420E+03  0.00000000000E+00 0. -1.
          6    2    1    2  501    0 -0.65087014881E+02 -0.38610010831E+02 -0.90888300691E+02  0.20972976638E+03  0.17320172996E+03 0.  0.
         24    2    3    3    0    0 -0.24425931291E+02 -0.20548987964E+02 -0.12644012554E+03  0.15258480583E+03  0.79222033544E+02 0.  0.
         -6    2    1    2    0  502  0.65087014881E+02  0.38610010831E+02  0.23639305885E+03  0.30243866018E+03  0.17280165641E+03 0.  0.
        -24    2    5    5    0    0  0.12113485046E+02  0.69887567909E+02  0.20889690036E+03  0.23489157163E+03  0.80654366138E+02 0.  0.
          5    1    3    3  501    0 -0.40661083590E+02 -0.18061022867E+02  0.35551824850E+02  0.57144960546E+02  0.47000000000E+01 0.  1.
        -11    1    4    4    0    0  0.12195943335E+02  0.24286708352E+02 -0.34206489231E+02  0.43688318140E+02  0.00000000000E+00 0.  1.
         12    1    4    4    0    0 -0.36621874625E+02 -0.44835696316E+02 -0.92233636309E+02  0.10889648769E+03  0.00000000000E+00 0. -1.
         -5    1    5    5    0  502  0.52973529834E+02 -0.31277557079E+02  0.27496158492E+02  0.67547088551E+02  0.47000000000E+01 0.  1.
         13    1    6    6    0    0  0.35869549161E+02  0.50341999956E+02  0.73469683277E+02  0.96014248304E+02  0.00000000000E+00 0. -1.
        -14    1    6    6    0    0 -0.23756064115E+02  0.19545567953E+02  0.13542721708E+03  0.13887732333E+03  0.00000000000E+00 0.  1.
<mgrwt>
<rscale>  2 0.18892124E+03</rscale>
<asrwt>0</asrwt>
<pdfrwt beam="1">  1       21 0.50590245E-01 0.18901294E+03</pdfrwt>
<pdfrwt beam="2">  1       21 0.28204898E-01 0.18901294E+03</pdfrwt>
<totfact> 0.44745961E+04</totfact>
</mgrwt>
</event>
<event>
12    1  0.1050690E-001  0.1840936E+03  0.7546771E-02  0.1164084E+00
         21   -1    0    0  503  502  0.00000000000E+00  0.00000000000E+00  0.19537305527E+04  0.19537305527E+04  0.00000000000E+00 0.  1.
         21   -1    0    0  501  503 -0.00000000000E+00 -0.00000000000E+00 -0.26910430767E+02  0.26910430767E+02  0.00000000000E+00 0.  1.
          6    2    1    2  501    0 -0.51474690061E+02 -0.36009860493E+02  0.37207531443E+03  0.41512706985E+03  0.17304360938E+03 0.  0.
         24    2    3    3    0    0 -0.40241013537E+02  0.45464052188E+02  0.22096895746E+03  0.24302414991E+03  0.80914387271E+02 0.  0.
         -6    2    1    2    0  502  0.51474690061E+02  0.36009860493E+02  0.15547448075E+04  0.15655139136E+04  0.17220930142E+03 0.  0.
        -24    2    5    5    0    0  0.46063208962E+01  0.45242460717E+02  0.14102815716E+04  0.14132851337E+04  0.80079081108E+02 0.  0.
          5    1    3    3  501    0 -0.11233676524E+02 -0.81473912680E+02  0.15110635697E+03  0.17210291994E+03  0.47000000000E+01 0. -1.
        -13    1    4    4    0    0  0.65179272749E+01 -0.19814009135E+02  0.46540689218E+02  0.51001118486E+02  0.00000000000E+00 0.  1.
         14    1    4    4    0    0 -0.46758940812E+02  0.65278061322E+02  0.17442826824E+03  0.19202303143E+03  0.00000000000E+00 0. -1.
         -5    1    5    5    0  502  0.46868369165E+02 -0.92326002248E+01  0.14446323587E+03  0.15222877997E+03  0.47000000000E+01 0.  1.
         13    1    6    6    0    0 -0.26304568654E+02  0.12056918323E+02  0.19281471051E+03  0.19497387569E+03  0.00000000000E+00 0. -1.
        -14    1    6    6    0    0  0.30910889551E+02  0.33185542394E+02  0.12174668611E+04  0.12183112580E+04  0.00000000000E+00 0.  1.
<mgrwt>
<rscale>  2 0.18389726E+03</rscale>
<asrwt>0</asrwt>
<pdfrwt beam="1">  1       21 0.30057382E+00 0.18409358E+03</pdfrwt>
<pdfrwt beam="2">  1       21 0.41400678E-02 0.18409358E+03</pdfrwt>
<totfact> 0.12646003E+04</totfact>
</mgrwt>
</event>
<event>
11    1  0.1050690E-001  0.2358732E+03  0.7546771E-02  0.1122589E+00
         21   -1    0    0  501  502  0.00000000000E+00  0.00000000000E+00  0.11275118721E+03  0.11275118721E+03  0.00000000000E+00 0.  1.
         21   -1    0    0  502  503 -0.00000000000E+00 -0.00000000000E+00 -0.51993734247E+03  0.51993734247E+03  0.00000000000E+00 0. -1.
         -6    2    1    2    0  503  0.23882529834E+02 -0.15893822695E+03 -0.27523197558E+03  0.36241446895E+03  0.17251049737E+03 0.  0.
          6    2    1    2  501    0 -0.23882529834E+02  0.15893822695E+03 -0.13195417968E+03  0.27027406074E+03  0.17263958746E+03 0.  0.
         24    2    4    4    0    0  0.49649341557E+02  0.64157119420E+02 -0.46143841409E+02  0.12270747032E+03  0.79666028413E+02 0.  0.
          5    1    4    4  501    0 -0.73531871391E+02  0.94781107529E+02 -0.85810338266E+02  0.14756659042E+03  0.47000000000E+01 0. -1.
        -13    1    5    5    0    0  0.51557608271E+02  0.74311244794E+02 -0.17321150737E+02  0.92088926241E+02  0.00000000000E+00 0.  1.
         14    1    5    5    0    0 -0.19082667136E+01 -0.10154125373E+02 -0.28822690672E+02  0.30618544079E+02  0.00000000000E+00 0. -1.
         -5    1    3    3    0  503 -0.66274986228E+01 -0.32027105521E+02  0.38576985890E+01  0.33266064758E+02  0.47000000000E+01 0.  1.
         11    1    3    3    0    0  0.14572662275E+02 -0.25071526260E+02  0.26735769228E+01  0.29122017930E+02  0.00000000000E+00 0. -1.
        -12    1    3    3    0    0  0.15937366182E+02 -0.10183959517E+03 -0.28176325110E+03  0.30002638626E+03  0.00000000000E+00 0.  1.
<mgrwt>
<rscale>  2 0.23584957E+03</rscale>
<asrwt>0</asrwt>
<pdfrwt beam="1">  1       21 0.17346337E-01 0.23587319E+03</pdfrwt>
<pdfrwt beam="2">  1       21 0.79990360E-01 0.23587319E+03</pdfrwt>
<totfact> 0.40482890E+04</totfact>
</mgrwt>
</event>
<event>
12    1  0.1050690E-001  0.1910165E+03  0.7546771E-02  0.1157750E+00
         21   -1    0    0  501  502  0.00000000000E+00  0.00000000000E+00  0.68785731035E+03  0.68785731035E+03  0.00000000000E+00 0.  1.
         21   -1    0    0  502  503 -0.00000000000E+00 -0.00000000000E+00 -0.53901869749E+02  0.53901869749E+02  0.00000000000E+00 0. -1.
         -6    2    1    2    0  503  0.68037862438E+02  0.39954437666E+02  0.26310569055E+03  0.32460594200E+03  0.17297082229E+03 0.  0.
        -24    2    3    3    0    0  0.28316265414E+02  0.26855461207E+02  0.40762206024E+02  0.98313866205E+02  0.80504858019E+02 0.  0.
          6    2    1    2  501    0 -0.68037862438E+02 -0.39954437666E+02  0.37084975005E+03  0.41715323811E+03  0.17395913064E+03 0.  0.
         24    2    5    5    0    0 -0.31873908510E+02  0.39537200630E+02  0.13098114623E+03  0.16183815977E+03  0.80351683329E+02 0.  0.
          5    1    5    5  501    0 -0.36163953928E+02 -0.79491638296E+02  0.23986860383E+03  0.25531507833E+03  0.47000000000E+01 0. -1.
        -11    1    6    6    0    0 -0.23306631662E+02 -0.22461596260E+02  0.48191303074E+02  0.58052769770E+02  0.00000000000E+00 0.  1.
         12    1    6    6    0    0 -0.85672768483E+01  0.61998796890E+02  0.82789843153E+02  0.10378539000E+03  0.00000000000E+00 0. -1.
         -5    1    3    3    0  503  0.39721597024E+02  0.13098976459E+02  0.22234348453E+03  0.22629207579E+03  0.47000000000E+01 0.  1.
         11    1    4    4    0    0 -0.20849165714E+02  0.19587572815E+02  0.39278789991E+02  0.48592016452E+02  0.00000000000E+00 0. -1.
        -12    1    4    4    0    0  0.49165431128E+02  0.72678883928E+01  0.14834160321E+01  0.49721849753E+02  0.00000000000E+00 0.  1.
<mgrwt>
<rscale>  2 0.19079115E+03</rscale>
<asrwt>0</asrwt>
<pdfrwt beam="1">  1       21 0.10582420E+00 0.19101646E+03</pdfrwt>
<pdfrwt beam="2">  1       21 0.82925958E-02 0.19101646E+03</pdfrwt>
<totfact> 0.80883208E+04</totfact>
</mgrwt>
</event>
<event>
12    1  0.1050690E-001  0.2961322E+03  0.7546771E-02  0.1087234E+00
         21   -1    0    0  503  502  0.00000000000E+00  0.00000000000E+00  0.13757625098E+04  0.13757625098E+04  0.00000000000E+00 0. -1.
         21   -1    0    0  501  503 -0.00000000000E+00 -0.00000000000E+00 -0.10101531724E+03  0.10101531724E+03  0.00000000000E+00 0.  1.
          6    2    1    2  501    0 -0.24017914417E+03 -0.12116975101E+02  0.10865805521E+04  0.11262111686E+04  0.17280468067E+03 0.  0.
         24    2    3    3    0    0 -0.23847040269E+03 -0.50054368181E+02  0.98811586482E+03  0.10205723962E+04  0.76298629256E+02 0.  0.
         -6    2    1    2    0  502  0.24017914417E+03  0.12116975101E+02  0.18816664053E+03  0.35056665852E+03  0.17221339983E+03 0.  0.
        -24    2    5    5    0    0  0.19457110160E+03 -0.18767273084E+02  0.73383956961E+02  0.22316538389E+03  0.78787431156E+02 0.  0.
          5    1    3    3  501    0 -0.17087414775E+01  0.37937393080E+02  0.98464687244E+02  0.10563877236E+03  0.47000000000E+01 0. -1.
        -11    1    4    4    0    0 -0.90593087150E+02 -0.25364719451E+02  0.53748539424E+03  0.54565650867E+03  0.00000000000E+00 0.  1.
         12    1    4    4    0    0 -0.14787731554E+03 -0.24689648730E+02  0.45063047058E+03  0.47491588752E+03  0.00000000000E+00 0. -1.
         -5    1    5    5    0  502  0.45608042565E+02  0.30884248185E+02  0.11478268357E+03  0.12740127464E+03  0.47000000000E+01 0.  1.
         13    1    6    6    0    0  0.10158075587E+03 -0.37085530156E+02  0.69019553012E+02  0.12828750994E+03  0.00000000000E+00 0. -1.
        -14    1    6    6    0    0  0.92990345734E+02  0.18318257072E+02  0.43644039482E+01  0.94877873942E+02  0.00000000000E+00 0.  1.
<mgrwt>
<rscale>  2 0.29604604E+03</rscale>
<asrwt>0</asrwt>
<pdfrwt beam="1">  1       21 0.21165576E+00 0.29613223E+03</pdfrwt>
<pdfrwt beam="2">  1       21 0.15540819E-01 0.29613223E+03</pdfrwt>
<totfact> 0.38373932E+03</totfact>
</mgrwt>
</event>
<event>
12    1  0.1050690E-001  0.1739025E+03  0.7546771E-02  0.1174149E+00
         21   -1    0    0  503  502  0.00000000000E+00  0.00000000000E+00  0.35718584807E+03  0.35718584807E+03  0.00000000000E+00 0.  1.
         21   -1    0    0  501  503 -0.00000000000E+00 -0.00000000000E+00 -0.10451530394E+03  0.10451530394E+03  0.00000000000E+00 0.  1.
          6    2    1    2  501    0  0.14206331046E+02 -0.41131223068E+01  0.24598501640E+02  0.17563358924E+03  0.17327242645E+03 0.  0.
         24    2    3    3    0    0  0.86537790567E+01 -0.31107056944E+02  0.77543890133E+02  0.11576032723E+03  0.79654639412E+02 0.  0.
         -6    2    1    2    0  502 -0.14206331046E+02  0.41131223068E+01  0.22807204249E+03  0.28606756278E+03  0.17204376272E+03 0.  0.
        -24    2    5    5    0    0  0.17027788123E+02 -0.58319040751E+02  0.15081809073E+03  0.18183892829E+03  0.81414023787E+02 0.  0.
          5    1    3    3  501    0  0.55525519895E+01  0.26993934637E+02 -0.52945388493E+02  0.59873262008E+02  0.47000000000E+01 0. -1.
        -11    1    4    4    0    0  0.84601446287E+01  0.97136662480E+00 -0.15311287073E+02  0.17520077399E+02  0.00000000000E+00 0.  1.
         12    1    4    4    0    0  0.19363442799E+00 -0.32078423568E+02  0.92855177205E+02  0.98240249831E+02  0.00000000000E+00 0. -1.
         -5    1    5    5    0  502 -0.31234119169E+02  0.62432163058E+02  0.77253951761E+02  0.10422863449E+03  0.47000000000E+01 0.  1.
         11    1    6    6    0    0  0.19447419969E+01 -0.45438636455E+02  0.20270205268E+02  0.49792900357E+02  0.00000000000E+00 0. -1.
        -12    1    6    6    0    0  0.15083046126E+02 -0.12880404296E+02  0.13054788546E+03  0.13204602794E+03  0.00000000000E+00 0.  1.
<mgrwt>
<rscale>  2 0.17359562E+03</rscale>
<asrwt>0</asrwt>
<pdfrwt beam="1">  1       21 0.54951668E-01 0.17390248E+03</pdfrwt>
<pdfrwt beam="2">  1       21 0.16079278E-01 0.17390248E+03</pdfrwt>
<totfact> 0.10874132E+05</totfact>
</mgrwt>
</event>
<event>
12    1  0.1050690E-001  0.2011817E+03  0.7546771E-02  0.1149176E+00
         21   -1    0    0  501  502  0.00000000000E+00  0.00000000000E+00  0.56592822187E+02  0.56592822187E+02  0.00000000000E+00 0.  1.
         21   -1    0    0  502  503 -0.00000000000E+00 -0.00000000000E+00 -0.15935329429E+04  0.15935329429E+04  0.00000000000E+00 0.  1.
         -6    2    1    2    0  503  0.94184132920E+02 -0.29510610891E+02 -0.13852831639E+04  0.13998155301E+04  0.17530700802E+03 0.  0.
        -24    2    3    3    0    0  0.92492772092E+02 -0.77298045298E+02 -0.11855372913E+04  0.11943720995E+04  0.80598648241E+02 0.  0.
          6    2    1    2  501    0 -0.94184132920E+02  0.29510610891E+02 -0.15165695688E+03  0.25031023505E+03  0.17295622034E+03 0.  0.
         24    2    5    5    0    0 -0.10497932202E+03  0.44838106956E+02 -0.54906211441E+02  0.15164785628E+03  0.83374254855E+02 0.  0.
          5    1    5    5  501    0  0.10795189099E+02 -0.15327496064E+02 -0.96750745434E+02  0.98662378774E+02  0.47000000000E+01 0. -1.
        -13    1    6    6    0    0 -0.20088517223E+02 -0.13715107972E+01  0.20744123392E+02  0.28909310289E+02  0.00000000000E+00 0.  1.
         14    1    6    6    0    0 -0.84890804796E+02  0.46209617753E+02 -0.75650334833E+02  0.12273854599E+03  0.00000000000E+00 0. -1.
         -5    1    3    3    0  503  0.16913608275E+01  0.47787434407E+02 -0.19974587253E+03  0.20544343062E+03  0.47000000000E+01 0.  1.
         13    1    4    4    0    0 -0.51290224517E+01  0.11126096046E+02 -0.67488299092E+02  0.68591307022E+02  0.00000000000E+00 0. -1.
        -14    1    4    4    0    0  0.97621794544E+02 -0.88424141344E+02 -0.11180489923E+04  0.11257807924E+04  0.00000000000E+00 0.  1.
<mgrwt>
<rscale>  2 0.20066846E+03</rscale>
<asrwt>0</asrwt>
<pdfrwt beam="1">  1       21 0.87065892E-02 0.20118169E+03</pdfrwt>
<pdfrwt beam="2">  1       21 0.24515888E+00 0.20118169E+03</pdfrwt>
<totfact> 0.72905743E+03</totfact>
</mgrwt>
</event>
<event>
12    1  0.1050690E-001  0.3684757E+03  0.7546771E-02  0.1055285E+00
         21   -1    0    0  501  502  0.00000000000E+00  0.00000000000E+00  0.70555305543E+03  0.70555305543E+03  0.00000000000E+00 0. -1.
         21   -1    0    0  502  503 -0.00000000000E+00 -0.00000000000E+00 -0.21138223499E+03  0.21138223499E+03  0.00000000000E+00 0. -1.
         -6    2    1    2    0  503  0.29920648048E+03  0.12731435623E+03  0.10969696755E+03  0.38445779150E+03  0.17332312452E+03 0.  0.
        -24    2    3    3    0    0  0.25842486298E+03  0.98325147701E+02  0.28946878162E+02  0.28934637540E+03  0.80200740176E+02 0.  0.
          6    2    1    2  501    0 -0.29920648048E+03 -0.12731435623E+03  0.38447385289E+03  0.53247749892E+03  0.17314352437E+03 0.  0.
         24    2    5    5    0    0 -0.21974311380E+03 -0.60021231829E+02  0.17653557944E+03  0.29987653847E+03  0.82894771734E+02 0.  0.
          5    1    5    5  501    0 -0.79463366677E+02 -0.67293124402E+02  0.20793827345E+03  0.23260096045E+03  0.47000000000E+01 0. -1.
        -13    1    6    6    0    0 -0.30875888558E+02 -0.94035459104E+01 -0.54807522447E+01  0.32738140068E+02  0.00000000000E+00 0.  1.
         14    1    6    6    0    0 -0.18886722525E+03 -0.50617685918E+02  0.18201633169E+03  0.26713839840E+03  0.00000000000E+00 0. -1.
         -5    1    3    3    0  503  0.40781617497E+02  0.28989208530E+02  0.80750089387E+02  0.95111416102E+02  0.47000000000E+01 0.  1.
         11    1    4    4    0    0  0.16389147876E+03  0.64014215026E+02  0.56978495568E+02  0.18494535813E+03  0.00000000000E+00 0. -1.
        -12    1    4    4    0    0  0.94533384225E+02  0.34310932675E+02 -0.28031617406E+02  0.10440101728E+03  0.00000000000E+00 0.  1.
<mgrwt>
<rscale>  2 0.36845462E+03</rscale>
<asrwt>0</asrwt>
<pdfrwt beam="1">  1       21 0.10854662E+00 0.36847574E+03</pdfrwt>
<pdfrwt beam="2">  1       21 0.32520344E-01 0.36847574E+03</pdfrwt>
<totfact> 0.55562290E+03</totfact>
</mgrwt>
</event>
<event>
12    1  0.1050690E-001  0.2247328E+03  0.7546771E-02  0.1130436E+00
         21   -1    0    0  501  502  0.00000000000E+00  0.00000000000E+00  0.36562501647E+03  0.36562501647E+03  0.00000000000E+00 0. -1.
         21   -1    0    0  502  503 -0.00000000000E+00 -0.00000000000E+00 -0.52761143348E+03  0.52761143348E+03  0.00000000000E+00 0. -1.
         -6    2    1    2    0  503 -0.10151957633E+03  0.96352280190E+02 -0.46476620421E+03  0.51616826625E+03  0.17559062684E+03 0.  0.
        -24    2    3    3    0    0  0.10480700178E+02  0.67782705309E+02 -0.25201275520E+03  0.27399807277E+03  0.82826172692E+02 0.  0.
          6    2    1    2  501    0  0.10151957633E+03 -0.96352280190E+02  0.30277978720E+03  0.37706818370E+03  0.17582613385E+03 0.  0.
         24    2    5    5    0    0  0.10482672896E+03 -0.12260700881E+03  0.29842183665E+03  0.34984081205E+03  0.85509528580E+02 0.  0.
          5    1    5    5  501    0 -0.33071526348E+01  0.26254728620E+02  0.43579505544E+01  0.27227371642E+02  0.47000000000E+01 0. -1.
        -11    1    6    6    0    0 -0.12443583313E+02 -0.17937191130E+02  0.17691917029E+02  0.28099635575E+02  0.00000000000E+00 0.  1.
         12    1    6    6    0    0  0.11727031228E+03 -0.10466981768E+03  0.28072991962E+03  0.32174117648E+03  0.00000000000E+00 0. -1.
         -5    1    3    3    0  503 -0.11200027651E+03  0.28569574881E+02 -0.21275344901E+03  0.24217019348E+03  0.47000000000E+01 0.  1.
         11    1    4    4    0    0 -0.33684300686E+02  0.13374166436E+02 -0.67286748189E+02  0.76426480506E+02  0.00000000000E+00 0. -1.
        -12    1    4    4    0    0  0.44165000864E+02  0.54408538873E+02 -0.18472600701E+03  0.19757159226E+03  0.00000000000E+00 0.  1.
<mgrwt>
<rscale>  2 0.22468670E+03</rscale>
<asrwt>0</asrwt>
<pdfrwt beam="1">  1       21 0.56250002E-01 0.22473276E+03</pdfrwt>
<pdfrwt beam="2">  1       21 0.81170990E-01 0.22473276E+03</pdfrwt>
<totfact> 0.38604898E+03</totfact>
</mgrwt>
</event>
<event>
12    1  0.1050690E-001  0.1951263E+03  0.7546771E-02  0.1154128E+00
         21   -1    0    0  501  502  0.00000000000E+00  0.00000000000E+00  0.94891835966E+02  0.94891835966E+02  0.00000000000E+00 0.  1.
         21   -1    0    0  502  503 -0.00000000000E+00 -0.00000000000E+00 -0.98676300797E+03  0.98676300797E+03  0.00000000000E+00 0. -1.
         -6    2    1    2    0  503 -0.44596041309E+02 -0.79551602724E+02 -0.86279736971E+03  0.88437444156E+03  0.17141058108E+03 0.  0.
        -24    2    3    3    0    0 -0.25196332939E+02 -0.45079081726E+02 -0.82080348752E+03  0.82649284232E+03  0.81884519165E+02 0.  0.
          6    2    1    2  501    0  0.44596041309E+02  0.79551602724E+02 -0.29073802296E+02  0.19728040238E+03  0.17250219357E+03 0.  0.
         24    2    5    5    0    0 -0.40110335290E+02  0.46907937391E+02 -0.34545641880E+02  0.10621553456E+03  0.79241055149E+02 0.  0.
          5    1    5    5  501    0  0.84706376599E+02  0.32643665334E+02  0.54718395839E+01  0.91064867821E+02  0.47000000000E+01 0. -1.
        -11    1    6    6    0    0  0.22712234179E+02  0.25226921354E+02 -0.10311585750E+02  0.35476357523E+02  0.00000000000E+00 0.  1.
         12    1    6    6    0    0 -0.62822569469E+02  0.21681016036E+02 -0.24234056130E+02  0.70739177035E+02  0.00000000000E+00 0. -1.
         -5    1    3    3    0  503 -0.19399708370E+02 -0.34472520999E+02 -0.41993882186E+02  0.57881599234E+02  0.47000000000E+01 0.  1.
         13    1    4    4    0    0 -0.14546543309E+02 -0.67614875996E+02 -0.67921099937E+03  0.68272319065E+03  0.00000000000E+00 0. -1.
        -14    1    4    4    0    0 -0.10649789630E+02  0.22535794270E+02 -0.14159248815E+03  0.14376965167E+03  0.00000000000E+00 0.  1.
<mgrwt>
<rscale>  2 0.19488475E+03</rscale>
<asrwt>0</asrwt>
<pdfrwt beam="1">  1       21 0.14598744E-01 0.19512630E+03</pdfrwt>
<pdfrwt beam="2">  1       21 0.15180969E+00 0.19512630E+03</pdfrwt>
<totfact> 0.11913251E+04</totfact>
</mgrwt>
</event>
<event>
12    1  0.1050690E-001  0.1991722E+03  0.7546771E-02  0.1150893E+00
         21   -1    0    0  501  502  0.00000000000E+00  0.00000000000E+00  0.22035705964E+02  0.22035705964E+02  0.00000000000E+00 0.  1.
         21   -1    0    0  502  503 -0.00000000000E+00 -0.00000000000E+00 -0.20233381714E+04  0.20233381714E+04  0.00000000000E+00 0.  1.
         -6    2    1    2    0  503  0.92114829990E+02 -0.18584474905E+02 -0.64203265011E+03  0.67158932729E+03  0.17319288698E+03 0.  0.
        -24    2    3    3    0    0  0.91255627206E+02  0.27902221953E+02 -0.57277127097E+03  0.58803706905E+03  0.92814558404E+02 0.  0.
          6    2    1    2  501    0 -0.92114829990E+02  0.18584474905E+02 -0.13592698153E+04  0.13737845501E+04  0.17561046261E+03 0.  0.
         24    2    5    5    0    0 -0.23643207796E+00 -0.11639728219E+02 -0.32748350139E+03  0.33746402530E+03  0.80628689165E+02 0.  0.
          5    1    5    5  501    0 -0.91878397912E+02  0.30224203123E+02 -0.10317863140E+04  0.10363205248E+04  0.47000000000E+01 0. -1.
        -11    1    6    6    0    0 -0.41966517618E+01 -0.40775013436E+02 -0.26792992344E+03  0.27104733439E+03  0.00000000000E+00 0.  1.
         12    1    6    6    0    0  0.39602196838E+01  0.29135285217E+02 -0.59553577952E+02  0.66416690910E+02  0.00000000000E+00 0. -1.
         -5    1    3    3    0  503  0.85920278353E+00 -0.46486696858E+02 -0.69261379148E+02  0.83552258232E+02  0.47000000000E+01 0.  1.
         13    1    4    4    0    0  0.85101812863E+02  0.18537261588E+02 -0.56983504581E+03  0.57645288450E+03  0.00000000000E+00 0. -1.
        -14    1    4    4    0    0  0.61538143437E+01  0.93649603648E+01 -0.29362251603E+01  0.11584184555E+02  0.00000000000E+00 0.  1.
<mgrwt>
<rscale>  2 0.19863797E+03</rscale>
<asrwt>0</asrwt>
<pdfrwt beam="1">  1       21 0.33901078E-02 0.19917218E+03</pdfrwt>
<pdfrwt beam="2">  1       21 0.31128287E+00 0.19917218E+03</pdfrwt>
<totfact> 0.15078544E+04</totfact>
</mgrwt>
</event>
<event>
12    1  0.1050690E-001  0.1750557E+03  0.7546771E-02  0.1172716E+00
         21   -1    0    0  503  502  0.00000000000E+00  0.00000000000E+00  0.93288763594E+02  0.93288763594E+02  0.00000000000E+00 0. -1.
         21   -1    0    0  501  503 -0.00000000000E+00 -0.00000000000E+00 -0.32819246752E+03  0.32819246752E+03  0.00000000000E+00 0. -1.
          6    2    1    2  501    0  0.23660044325E+02  0.20706578442E+02 -0.11751717165E+03  0.21071098490E+03  0.17204730000E+03 0.  0.
         24    2    3    3    0    0  0.79373236632E+02  0.28026421329E+02 -0.60548458181E+02  0.13055448666E+03  0.79326963968E+02 0.  0.
         -6    2    1    2    0  502 -0.23660044325E+02 -0.20706578442E+02 -0.11738653227E+03  0.21077024621E+03  0.17220899697E+03 0.  0.
        -24    2    5    5    0    0  0.29457731106E+02  0.98866140161E+01 -0.12191991582E+03  0.14912543249E+03  0.80052643208E+02 0.  0.
          5    1    3    3  501    0 -0.55713192307E+02 -0.73198428864E+01 -0.56968713468E+02  0.80156498246E+02  0.47000000000E+01 0. -1.
        -11    1    4    4    0    0 -0.11142286940E+02  0.11175538912E+02  0.60720535400E+01  0.16908963966E+02  0.00000000000E+00 0.  1.
         12    1    4    4    0    0  0.90515523572E+02  0.16850882417E+02 -0.66620511721E+02  0.11364552269E+03  0.00000000000E+00 0. -1.
         -5    1    5    5    0  502 -0.53117775432E+02 -0.30593192458E+02  0.45333835434E+01  0.61644813715E+02  0.47000000000E+01 0.  1.
         11    1    6    6    0    0  0.32781705244E+02 -0.73134570736E+01 -0.88875240628E+01  0.34743559649E+02  0.00000000000E+00 0. -1.
        -12    1    6    6    0    0 -0.33239741380E+01  0.17200071090E+02 -0.11303239175E+03  0.11438187284E+03  0.00000000000E+00 0.  1.
<mgrwt>
<rscale>  2 0.17501592E+03</rscale>
<asrwt>0</asrwt>
<pdfrwt beam="1">  1       21 0.14352117E-01 0.17505570E+03</pdfrwt>
<pdfrwt beam="2">  1       21 0.50491149E-01 0.17505570E+03</pdfrwt>
<totfact> 0.15959504E+05</totfact>
</mgrwt>
</event>
<event>
12    1  0.1050690E-001  0.2042404E+03  0.7546771E-02  0.1146566E+00
         21   -1    0    0  503  502  0.00000000000E+00  0.00000000000E+00  0.33915743790E+03  0.33915743790E+03  0.00000000000E+00 0.  1.
         21   -1    0    0  501  503 -0.00000000000E+00 -0.00000000000E+00 -0.12366389559E+03  0.12366389559E+03  0.00000000000E+00 0. -1.
          6    2    1    2  501    0 -0.10492461955E+03 -0.19311727774E+01  0.13540265754E+03  0.24504698857E+03  0.17521769808E+03 0.  0.
         24    2    3    3    0    0 -0.58604236587E+01  0.15863184335E+02  0.10105644765E+02  0.84262084224E+02  0.81926733116E+02 0.  0.
         -6    2    1    2    0  502  0.10492461955E+03  0.19311727774E+01  0.80090884773E+02  0.21777434493E+03  0.17319991417E+03 0.  0.
        -24    2    5    5    0    0  0.10528748776E+03  0.35853854583E+02  0.10730879667E+03  0.17402751942E+03  0.79996535583E+02 0.  0.
          5    1    3    3  501    0 -0.99064195893E+02 -0.17794357112E+02  0.12529701278E+03  0.16078490434E+03  0.47000000000E+01 0. -1.
        -11    1    4    4    0    0 -0.53168012755E+01 -0.27948014773E+02  0.25113998763E+02  0.37948291654E+02  0.00000000000E+00 0.  1.
         12    1    4    4    0    0 -0.54362238318E+00  0.43811199108E+02 -0.15008353998E+02  0.46313792571E+02  0.00000000000E+00 0. -1.
         -5    1    5    5    0  502 -0.36286820424E+00 -0.33922681805E+02 -0.27217911897E+02  0.43746825510E+02  0.47000000000E+01 0.  1.
         13    1    6    6    0    0 -0.11810874495E+02 -0.41548767880E+01  0.50576807651E+01  0.13503328930E+02  0.00000000000E+00 0. -1.
        -14    1    6    6    0    0  0.11709836225E+03  0.40008731371E+02  0.10225111591E+03  0.16052419049E+03  0.00000000000E+00 0.  1.
<mgrwt>
<rscale>  2 0.20380694E+03</rscale>
<asrwt>0</asrwt>
<pdfrwt beam="1">  1       21 0.52178067E-01 0.20424041E+03</pdfrwt>
<pdfrwt beam="2">  1       21 0.19025215E-01 0.20424041E+03</pdfrwt>
<totfact> 0.87872331E+04</totfact>
</mgrwt>
</event>
<event>
12    1  0.1050690E-001  0.2275575E+03  0.7546771E-02  0.1128373E+00
         21   -1    0    0  501  502  0.00000000000E+00  0.00000000000E+00  0.79958494860E+02  0.79958494860E+02  0.00000000000E+00 0.  1.
         21   -1    0    0  502  503 -0.00000000000E+00 -0.00000000000E+00 -0.88647284343E+03  0.88647284343E+03  0.00000000000E+00 0. -1.
         -6    2    1    2    0  503  0.60787233135E+02 -0.13411993939E+03 -0.15240201067E+03  0.27386700534E+03  0.17347483363E+03 0.  0.
        -24    2    3    3    0    0  0.13841202537E+02 -0.68193049752E+02 -0.16431433804E+03  0.19192630660E+03  0.70672728526E+02 0.  0.
          6    2    1    2  501    0 -0.60787233135E+02  0.13411993939E+03 -0.65411233790E+03  0.69256433295E+03  0.17349109149E+03 0.  0.
         24    2    5    5    0    0 -0.80633494915E+02  0.48318263764E+02 -0.49858578844E+03  0.51377283642E+03  0.80859902831E+02 0.  0.
          5    1    5    5  501    0  0.19846261780E+02  0.85801675625E+02 -0.15552654945E+03  0.17879149653E+03  0.47000000000E+01 0. -1.
        -13    1    6    6    0    0 -0.17138123341E+02  0.32882339165E+01 -0.12431174629E+02  0.21425728846E+02  0.00000000000E+00 0.  1.
         14    1    6    6    0    0 -0.63495371574E+02  0.45030029848E+02 -0.48615461381E+03  0.49234710757E+03  0.00000000000E+00 0. -1.
         -5    1    3    3    0  503  0.46946030598E+02 -0.65926889637E+02  0.11912327374E+02  0.81940698737E+02  0.47000000000E+01 0.  1.
         11    1    4    4    0    0 -0.42163569543E+01 -0.62104861804E+01 -0.10174560783E+03  0.10202213739E+03  0.00000000000E+00 0. -1.
        -12    1    4    4    0    0  0.18057559491E+02 -0.61982563571E+02 -0.62568730214E+02  0.89904169215E+02  0.00000000000E+00 0.  1.
<mgrwt>
<rscale>  2 0.22755438E+03</rscale>
<asrwt>0</asrwt>
<pdfrwt beam="1">  1       21 0.12301306E-01 0.22755748E+03</pdfrwt>
<pdfrwt beam="2">  1       21 0.13638045E+00 0.22755748E+03</pdfrwt>
<totfact> 0.21026456E+04</totfact>
</mgrwt>
</event>
<event>
12    1  0.1050690E-001  0.2220417E+03  0.7546771E-02  0.1132550E+00
         21   -1    0    0  501  502  0.00000000000E+00  0.00000000000E+00  0.11534278673E+03  0.11534278673E+03  0.00000000000E+00 0. -1.
         21   -1    0    0  502  503 -0.00000000000E+00 -0.00000000000E+00 -0.67180685513E+03  0.67180685513E+03  0.00000000000E+00 0.  1.
         -6    2    1    2    0  503  0.12512853549E+03 -0.58065760718E+02 -0.51689574901E+03  0.56256885890E+03  0.17399345591E+03 0.  0.
        -24    2    3    3    0    0  0.15761702965E+02 -0.74204200076E+02 -0.27916769388E+03  0.30035087424E+03  0.80754886929E+02 0.  0.
          6    2    1    2  501    0 -0.12512853549E+03  0.58065760718E+02 -0.39568319398E+02  0.22458078296E+03  0.17274864171E+03 0.  0.
         24    2    5    5    0    0 -0.73376340636E+01  0.63687721711E+02 -0.11147762894E+02  0.10318835759E+03  0.80084940872E+02 0.  0.
          5    1    5    5  501    0 -0.11779090143E+03 -0.56219609933E+01 -0.28420556504E+02  0.12139242537E+03  0.47000000000E+01 0. -1.
        -13    1    6    6    0    0  0.21156804862E+02 -0.71754222512E+01  0.91784594090E+01  0.24152457299E+02  0.00000000000E+00 0.  1.
         14    1    6    6    0    0 -0.28494438926E+02  0.70863143962E+02 -0.20326222303E+02  0.79035900293E+02  0.00000000000E+00 0. -1.
         -5    1    3    3    0  503  0.10936683253E+03  0.16138439358E+02 -0.23772805513E+03  0.26221798466E+03  0.47000000000E+01 0.  1.
         13    1    4    4    0    0 -0.19964815872E+02 -0.50419040524E+02 -0.80241264021E+02  0.96846961604E+02  0.00000000000E+00 0. -1.
        -14    1    4    4    0    0  0.35726518837E+02 -0.23785159552E+02 -0.19892642986E+03  0.20350391264E+03  0.00000000000E+00 0.  1.
<mgrwt>
<rscale>  2 0.22179775E+03</rscale>
<asrwt>0</asrwt>
<pdfrwt beam="1">  1       21 0.17745044E-01 0.22204168E+03</pdfrwt>
<pdfrwt beam="2">  1       21 0.10335490E+00 0.22204168E+03</pdfrwt>
<totfact> 0.21494378E+04</totfact>
</mgrwt>
</event>
<event>
12    1  0.1050690E-001  0.2131277E+03  0.7546771E-02  0.1139220E+00
         21   -1    0    0  503  502  0.00000000000E+00  0.00000000000E+00  0.20271429094E+03  0.20271429094E+03  0.00000000000E+00 0. -1.
         21   -1    0    0  501  503 -0.00000000000E+00 -0.00000000000E+00 -0.41214136626E+03  0.41214136626E+03  0.00000000000E+00 0. -1.
          6    2    1    2  501    0  0.59885518698E+02 -0.10844582423E+03 -0.31262876607E+03  0.37805616837E+03  0.17275111846E+03 0.  0.
         24    2    3    3    0    0 -0.16298028774E+02 -0.26934421516E+02 -0.80878902989E+02  0.12080506397E+03  0.84032004192E+02 0.  0.
         -6    2    1    2    0  502 -0.59885518698E+02  0.10844582423E+03  0.10320169074E+03  0.23679948883E+03  0.17342617102E+03 0.  0.
        -24    2    5    5    0    0 -0.23643739871E+02  0.64124690192E+02  0.13481367497E+03  0.17123092164E+03  0.80463030278E+02 0.  0.
          5    1    3    3  501    0  0.76183547473E+02 -0.81511402717E+02 -0.23174986308E+03  0.25725110440E+03  0.47000000000E+01 0. -1.
        -11    1    4    4    0    0 -0.22118513334E+02  0.24725799261E+02 -0.13780033336E+02  0.35923294670E+02  0.00000000000E+00 0.  1.
         12    1    4    4    0    0  0.58204845597E+01 -0.51660220778E+02 -0.67098869653E+02  0.84881769303E+02  0.00000000000E+00 0. -1.
         -5    1    5    5    0  502 -0.36241778827E+02  0.44321134042E+02 -0.31611984230E+02  0.65568567181E+02  0.47000000000E+01 0.  1.
         13    1    6    6    0    0 -0.33161551546E+02  0.80028867728E+02  0.10495963987E+03  0.13609127148E+03  0.00000000000E+00 0. -1.
        -14    1    6    6    0    0  0.95178116748E+01 -0.15904177537E+02  0.29854035095E+02  0.35139650164E+02  0.00000000000E+00 0.  1.
<mgrwt>
<rscale>  2 0.21299031E+03</rscale>
<asrwt>0</asrwt>
<pdfrwt beam="1">  1       21 0.31186814E-01 0.21312768E+03</pdfrwt>
<pdfrwt beam="2">  1       21 0.63406363E-01 0.21312768E+03</pdfrwt>
<totfact> 0.22454735E+04</totfact>
</mgrwt>
</event>
<event>
12    1  0.1050690E-001  0.2125022E+03  0.7546771E-02  0.1139732E+00
         21   -1    0    0  503  502  0.00000000000E+00  0.00000000000E+00  0.18248213892E+03  0.18248213892E+03  0.00000000000E+00 0.  1.
         21   -1    0    0  501  503 -0.00000000000E+00 -0.00000000000E+00 -0.36420730046E+03  0.36420730046E+03  0.00000000000E+00 0.  1.
          6    2    1    2  501    0  0.77485356679E+02 -0.95114272548E+02 -0.24604513405E+03  0.32466632923E+03  0.17268269166E+03 0.  0.
         24    2    3    3    0    0  0.94936983743E+02 -0.64259660194E+02 -0.25214585149E+03  0.28839133586E+03  0.80310007851E+02 0.  0.
         -6    2    1    2    0  502 -0.77485356679E+02  0.95114272548E+02  0.64319972513E+02  0.22202311016E+03  0.17351223945E+03 0.  0.
        -24    2    5    5    0    0  0.26082629036E+02  0.64674525557E+02  0.29369635999E+02  0.10846025582E+03  0.77704271320E+02 0.  0.
          5    1    3    3  501    0 -0.17451627064E+02 -0.30854612354E+02  0.61007174385E+01  0.36274993370E+02  0.47000000000E+01 0. -1.
        -11    1    4    4    0    0  0.78605141181E+02 -0.80770069180E+02 -0.17788642220E+03  0.21058525945E+03  0.00000000000E+00 0.  1.
         12    1    4    4    0    0  0.16331842562E+02  0.16510408986E+02 -0.74259429294E+02  0.77806076404E+02  0.00000000000E+00 0. -1.
         -5    1    5    5    0  502 -0.10356798571E+03  0.30439746992E+02  0.34950336514E+02  0.11356285433E+03  0.47000000000E+01 0.  1.
         13    1    6    6    0    0  0.22392149216E+02 -0.37253265974E+01 -0.14667824008E+02  0.27026495627E+02  0.00000000000E+00 0. -1.
        -14    1    6    6    0    0  0.36904798197E+01  0.68399852154E+02  0.44037460007E+02  0.81433760197E+02  0.00000000000E+00 0.  1.
<mgrwt>
<rscale>  2 0.21233284E+03</rscale>
<asrwt>0</asrwt>
<pdfrwt beam="1">  1       21 0.28074175E-01 0.21250224E+03</pdfrwt>
<pdfrwt beam="2">  1       21 0.56031893E-01 0.21250224E+03</pdfrwt>
<totfact> 0.35973973E+04</totfact>
</mgrwt>
</event>
<event>
12    1  0.1050690E-001  0.2143602E+03  0.7546771E-02  0.1138206E+00
         21   -1    0    0  501  502  0.00000000000E+00  0.00000000000E+00  0.14037305679E+04  0.14037305679E+04  0.00000000000E+00 0.  1.
         21   -1    0    0  502  503 -0.00000000000E+00 -0.00000000000E+00 -0.34054936756E+02  0.34054936756E+02  0.00000000000E+00 0. -1.
         -6    2    1    2    0  503 -0.70113557648E+02 -0.10385908455E+03  0.54168297099E+03  0.58255535983E+03  0.17391861832E+03 0.  0.
        -24    2    3    3    0    0 -0.78697855291E+02 -0.67809243189E+02  0.20293598785E+03  0.24175499332E+03  0.80442623903E+02 0.  0.
          6    2    1    2  501    0  0.70113557648E+02  0.10385908455E+03  0.82799266017E+03  0.85523014484E+03  0.17362066392E+03 0.  0.
         24    2    5    5    0    0  0.16398249227E+02 -0.13488076257E+02  0.38980087749E+03  0.39840433677E+03  0.79564192253E+02 0.  0.
          5    1    5    5  501    0  0.53715308421E+02  0.11734716081E+03  0.43819178268E+03  0.45682580807E+03  0.47000000000E+01 0. -1.
        -11    1    6    6    0    0 -0.19058347794E+02 -0.34863807277E+02  0.22508207111E+03  0.22856212375E+03  0.00000000000E+00 0.  1.
         12    1    6    6    0    0  0.35456597022E+02  0.21375731020E+02  0.16471880638E+03  0.16984221302E+03  0.00000000000E+00 0. -1.
         -5    1    3    3    0  503  0.85842976428E+01 -0.36049841364E+02  0.33874698315E+03  0.34080036652E+03  0.47000000000E+01 0.  1.
         11    1    4    4    0    0 -0.37052071571E+02 -0.59463034090E+02  0.58722533641E+02  0.91416871463E+02  0.00000000000E+00 0. -1.
        -12    1    4    4    0    0 -0.41645783720E+02 -0.83462090987E+01  0.14421345421E+03  0.15033812185E+03  0.00000000000E+00 0.  1.
<mgrwt>
<rscale>  2 0.21429978E+03</rscale>
<asrwt>0</asrwt>
<pdfrwt beam="1">  1       21 0.21595850E+00 0.21436023E+03</pdfrwt>
<pdfrwt beam="2">  1       21 0.52392221E-02 0.21436023E+03</pdfrwt>
<totfact> 0.26047694E+04</totfact>
</mgrwt>
</event>
<event>
12    1  0.1050690E-001  0.1976698E+03  0.7546771E-02  0.1152135E+00
         21   -1    0    0  501  502  0.00000000000E+00  0.00000000000E+00  0.59167902773E+02  0.59167902773E+02  0.00000000000E+00 0.  1.
         21   -1    0    0  502  503 -0.00000000000E+00 -0.00000000000E+00 -0.10410301007E+04  0.10410301007E+04  0.00000000000E+00 0.  1.
         -6    2    1    2    0  503 -0.93675569906E+02 -0.12919543298E+02 -0.82787422289E+03  0.85114574348E+03  0.17358375710E+03 0.  0.
        -24    2    3    3    0    0  0.18178326164E+02  0.32155797595E+01 -0.41634264142E+03  0.42435309030E+03  0.79959731679E+02 0.  0.
          6    2    1    2  501    0  0.93675569906E+02  0.12919543298E+02 -0.15398797500E+03  0.24905225995E+03  0.17138466893E+03 0.  0.
         24    2    5    5    0    0  0.12373734653E+03  0.33907739883E+02 -0.14847555778E+03  0.21167992321E+03  0.79389753023E+02 0.  0.
          5    1    5    5  501    0 -0.30061776620E+02 -0.20988196585E+02 -0.55124172216E+01  0.37372336736E+02  0.47000000000E+01 0. -1.
        -11    1    6    6    0    0  0.24011674250E+02 -0.20491477148E+02 -0.11194354255E+02  0.33492905266E+02  0.00000000000E+00 0.  1.
         12    1    6    6    0    0  0.99725672276E+02  0.54399217030E+02 -0.13728120352E+03  0.17818701795E+03  0.00000000000E+00 0. -1.
         -5    1    3    3    0  503 -0.11185389607E+03 -0.16135123057E+02 -0.41153158147E+03  0.42679265318E+03  0.47000000000E+01 0.  1.
         11    1    4    4    0    0 -0.11909891511E+02 -0.11323999224E+02 -0.17108978588E+02  0.23723313904E+02  0.00000000000E+00 0. -1.
        -12    1    4    4    0    0  0.30088217676E+02  0.14539578984E+02 -0.39923366283E+03  0.40062977640E+03  0.00000000000E+00 0.  1.
<mgrwt>
<rscale>  2 0.19718595E+03</rscale>
<asrwt>0</asrwt>
<pdfrwt beam="1">  1       21 0.91027539E-02 0.19766979E+03</pdfrwt>
<pdfrwt beam="2">  1       21 0.16015848E+00 0.19766979E+03</pdfrwt>
<totfact> 0.23956301E+04</totfact>
</mgrwt>
</event>
<event>
12    1  0.1050690E-001  0.3633604E+03  0.7546771E-02  0.1057293E+00
         21   -1    0    0  503  502  0.00000000000E+00  0.00000000000E+00  0.18881636189E+03  0.18881636189E+03  0.00000000000E+00 0. -1.
         21   -1    0    0  501  503 -0.00000000000E+00 -0.00000000000E+00 -0.74090411540E+03  0.74090411540E+03  0.00000000000E+00 0.  1.
          6    2    1    2  501    0  0.20818453760E+03 -0.24235775188E+03 -0.38696047334E+03  0.53059919878E+03  0.17239205383E+03 0.  0.
         24    2    3    3    0    0  0.22534341049E+03 -0.23376789043E+03 -0.32802953524E+03  0.46844488996E+03  0.80063472916E+02 0.  0.
         -6    2    1    2    0  502 -0.20818453760E+03  0.24235775188E+03 -0.16512728016E+03  0.39912127851E+03  0.17306846828E+03 0.  0.
        -24    2    5    5    0    0 -0.19516927854E+03  0.14816777437E+03 -0.16344758654E+03  0.30390541743E+03  0.74824144162E+02 0.  0.
          5    1    3    3  501    0 -0.17158872892E+02 -0.85898614454E+01 -0.58930938100E+02  0.62154308813E+02  0.47000000000E+01 0. -1.
        -13    1    4    4    0    0  0.68028504460E+02 -0.10873667663E+03 -0.16911016541E+03  0.21224935880E+03  0.00000000000E+00 0.  1.
         14    1    4    4    0    0  0.15731490603E+03 -0.12503121380E+03 -0.15891936983E+03  0.25619553117E+03  0.00000000000E+00 0. -1.
         -5    1    5    5    0  502 -0.13015259059E+02  0.94189977503E+02 -0.16796936260E+01  0.95215861080E+02  0.47000000000E+01 0.  1.
         13    1    6    6    0    0 -0.64993601367E+02  0.52042017700E+02 -0.15592768410E+02  0.84709351619E+02  0.00000000000E+00 0. -1.
        -14    1    6    6    0    0 -0.13017567717E+03  0.96125756675E+02 -0.14785481813E+03  0.21919606581E+03  0.00000000000E+00 0.  1.
<mgrwt>
<rscale>  2 0.36327995E+03</rscale>
<asrwt>0</asrwt>
<pdfrwt beam="1">  1       21 0.29048671E-01 0.36336039E+03</pdfrwt>
<pdfrwt beam="2">  1       21 0.11398525E+00 0.36336039E+03</pdfrwt>
<totfact> 0.61726501E+03</totfact>
</mgrwt>
</event>
<event>
12    1  0.1050690E-001  0.2432924E+03  0.7546771E-02  0.1117989E+00
         21   -1    0    0  503  502  0.00000000000E+00  0.00000000000E+00  0.17993621381E+04  0.17993621381E+04  0.00000000000E+00 0. -1.
         21   -1    0    0  501  503 -0.00000000000E+00 -0.00000000000E+00 -0.41299260191E+02  0.41299260191E+02  0.00000000000E+00 0.  1.
          6    2    1    2  501    0  0.92196880792E+02  0.14367915308E+03  0.45967116002E+03  0.52008533198E+03  0.17334132030E+03 0.  0.
         24    2    3    3    0    0  0.11651974926E+03  0.11962476479E+03  0.44506739905E+03  0.48259432824E+03  0.83218745713E+02 0.  0.
         -6    2    1    2    0  502 -0.92196880792E+02 -0.14367915308E+03  0.12983917179E+04  0.13205760663E+04  0.17016500812E+03 0.  0.
        -24    2    5    5    0    0 -0.10156750321E+01 -0.12213672428E+03  0.81409668636E+03  0.82727914144E+03  0.81969214453E+02 0.  0.
          5    1    3    3  501    0 -0.24322868463E+02  0.24054388296E+02  0.14603760977E+02  0.37491003738E+02  0.47000000000E+01 0. -1.
        -13    1    4    4    0    0  0.17476874818E+02 -0.21385531379E+01  0.10383813915E+02  0.20441089852E+02  0.00000000000E+00 0.  1.
         14    1    4    4    0    0  0.99042874437E+02  0.12176331792E+03  0.43468358513E+03  0.46215323839E+03  0.00000000000E+00 0. -1.
         -5    1    5    5    0  502 -0.91181205760E+02 -0.21542428806E+02  0.48429503152E+03  0.49329692486E+03  0.47000000000E+01 0.  1.
         11    1    6    6    0    0 -0.31723104218E+02 -0.59508020154E+02  0.55030222765E+03  0.55441870600E+03  0.00000000000E+00 0. -1.
        -12    1    6    6    0    0  0.30707429186E+02 -0.62628704122E+02  0.26379445870E+03  0.27286043544E+03  0.00000000000E+00 0.  1.
<mgrwt>
<rscale>  2 0.24272721E+03</rscale>
<asrwt>0</asrwt>
<pdfrwt beam="1">  1       21 0.27682488E+00 0.24329237E+03</pdfrwt>
<pdfrwt beam="2">  1       21 0.63537337E-02 0.24329237E+03</pdfrwt>
<totfact> 0.79089292E+03</totfact>
</mgrwt>
</event>
<event>
12    1  0.1050690E-001  0.2650586E+03  0.7546771E-02  0.1105809E+00
         21   -1    0    0  501  502  0.00000000000E+00  0.00000000000E+00  0.45274978199E+02  0.45274978199E+02  0.00000000000E+00 0.  1.
         21   -1    0    0  502  503 -0.00000000000E+00 -0.00000000000E+00 -0.15654834313E+04  0.15654834313E+04  0.00000000000E+00 0. -1.
         -6    2    1    2    0  503  0.45719324017E+02  0.19652216509E+03 -0.59567582870E+03  0.65198601080E+03  0.17188614668E+03 0.  0.
        -24    2    3    3    0    0  0.18663134916E+02  0.98745661956E+02 -0.48481346541E+03  0.50163696515E+03  0.80601055814E+02 0.  0.
          6    2    1    2  501    0 -0.45719324017E+02 -0.19652216509E+03 -0.92453262437E+03  0.95877239867E+03  0.15418404900E+03 0.  0.
         24    2    5    5    0    0 -0.18702051871E+01 -0.14941015421E+03 -0.81181110309E+03  0.82888583989E+03  0.75416023652E+02 0.  0.
          5    1    5    5  501    0 -0.43849118830E+02 -0.47112010883E+02 -0.11272152128E+03  0.12988655878E+03  0.47000000000E+01 0. -1.
        -13    1    6    6    0    0 -0.52265274686E+01 -0.11080576588E+02 -0.11845540663E+02  0.17041496428E+02  0.00000000000E+00 0.  1.
         14    1    6    6    0    0  0.33563222815E+01 -0.13832957762E+03 -0.79996556243E+03  0.81184434347E+03  0.00000000000E+00 0. -1.
         -5    1    3    3    0  503  0.27056189101E+02  0.97776503136E+02 -0.11086236329E+03  0.15034904565E+03  0.47000000000E+01 0.  1.
         13    1    4    4    0    0 -0.15301926571E+02  0.93147009473E+02 -0.35716647439E+03  0.36942983740E+03  0.00000000000E+00 0. -1.
        -14    1    4    4    0    0  0.33965061487E+02  0.55986524826E+01 -0.12764699102E+03  0.13220712775E+03  0.00000000000E+00 0.  1.
<mgrwt>
<rscale>  2 0.26223332E+03</rscale>
<asrwt>0</asrwt>
<pdfrwt beam="1">  1       21 0.69653812E-02 0.26505861E+03</pdfrwt>
<pdfrwt beam="2">  1       21 0.24084361E+00 0.26505861E+03</pdfrwt>
<totfact> 0.10845047E+04</totfact>
</mgrwt>
</event>
<event>
12    1  0.1050690E-001  0.2940961E+03  0.7546771E-02  0.1088316E+00
         21   -1    0    0  503  502  0.00000000000E+00  0.00000000000E+00  0.21727651247E+04  0.21727651247E+04  0.00000000000E+00 0. -1.
         21   -1    0    0  501  503 -0.00000000000E+00 -0.00000000000E+00 -0.47928309787E+02  0.47928309787E+02  0.00000000000E+00 0. -1.
          6    2    1    2  501    0 -0.50160933552E+02  0.23205550926E+03  0.60382480124E+03  0.67163749400E+03  0.17357031461E+03 0.  0.
         24    2    3    3    0    0 -0.52226591548E+02  0.74857084367E+02  0.16111305680E+03  0.20181690015E+03  0.80258608082E+02 0.  0.
         -6    2    1    2    0  502  0.50160933552E+02 -0.23205550926E+03  0.15210120137E+04  0.15490559405E+04  0.17242645505E+03 0.  0.
        -24    2    5    5    0    0 -0.31367720724E+02 -0.69652998161E+02  0.61618638219E+03  0.62615128102E+03  0.80896817451E+02 0.  0.
          5    1    3    3  501    0  0.20656579953E+01  0.15719842490E+03  0.44271174444E+03  0.46982059384E+03  0.47000000000E+01 0. -1.
        -11    1    4    4    0    0 -0.33653426202E+02 -0.94298518493E+01  0.40346180006E+02  0.53378735861E+02  0.00000000000E+00 0.  1.
         12    1    4    4    0    0 -0.18573165345E+02  0.84286936217E+02  0.12076687679E+03  0.14843816429E+03  0.00000000000E+00 0. -1.
         -5    1    5    5    0  502  0.81528654276E+02 -0.16240251110E+03  0.90482563147E+03  0.92290465946E+03  0.47000000000E+01 0.  1.
         11    1    6    6    0    0 -0.28568393906E+01 -0.71042351706E+02  0.28491651328E+03  0.29365387245E+03  0.00000000000E+00 0. -1.
        -12    1    6    6    0    0 -0.28510881333E+02  0.13893535445E+01  0.33126986891E+03  0.33249740857E+03  0.00000000000E+00 0.  1.
<mgrwt>
<rscale>  2 0.29392758E+03</rscale>
<asrwt>0</asrwt>
<pdfrwt beam="1">  1       21 0.33427148E+00 0.29409613E+03</pdfrwt>
<pdfrwt beam="2">  1       21 0.73735878E-02 0.29409613E+03</pdfrwt>
<totfact> 0.26885398E+03</totfact>
</mgrwt>
</event>
<event>
12    1  0.1050690E-001  0.1757618E+03  0.7546771E-02  0.1172244E+00
         21   -1    0    0  501  502  0.00000000000E+00  0.00000000000E+00  0.26668417385E+03  0.26668417385E+03  0.00000000000E+00 0.  1.
         21   -1    0    0  502  503 -0.00000000000E+00 -0.00000000000E+00 -0.12584008085E+03  0.12584008085E+03  0.00000000000E+00 0.  1.
         -6    2    1    2    0  503 -0.30595206723E+02 -0.13155541541E+01  0.12922274872E+02  0.17513934556E+03  0.17195641256E+03 0.  0.
        -24    2    3    3    0    0 -0.32992612863E+02 -0.39741388037E+02 -0.45135086007E+02  0.10531786307E+03  0.79917368987E+02 0.  0.
          6    2    1    2  501    0  0.30595206723E+02  0.13155541541E+01  0.12792181813E+03  0.21738490913E+03  0.17307342317E+03 0.  0.
         24    2    5    5    0    0  0.44074743287E+02 -0.62231846940E+02  0.87857373859E+02  0.14091779341E+03  0.79520567084E+02 0.  0.
          5    1    5    5  501    0 -0.13479536564E+02  0.63547401094E+02  0.40064444273E+02  0.76467115721E+02  0.47000000000E+01 0. -1.
        -13    1    6    6    0    0  0.64207368315E+02 -0.28526046326E+02  0.48841345796E+02  0.85567508577E+02  0.00000000000E+00 0.  1.
         14    1    6    6    0    0 -0.20132625027E+02 -0.33705800614E+02  0.39016028063E+02  0.55350284835E+02  0.00000000000E+00 0. -1.
         -5    1    3    3    0  503  0.23974061392E+01  0.38425833883E+02  0.58057360879E+02  0.69821482496E+02  0.47000000000E+01 0.  1.
         11    1    4    4    0    0  0.11232888655E+02  0.13166331699E+02 -0.30129854901E+02  0.34746773006E+02  0.00000000000E+00 0. -1.
        -12    1    4    4    0    0 -0.44225501518E+02 -0.52907719736E+02 -0.15005231106E+02  0.70571090063E+02  0.00000000000E+00 0.  1.
<mgrwt>
<rscale>  2 0.17548619E+03</rscale>
<asrwt>0</asrwt>
<pdfrwt beam="1">  1       21 0.41028334E-01 0.17576179E+03</pdfrwt>
<pdfrwt beam="2">  1       21 0.19360013E-01 0.17576179E+03</pdfrwt>
<totfact> 0.14112933E+05</totfact>
</mgrwt>
</event>
<event>
12    1  0.1050690E-001  0.2464937E+03  0.7546771E-02  0.1115608E+00
         21   -1    0    0  503  502  0.00000000000E+00  0.00000000000E+00  0.49856796066E+03  0.49856796066E+03  0.00000000000E+00 0.  1.
         21   -1    0    0  501  503 -0.00000000000E+00 -0.00000000000E+00 -0.24215805653E+03  0.24215805653E+03  0.00000000000E+00 0.  1.
          6    2    1    2  501    0 -0.10238452980E+03  0.14211678820E+03  0.38951341478E+03  0.46095536450E+03  0.17343406338E+03 0.  0.
         24    2    3    3    0    0 -0.33956566069E+02 -0.21642522263E+01  0.11574465804E+03  0.14398402982E+03  0.78592891605E+02 0.  0.
         -6    2    1    2    0  502  0.10238452980E+03 -0.14211678820E+03 -0.13310351065E+03  0.27977065268E+03  0.17284472837E+03 0.  0.
        -24    2    5    5    0    0  0.83844172424E+02 -0.34910506963E+02 -0.10620369880E+02  0.11587696348E+03  0.71176468462E+02 0.  0.
          5    1    3    3  501    0 -0.68427963731E+02  0.14428104043E+03  0.27376875674E+03  0.31697133468E+03  0.47000000000E+01 0. -1.
        -11    1    4    4    0    0 -0.58229998515E+02  0.87714432555E+01  0.75938174341E+02  0.96095146944E+02  0.00000000000E+00 0.  1.
         12    1    4    4    0    0  0.24273432447E+02 -0.10935695482E+02  0.39806483698E+02  0.47888882873E+02  0.00000000000E+00 0. -1.
         -5    1    5    5    0  502  0.18540357376E+02 -0.10720628124E+03 -0.12248314077E+03  0.16389368920E+03  0.47000000000E+01 0.  1.
         13    1    6    6    0    0  0.10681628735E+02 -0.13489989630E+02  0.26098973094E+02  0.31260732705E+02  0.00000000000E+00 0. -1.
        -14    1    6    6    0    0  0.73162543689E+02 -0.21420517333E+02 -0.36719342974E+02  0.84616230774E+02  0.00000000000E+00 0.  1.
<mgrwt>
<rscale>  2 0.24639007E+03</rscale>
<asrwt>0</asrwt>
<pdfrwt beam="1">  1       21 0.76702763E-01 0.24649371E+03</pdfrwt>
<pdfrwt beam="2">  1       21 0.37255086E-01 0.24649371E+03</pdfrwt>
<totfact> 0.10156500E+04</totfact>
</mgrwt>
</event>
<event>
12    1  0.1050690E-001  0.2081493E+03  0.7546771E-02  0.1143687E+00
         21   -1    0    0  503  502  0.00000000000E+00  0.00000000000E+00  0.39644532395E+03  0.39644532395E+03  0.00000000000E+00 0.  1.
         21   -1    0    0  501  503 -0.00000000000E+00 -0.00000000000E+00 -0.13887580644E+03  0.13887580644E+03  0.00000000000E+00 0.  1.
          6    2    1    2  501    0  0.74870366297E+01  0.10926151220E+03  0.10113770048E+01  0.20494526387E+03  0.17322645448E+03 0.  0.
         24    2    3    3    0    0 -0.12299159536E+02  0.98530435624E+02  0.60265650203E+02  0.14138577633E+03  0.80613107402E+02 0.  0.
         -6    2    1    2    0  502 -0.74870366297E+01 -0.10926151220E+03  0.25655814050E+03  0.33037586653E+03  0.17700847426E+03 0.  0.
        -24    2    5    5    0    0  0.30164568665E+02  0.70107555034E+01  0.10322997090E+03  0.13424198059E+03  0.80033933842E+02 0.  0.
          5    1    3    3  501    0  0.19786196166E+02  0.10731076579E+02 -0.59254273198E+02  0.63559487533E+02  0.47000000000E+01 0. -1.
        -13    1    4    4    0    0 -0.32732288037E+02  0.43202051832E+02 -0.37624779263E+01  0.54332091832E+02  0.00000000000E+00 0.  1.
         14    1    4    4    0    0  0.20433128501E+02  0.55328383791E+02  0.64028128129E+02  0.87053684500E+02  0.00000000000E+00 0. -1.
         -5    1    5    5    0  502 -0.37651605294E+02 -0.11627226771E+03  0.15332816960E+03  0.19613388593E+03  0.47000000000E+01 0.  1.
         11    1    6    6    0    0  0.39529808028E+02  0.12925129247E+02  0.11240934999E+03  0.11985627499E+03  0.00000000000E+00 0. -1.
        -12    1    6    6    0    0 -0.93652393637E+01 -0.59143737433E+01 -0.91793790938E+01  0.14385705602E+02  0.00000000000E+00 0.  1.
<mgrwt>
<rscale>  2 0.20734300E+03</rscale>
<asrwt>0</asrwt>
<pdfrwt beam="1">  1       21 0.60991588E-01 0.20814931E+03</pdfrwt>
<pdfrwt beam="2">  1       21 0.21365509E-01 0.20814931E+03</pdfrwt>
<totfact> 0.50636985E+04</totfact>
</mgrwt>
</event>
<event>
12    1  0.1050690E-001  0.2295592E+03  0.7546771E-02  0.1127365E+00
         21   -1    0    0  501  502  0.00000000000E+00  0.00000000000E+00  0.15546547849E+03  0.15546547849E+03  0.00000000000E+00 0. -1.
         21   -1    0    0  502  503 -0.00000000000E+00 -0.00000000000E+00 -0.34491616946E+03  0.34491616946E+03  0.00000000000E+00 0.  1.
         -6    2    1    2    0  503  0.12267629186E+03 -0.85048015754E+02 -0.53915891689E+02  0.23580572543E+03  0.17439833486E+03 0.  0.
        -24    2    3    3    0    0  0.15177965021E+03 -0.97871917693E+02 -0.47809128159E+02  0.20308202624E+03  0.79628023685E+02 0.  0.
          6    2    1    2  501    0 -0.12267629186E+03  0.85048015754E+02 -0.13553479929E+03  0.26457592252E+03  0.17131286989E+03 0.  0.
         24    2    5    5    0    0 -0.67815592316E+02  0.83874104141E+02 -0.15672091044E+03  0.20556731528E+03  0.77863068493E+02 0.  0.
          5    1    5    5  501    0 -0.54860699540E+02  0.11739116130E+01  0.21186111153E+02  0.59008607239E+02  0.47000000000E+01 0. -1.
        -13    1    6    6    0    0 -0.28929255625E+02  0.31873126706E+02 -0.12711237284E+03  0.13420265782E+03  0.00000000000E+00 0.  1.
         14    1    6    6    0    0 -0.38886336691E+02  0.52000977435E+02 -0.29608537601E+02  0.71364657459E+02  0.00000000000E+00 0. -1.
         -5    1    3    3    0  503 -0.29103358351E+02  0.12823901939E+02 -0.61067635303E+01  0.32723699196E+02  0.47000000000E+01 0.  1.
         11    1    4    4    0    0  0.70896005923E+02 -0.27277759188E+02  0.16778167695E+02  0.77793487603E+02  0.00000000000E+00 0. -1.
        -12    1    4    4    0    0  0.80883644283E+02 -0.70594158505E+02 -0.64587295854E+02  0.12528853864E+03  0.00000000000E+00 0.  1.
<mgrwt>
<rscale>  2 0.22897314E+03</rscale>
<asrwt>0</asrwt>
<pdfrwt beam="1">  1       21 0.23917766E-01 0.22955918E+03</pdfrwt>
<pdfrwt beam="2">  1       21 0.53064026E-01 0.22955918E+03</pdfrwt>
<totfact> 0.54512203E+04</totfact>
</mgrwt>
</event>
<event>
12    1  0.1050690E-001  0.1752928E+03  0.7546771E-02  0.1172871E+00
         21   -1    0    0  501  502  0.00000000000E+00  0.00000000000E+00  0.73754851956E+02  0.73754851956E+02  0.00000000000E+00 0. -1.
         21   -1    0    0  502  503 -0.00000000000E+00 -0.00000000000E+00 -0.46511579411E+03  0.46511579411E+03  0.00000000000E+00 0. -1.
         -6    2    1    2    0  503 -0.44182753792E+01 -0.25619754344E+02 -0.28712504572E+03  0.33640505415E+03  0.17335419119E+03 0.  0.
        -24    2    3    3    0    0  0.22584672519E+01 -0.83281794784E+02 -0.17210555602E+03  0.20748235323E+03  0.80545927719E+02 0.  0.
          6    2    1    2  501    0  0.44182753792E+01  0.25619754344E+02 -0.10423589643E+03  0.20246559192E+03  0.17161381307E+03 0.  0.
         24    2    5    5    0    0 -0.92253361605E+01 -0.46680998380E+02 -0.83025965867E+02  0.12574859162E+03  0.81579255024E+02 0.  0.
          5    1    5    5  501    0  0.13643611540E+02  0.72300752724E+02 -0.21209930566E+02  0.76717000299E+02  0.47000000000E+01 0. -1.
        -11    1    6    6    0    0  0.27898951110E+02 -0.33454936488E+02 -0.13111573867E+02  0.45491731312E+02  0.00000000000E+00 0.  1.
         12    1    6    6    0    0 -0.37124287271E+02 -0.13226061892E+02 -0.69914391999E+02  0.80256860312E+02  0.00000000000E+00 0. -1.
         -5    1    3    3    0  503 -0.66767426311E+01  0.57662040440E+02 -0.11501948971E+03  0.12892270092E+03  0.47000000000E+01 0.  1.
         13    1    4    4    0    0 -0.84914100770E+01  0.10123762291E+02 -0.58705024255E+02  0.60173702568E+02  0.00000000000E+00 0. -1.
        -14    1    4    4    0    0  0.10749877329E+02 -0.93405557075E+02 -0.11340053176E+03  0.14730865066E+03  0.00000000000E+00 0.  1.
<mgrwt>
<rscale>  2 0.17486098E+03</rscale>
<asrwt>0</asrwt>
<pdfrwt beam="1">  1       21 0.11346900E-01 0.17529281E+03</pdfrwt>
<pdfrwt beam="2">  1       21 0.71556276E-01 0.17529281E+03</pdfrwt>
<totfact> 0.11520607E+05</totfact>
</mgrwt>
</event>
<event>
12    1  0.1050690E-001  0.2035019E+03  0.7546771E-02  0.1146937E+00
         21   -1    0    0  503  502  0.00000000000E+00  0.00000000000E+00  0.90000905803E+02  0.90000905803E+02  0.00000000000E+00 0.  1.
         21   -1    0    0  501  503 -0.00000000000E+00 -0.00000000000E+00 -0.91333700191E+03  0.91333700191E+03  0.00000000000E+00 0.  1.
          6    2    1    2  501    0 -0.10086664920E+03 -0.37053573637E+02 -0.76585202058E+03  0.79242813202E+03  0.17281776167E+03 0.  0.
         24    2    3    3    0    0 -0.13830668474E+03 -0.22146224278E+02 -0.62775162749E+03  0.64849136153E+03  0.82763191535E+02 0.  0.
         -6    2    1    2    0  502  0.10086664920E+03  0.37053573637E+02 -0.57484075530E+02  0.21090977570E+03  0.17213792814E+03 0.  0.
        -24    2    5    5    0    0  0.10564570800E+03 -0.28924804777E+02 -0.45850899863E+02  0.14357919871E+03  0.80715682088E+02 0.  0.
          5    1    3    3  501    0  0.37440035541E+02 -0.14907349359E+02 -0.13810039309E+03  0.14393677048E+03  0.47000000000E+01 0. -1.
        -13    1    4    4    0    0 -0.63804032941E+02  0.59292137571E+01 -0.43875264747E+03  0.44340725733E+03  0.00000000000E+00 0.  1.
         14    1    4    4    0    0 -0.74502651802E+02 -0.28075438035E+02 -0.18899898002E+03  0.20508410420E+03  0.00000000000E+00 0. -1.
         -5    1    5    5    0  502 -0.47790587940E+01  0.65978378414E+02 -0.11633175666E+02  0.67330576985E+02  0.47000000000E+01 0.  1.
         11    1    6    6    0    0 -0.35047757771E+01 -0.13796235559E+02 -0.28730288768E+02  0.32063204169E+02  0.00000000000E+00 0. -1.
        -12    1    6    6    0    0  0.10915048377E+03 -0.15128569218E+02 -0.17120611095E+02  0.11151599454E+03  0.00000000000E+00 0.  1.
<mgrwt>
<rscale>  2 0.20335750E+03</rscale>
<asrwt>0</asrwt>
<pdfrwt beam="1">  1       21 0.13846293E-01 0.20350191E+03</pdfrwt>
<pdfrwt beam="2">  1       21 0.14051339E+00 0.20350191E+03</pdfrwt>
<totfact> 0.15959412E+04</totfact>
</mgrwt>
</event>
<event>
12    1  0.1050690E-001  0.1899165E+03  0.7546771E-02  0.1158674E+00
         21   -1    0    0  501  502  0.00000000000E+00  0.00000000000E+00  0.44271689989E+03  0.44271689989E+03  0.00000000000E+00 0.  1.
         21   -1    0    0  502  503 -0.00000000000E+00 -0.00000000000E+00 -0.85201204585E+02  0.85201204585E+02  0.00000000000E+00 0.  1.
         -6    2    1    2    0  503 -0.73305533321E+02 -0.28490068208E+02  0.12136084678E+03  0.22487125961E+03  0.17220117034E+03 0.  0.
        -24    2    3    3    0    0  0.18248975009E+02 -0.56443449475E+01  0.15972139207E+02  0.83333191411E+02  0.79526271390E+02 0.  0.
          6    2    1    2  501    0  0.73305533321E+02  0.28490068208E+02  0.23615484853E+03  0.30304684486E+03  0.17286668995E+03 0.  0.
         24    2    5    5    0    0  0.70690654394E+02 -0.46618360482E+02  0.14472604083E+03  0.18460094781E+03  0.77210380678E+02 0.  0.
          5    1    5    5  501    0  0.26148789265E+01  0.75108428690E+02  0.91428807693E+02  0.11844589705E+03  0.47000000000E+01 0. -1.
        -13    1    6    6    0    0  0.86540091968E+02 -0.30945965209E+02  0.12227715858E+03  0.15296582556E+03  0.00000000000E+00 0.  1.
         14    1    6    6    0    0 -0.15849437574E+02 -0.15672395273E+02  0.22448882254E+02  0.31635122245E+02  0.00000000000E+00 0. -1.
         -5    1    3    3    0  503 -0.91554508329E+02 -0.22845723261E+02  0.10538870757E+03  0.14153806820E+03  0.47000000000E+01 0.  1.
         11    1    4    4    0    0  0.10566183382E+02  0.13609737223E+02  0.44700565774E+02  0.47906260124E+02  0.00000000000E+00 0. -1.
        -12    1    4    4    0    0  0.76827916264E+01 -0.19254082170E+02 -0.28728426567E+02  0.35426931287E+02  0.00000000000E+00 0.  1.
<mgrwt>
<rscale>  2 0.18976493E+03</rscale>
<asrwt>0</asrwt>
<pdfrwt beam="1">  1       21 0.68110291E-01 0.18991650E+03</pdfrwt>
<pdfrwt beam="2">  1       21 0.13107878E-01 0.18991650E+03</pdfrwt>
<totfact> 0.98657627E+04</totfact>
</mgrwt>
</event>
<event>
12    1  0.1050690E-001  0.2311825E+03  0.7546771E-02  0.1126699E+00
         21   -1    0    0  501  502  0.00000000000E+00  0.00000000000E+00  0.12001420677E+03  0.12001420677E+03  0.00000000000E+00 0.  1.
         21   -1    0    0  502  503 -0.00000000000E+00 -0.00000000000E+00 -0.56700265524E+03  0.56700265524E+03  0.00000000000E+00 0.  1.
         -6    2    1    2    0  503 -0.14231652350E+03  0.38009808291E+02 -0.39068050495E+03  0.45395663113E+03  0.17817583341E+03 0.  0.
        -24    2    3    3    0    0 -0.13546750144E+03  0.33375335941E+02 -0.17306730585E+03  0.23613564532E+03  0.79639146403E+02 0.  0.
          6    2    1    2  501    0  0.14231652350E+03 -0.38009808291E+02 -0.56307943528E+02  0.23306023088E+03  0.17160346246E+03 0.  0.
         24    2    5    5    0    0  0.73882980211E+02 -0.71704126071E+02  0.11013677268E+02  0.13121354452E+03  0.80594768546E+02 0.  0.
          5    1    5    5  501    0  0.68433543288E+02  0.33694317780E+02 -0.67321620796E+02  0.10184668637E+03  0.47000000000E+01 0. -1.
        -13    1    6    6    0    0  0.74384963996E+02 -0.17363335126E+02  0.52278416478E+01  0.76563298020E+02  0.00000000000E+00 0.  1.
         14    1    6    6    0    0 -0.50198378443E+00 -0.54340790946E+02  0.57858356200E+01  0.54650246497E+02  0.00000000000E+00 0. -1.
         -5    1    3    3    0  503 -0.68490220551E+01  0.46344723497E+01 -0.21761319909E+03  0.21782098580E+03  0.47000000000E+01 0.  1.
         13    1    4    4    0    0 -0.95284126434E+01 -0.18491214565E+02 -0.83860632328E+01  0.22428591577E+02  0.00000000000E+00 0. -1.
        -14    1    4    4    0    0 -0.12593908880E+03  0.51866550506E+02 -0.16468124262E+03  0.21370705375E+03  0.00000000000E+00 0.  1.
<mgrwt>
<rscale>  2 0.22991550E+03</rscale>
<asrwt>0</asrwt>
<pdfrwt beam="1">  1       21 0.18463724E-01 0.23118254E+03</pdfrwt>
<pdfrwt beam="2">  1       21 0.87231179E-01 0.23118254E+03</pdfrwt>
<totfact> 0.29624120E+04</totfact>
</mgrwt>
</event>
<event>
12    1  0.1050690E-001  0.1762707E+03  0.7546771E-02  0.1172023E+00
         21   -1    0    0  503  502  0.00000000000E+00  0.00000000000E+00  0.19052868606E+03  0.19052868606E+03  0.00000000000E+00 0.  1.
         21   -1    0    0  501  503 -0.00000000000E+00 -0.00000000000E+00 -0.21608573882E+03  0.21608573882E+03  0.00000000000E+00 0.  1.
          6    2    1    2  501    0  0.30360267744E+02 -0.16236976497E+02 -0.11547516272E+03  0.21072697082E+03  0.17287555571E+03 0.  0.
         24    2    3    3    0    0  0.67576540939E+02 -0.34986431211E+02 -0.28075473295E+02  0.11378684107E+03  0.79803344206E+02 0.  0.
         -6    2    1    2    0  502 -0.30360267744E+02  0.16236976497E+02  0.89918109961E+02  0.19588745406E+03  0.17059086405E+03 0.  0.
        -24    2    5    5    0    0  0.10305242499E+02  0.14079054495E+02 -0.14982979219E+02  0.83261218835E+02  0.80022016328E+02 0.  0.
          5    1    3    3  501    0 -0.37216273195E+02  0.18749454714E+02 -0.87399689429E+02  0.96940129744E+02  0.47000000000E+01 0. -1.
        -11    1    4    4    0    0  0.39445394983E+02  0.17589207172E+02 -0.32415231167E+02  0.54000616718E+02  0.00000000000E+00 0.  1.
         12    1    4    4    0    0  0.28131145956E+02 -0.52575638384E+02  0.43397578723E+01  0.59786224355E+02  0.00000000000E+00 0. -1.
         -5    1    5    5    0  502 -0.40665510244E+02  0.21579220019E+01  0.10490108918E+03  0.11262623523E+03  0.47000000000E+01 0.  1.
         13    1    6    6    0    0  0.25556485622E+02  0.32547394375E+02  0.15766876738E+02  0.44283871105E+02  0.00000000000E+00 0. -1.
        -14    1    6    6    0    0 -0.15251243123E+02 -0.18468339880E+02 -0.30749855957E+02  0.38977347730E+02  0.00000000000E+00 0.  1.
<mgrwt>
<rscale>  2 0.17570794E+03</rscale>
<asrwt>0</asrwt>
<pdfrwt beam="1">  1       21 0.29312106E-01 0.17627065E+03</pdfrwt>
<pdfrwt beam="2">  1       21 0.33243960E-01 0.17627065E+03</pdfrwt>
<totfact> 0.97745646E+04</totfact>
</mgrwt>
</event>
<event>
12    1  0.1050690E-001  0.1855228E+03  0.7546771E-02  0.1163231E+00
         21   -1    0    0  503  502  0.00000000000E+00  0.00000000000E+00  0.58620771694E+03  0.58620771694E+03  0.00000000000E+00 0. -1.
         21   -1    0    0  501  503 -0.00000000000E+00 -0.00000000000E+00 -0.75269676341E+02  0.75269676341E+02  0.00000000000E+00 0. -1.
          6    2    1    2  501    0 -0.68498217279E+02  0.19089668804E+02  0.97724740384E+02  0.20968749710E+03  0.17135431226E+03 0.  0.
         24    2    3    3    0    0 -0.35374112595E+01  0.53590328229E+02  0.17543629949E+02  0.10077789105E+03  0.83450391336E+02 0.  0.
         -6    2    1    2    0  502  0.68498217279E+02 -0.19089668804E+02  0.41321330022E+03  0.45178989619E+03  0.16826306069E+03 0.  0.
        -24    2    5    5    0    0  0.54899084443E+02  0.42789991433E+02  0.17666088412E+03  0.20685487556E+03  0.82066916155E+02 0.  0.
          5    1    3    3  501    0 -0.64960806019E+02 -0.34500659425E+02  0.80181110435E+02  0.10890960605E+03  0.47000000000E+01 0. -1.
        -13    1    4    4    0    0  0.21014844460E+02  0.48970831793E+02  0.40434729781E+02  0.66893448309E+02  0.00000000000E+00 0.  1.
         14    1    4    4    0    0 -0.24552255719E+02  0.46194964358E+01 -0.22891099832E+02  0.33884442739E+02  0.00000000000E+00 0. -1.
         -5    1    5    5    0  502  0.13599132835E+02 -0.61879660237E+02  0.23655241610E+03  0.24493502062E+03  0.47000000000E+01 0.  1.
         11    1    6    6    0    0  0.49010408812E+02 -0.88973818755E+01  0.12003777888E+03  0.12996250203E+03  0.00000000000E+00 0. -1.
        -12    1    6    6    0    0  0.58886756313E+01  0.51687373309E+02  0.56623105238E+02  0.76892373530E+02  0.00000000000E+00 0.  1.
<mgrwt>
<rscale>  2 0.18480586E+03</rscale>
<asrwt>0</asrwt>
<pdfrwt beam="1">  1       21 0.90185799E-01 0.18552283E+03</pdfrwt>
<pdfrwt beam="2">  1       21 0.11579951E-01 0.18552283E+03</pdfrwt>
<totfact> 0.65601727E+04</totfact>
</mgrwt>
</event>
<event>
12    1  0.1050690E-001  0.2125718E+03  0.7546771E-02  0.1139933E+00
         21   -1    0    0  501  502  0.00000000000E+00  0.00000000000E+00  0.11426778903E+04  0.11426778903E+04  0.00000000000E+00 0.  1.
         21   -1    0    0  502  503 -0.00000000000E+00 -0.00000000000E+00 -0.39394134544E+02  0.39394134544E+02  0.00000000000E+00 0.  1.
         -6    2    1    2    0  503  0.87083057240E+02 -0.88000116461E+02  0.50527778834E+03  0.54740841350E+03  0.17036093573E+03 0.  0.
        -24    2    3    3    0    0 -0.55437951156E+01 -0.84686379519E+02  0.27757735193E+03  0.30152166442E+03  0.81630945543E+02 0.  0.
          6    2    1    2  501    0 -0.87083057240E+02  0.88000116461E+02  0.59800596746E+03  0.63466361139E+03  0.17279838874E+03 0.  0.
         24    2    5    5    0    0 -0.61112458591E+02 -0.16595164769E+02  0.26337131301E+03  0.28307139474E+03  0.82187796632E+02 0.  0.
          5    1    5    5  501    0 -0.25970598649E+02  0.10459528123E+03  0.33463465445E+03  0.35159221665E+03  0.47000000000E+01 0. -1.
        -11    1    6    6    0    0 -0.60974239876E+02  0.16045070663E+02  0.21958623054E+03  0.22845878154E+03  0.00000000000E+00 0.  1.
         12    1    6    6    0    0 -0.13821871541E+00 -0.32640235432E+02  0.43785082470E+02  0.54612613199E+02  0.00000000000E+00 0. -1.
         -5    1    3    3    0  503  0.92626852356E+02 -0.33137369420E+01  0.22770043641E+03  0.24588674908E+03  0.47000000000E+01 0.  1.
         11    1    4    4    0    0  0.15206198807E+02 -0.47756683980E+02  0.23909594061E+03  0.24429244393E+03  0.00000000000E+00 0. -1.
        -12    1    4    4    0    0 -0.20749993923E+02 -0.36929695539E+02  0.38481411321E+02  0.57229220488E+02  0.00000000000E+00 0.  1.
<mgrwt>
<rscale>  2 0.21207590E+03</rscale>
<asrwt>0</asrwt>
<pdfrwt beam="1">  1       21 0.17579657E+00 0.21257178E+03</pdfrwt>
<pdfrwt beam="2">  1       21 0.60606370E-02 0.21257178E+03</pdfrwt>
<totfact> 0.37213967E+04</totfact>
</mgrwt>
</event>
<event>
12    1  0.1050690E-001  0.1833553E+03  0.7546771E-02  0.1169391E+00
         21   -1    0    0  501  502  0.00000000000E+00  0.00000000000E+00  0.34648960706E+03  0.34648960706E+03  0.00000000000E+00 0. -1.
         21   -1    0    0  502  503 -0.00000000000E+00 -0.00000000000E+00 -0.88440125339E+02  0.88440125339E+02  0.00000000000E+00 0. -1.
         -6    2    1    2    0  503  0.18484537669E+02  0.55773606606E+02  0.10990687401E+03  0.21377253001E+03  0.17368592432E+03 0.  0.
        -24    2    3    3    0    0  0.18836530357E+02  0.10083243335E+03  0.10817116615E+03  0.16843463804E+03  0.78404283152E+02 0.  0.
          6    2    1    2  501    0 -0.18484537669E+02 -0.55773606606E+02  0.14814260771E+03  0.22115720239E+03  0.15333591433E+03 0.  0.
         24    2    5    5    0    0  0.37683468775E+01 -0.91410360714E+02  0.11121520966E+03  0.16502439700E+03  0.80586439686E+02 0.  0.
          5    1    5    5  501    0 -0.22252884547E+02  0.35636754108E+02  0.36927398047E+02  0.56132805386E+02  0.47000000000E+01 0. -1.
        -11    1    6    6    0    0  0.37944951243E+02 -0.20910938953E+02  0.34639631694E+02  0.55470629856E+02  0.00000000000E+00 0.  1.
         12    1    6    6    0    0 -0.34176604365E+02 -0.70499421760E+02  0.76575577965E+02  0.10955376714E+03  0.00000000000E+00 0. -1.
         -5    1    3    3    0  503 -0.35199268753E+00 -0.45058826743E+02  0.17357078661E+01  0.45337891968E+02  0.47000000000E+01 0.  1.
         11    1    4    4    0    0  0.29321889283E+02  0.11076535078E+03  0.94072665837E+02  0.14825114698E+03  0.00000000000E+00 0. -1.
        -12    1    4    4    0    0 -0.10485358926E+02 -0.99329174287E+01  0.14098500310E+02  0.20183491062E+02  0.00000000000E+00 0.  1.
<mgrwt>
<rscale>  2 0.17836874E+03</rscale>
<asrwt>0</asrwt>
<pdfrwt beam="1">  1       21 0.53306093E-01 0.18335532E+03</pdfrwt>
<pdfrwt beam="2">  1       21 0.13606173E-01 0.18335532E+03</pdfrwt>
<totfact> 0.15647073E+05</totfact>
</mgrwt>
</event>
<event>
12    1  0.1050690E-001  0.2796925E+03  0.7546771E-02  0.1096264E+00
         21   -1    0    0  501  502  0.00000000000E+00  0.00000000000E+00  0.45415147695E+02  0.45415147695E+02  0.00000000000E+00 0. -1.
         21   -1    0    0  502  503 -0.00000000000E+00 -0.00000000000E+00 -0.17359142793E+04  0.17359142793E+04  0.00000000000E+00 0.  1.
         -6    2    1    2    0  503  0.21864293870E+03 -0.19722316223E+02 -0.72954046393E+03  0.78131759542E+03  0.17330375646E+03 0.  0.
        -24    2    3    3    0    0  0.22948691809E+03 -0.70916438993E+01 -0.54908341754E+03  0.60003339489E+03  0.76373677206E+02 0.  0.
          6    2    1    2  501    0 -0.21864293870E+03  0.19722316223E+02 -0.96095866768E+03  0.10000118316E+04  0.16848856907E+03 0.  0.
         24    2    5    5    0    0 -0.12331213247E+03  0.44685015801E+02 -0.77090228355E+03  0.78587491711E+03  0.78143598051E+02 0.  0.
          5    1    5    5  501    0 -0.95330806237E+02 -0.24962699578E+02 -0.19005638413E+03  0.21413691446E+03  0.47000000000E+01 0. -1.
        -13    1    6    6    0    0  0.54629144674E+01  0.13679519602E+02 -0.16539356806E+03  0.16604820097E+03  0.00000000000E+00 0.  1.
         14    1    6    6    0    0 -0.12877504693E+03  0.31005496199E+02 -0.60550871549E+03  0.61982671614E+03  0.00000000000E+00 0. -1.
         -5    1    3    3    0  503 -0.10843979393E+02 -0.12630672324E+02 -0.18045704639E+03  0.18128420053E+03  0.47000000000E+01 0.  1.
         13    1    4    4    0    0  0.12249137927E+03  0.27910045232E+02 -0.23651799580E+03  0.26781312693E+03  0.00000000000E+00 0. -1.
        -14    1    4    4    0    0  0.10699553882E+03 -0.35001689131E+02 -0.31256542174E+03  0.33222026796E+03  0.00000000000E+00 0.  1.
<mgrwt>
<rscale>  2 0.27895011E+03</rscale>
<asrwt>0</asrwt>
<pdfrwt beam="1">  1       21 0.69869467E-02 0.27969250E+03</pdfrwt>
<pdfrwt beam="2">  1       21 0.26706370E+00 0.27969250E+03</pdfrwt>
<totfact> 0.74432530E+03</totfact>
</mgrwt>
</event>
<event>
12    1  0.1050690E-001  0.2282228E+03  0.7546771E-02  0.1128451E+00
         21   -1    0    0  503  502  0.00000000000E+00  0.00000000000E+00  0.20306743378E+03  0.20306743378E+03  0.00000000000E+00 0. -1.
         21   -1    0    0  501  503 -0.00000000000E+00 -0.00000000000E+00 -0.31404268142E+03  0.31404268142E+03  0.00000000000E+00 0.  1.
          6    2    1    2  501    0 -0.12949059056E+03 -0.74768799722E+02 -0.16975892500E+03  0.28443585212E+03  0.17241657373E+03 0.  0.
         24    2    3    3    0    0 -0.25403452698E+02 -0.81292432997E+02 -0.54479822529E+02  0.12891076885E+03  0.79975872556E+02 0.  0.
         -6    2    1    2    0  502  0.12949059056E+03  0.74768799722E+02  0.58783677368E+02  0.23267426308E+03  0.16829618392E+03 0.  0.
        -24    2    5    5    0    0  0.85469788641E+02 -0.18660569655E+02  0.46338257110E+02  0.12854042349E+03  0.81988442897E+02 0.  0.
          5    1    3    3  501    0 -0.10408713786E+03  0.65236332743E+01 -0.11527910247E+03  0.15552508327E+03  0.47000000000E+01 0. -1.
        -11    1    4    4    0    0 -0.62901869413E+01 -0.21636374458E+02 -0.61858623301E+02  0.65834553451E+02  0.00000000000E+00 0.  1.
         12    1    4    4    0    0 -0.19113265757E+02 -0.59656058538E+02  0.73788007712E+01  0.63076215399E+02  0.00000000000E+00 0. -1.
         -5    1    5    5    0  502  0.44020801915E+02  0.93429369377E+02  0.12445420258E+02  0.10413383960E+03  0.47000000000E+01 0.  1.
         13    1    6    6    0    0 -0.15854035167E+02 -0.86038763295E+01  0.58326447775E+01  0.18957765271E+02  0.00000000000E+00 0. -1.
        -14    1    6    6    0    0  0.10132382381E+03 -0.10056693325E+02  0.40505612333E+02  0.10958265822E+03  0.00000000000E+00 0.  1.
<mgrwt>
<rscale>  2 0.22744470E+03</rscale>
<asrwt>0</asrwt>
<pdfrwt beam="1">  1       21 0.31241144E-01 0.22822283E+03</pdfrwt>
<pdfrwt beam="2">  1       21 0.48314259E-01 0.22822283E+03</pdfrwt>
<totfact> 0.39586528E+04</totfact>
</mgrwt>
</event>
<event>
12    1  0.1050690E-001  0.2262395E+03  0.7546771E-02  0.1129388E+00
         21   -1    0    0  501  502  0.00000000000E+00  0.00000000000E+00  0.19495304154E+03  0.19495304154E+03  0.00000000000E+00 0.  1.
         21   -1    0    0  502  503 -0.00000000000E+00 -0.00000000000E+00 -0.26766061353E+03  0.26766061353E+03  0.00000000000E+00 0.  1.
         -6    2    1    2    0  503  0.96497775138E+02 -0.10973165887E+03 -0.29092722711E+01  0.22585190332E+03  0.17218525141E+03 0.  0.
        -24    2    3    3    0    0  0.44225548015E+02 -0.13647488576E+03  0.59685176351E+01  0.16628269091E+03  0.83863082183E+02 0.  0.
          6    2    1    2  501    0 -0.96497775138E+02  0.10973165887E+03 -0.69798299720E+02  0.23676175176E+03  0.17271788237E+03 0.  0.
         24    2    5    5    0    0  0.11520191813E+02  0.68342874420E+02 -0.57988448535E+02  0.12038961056E+03  0.79545803561E+02 0.  0.
          5    1    5    5  501    0 -0.10801796695E+03  0.41388784445E+02 -0.11809851184E+02  0.11637214120E+03  0.47000000000E+01 0. -1.
        -11    1    6    6    0    0 -0.16566770300E+02  0.45045334347E+02 -0.67363619210E+02  0.82712739150E+02  0.00000000000E+00 0.  1.
         12    1    6    6    0    0  0.28086962113E+02  0.23297540073E+02  0.93751706749E+01  0.37676871412E+02  0.00000000000E+00 0. -1.
         -5    1    3    3    0  503  0.52272227123E+02  0.26743226895E+02 -0.88777899062E+01  0.59569212407E+02  0.47000000000E+01 0.  1.
         11    1    4    4    0    0  0.24254069853E+01  0.11523812542E+02  0.41419771831E+01  0.12483462241E+02  0.00000000000E+00 0. -1.
        -12    1    4    4    0    0  0.41800141029E+02 -0.14799869830E+03  0.18265404521E+01  0.15379922867E+03  0.00000000000E+00 0.  1.
<mgrwt>
<rscale>  2 0.22613787E+03</rscale>
<asrwt>0</asrwt>
<pdfrwt beam="1">  1       21 0.29992775E-01 0.22623953E+03</pdfrwt>
<pdfrwt beam="2">  1       21 0.41178556E-01 0.22623953E+03</pdfrwt>
<totfact> 0.59649949E+04</totfact>
</mgrwt>
</event>
<event>
12    1  0.1050690E-001  0.2996923E+03  0.7546771E-02  0.1085901E+00
         21   -1    0    0  503  502  0.00000000000E+00  0.00000000000E+00  0.28560491920E+04  0.28560491920E+04  0.00000000000E+00 0. -1.
         21   -1    0    0  501  503 -0.00000000000E+00 -0.00000000000E+00 -0.13535559335E+03  0.13535559335E+03  0.00000000000E+00 0.  1.
          6    2    1    2  501    0 -0.17553011210E+03  0.16946307530E+03  0.45114798664E+02  0.29909399116E+03  0.16701292269E+03 0.  0.
         24    2    3    3    0    0 -0.96453504052E+02  0.55647841254E+02 -0.30523009158E+02  0.14113771426E+03  0.81167971620E+02 0.  0.
         -6    2    1    2    0  502  0.17553011210E+03 -0.16946307530E+03  0.26755788000E+04  0.26923107942E+04  0.17403144385E+03 0.  0.
        -24    2    5    5    0    0  0.19854807943E+03 -0.15708421777E+03  0.25566244395E+04  0.25704285034E+04  0.81715206997E+02 0.  0.
          5    1    3    3  501    0 -0.79076608050E+02  0.11381523405E+03  0.75637807823E+02  0.15795627691E+03  0.47000000000E+01 0. -1.
        -11    1    4    4    0    0 -0.94312184619E+02  0.59081850105E+02 -0.95500747687E+00  0.11129404844E+03  0.00000000000E+00 0.  1.
         12    1    4    4    0    0 -0.21413194329E+01 -0.34340088509E+01 -0.29568001682E+02  0.29843665813E+02  0.00000000000E+00 0. -1.
         -5    1    5    5    0  502 -0.23017967326E+02 -0.12378857534E+02  0.11895436046E+03  0.12188229078E+03  0.47000000000E+01 0.  1.
         11    1    6    6    0    0  0.48662645317E+02 -0.77697913232E+02  0.67948248300E+03  0.68563945589E+03  0.00000000000E+00 0. -1.
        -12    1    6    6    0    0  0.14988543411E+03 -0.79386304534E+02  0.18771419565E+04  0.18847890475E+04  0.00000000000E+00 0.  1.
<mgrwt>
<rscale>  2 0.29868213E+03</rscale>
<asrwt>0</asrwt>
<pdfrwt beam="1">  1       21 0.43939214E+00 0.29969234E+03</pdfrwt>
<pdfrwt beam="2">  1       21 0.20823940E-01 0.29969234E+03</pdfrwt>
<totfact> 0.89426950E+01</totfact>
</mgrwt>
</event>
<event>
12    1  0.1050690E-001  0.1798192E+03  0.7546771E-02  0.1169537E+00
         21   -1    0    0  503  502  0.00000000000E+00  0.00000000000E+00  0.62466743149E+02  0.62466743149E+02  0.00000000000E+00 0. -1.
         21   -1    0    0  501  503 -0.00000000000E+00 -0.00000000000E+00 -0.50449361349E+03  0.50449361349E+03  0.00000000000E+00 0. -1.
          6    2    1    2  501    0 -0.18570474232E+01  0.13212125715E+02 -0.25277774763E+03  0.31021210435E+03  0.17932359324E+03 0.  0.
         24    2    3    3    0    0  0.11319786614E+02  0.73090527988E+02 -0.20438041537E+03  0.23195966806E+03  0.81015866168E+02 0.  0.
         -6    2    1    2    0  502  0.18570474232E+01 -0.13212125715E+02 -0.18924912271E+03  0.25674825230E+03  0.17299255972E+03 0.  0.
        -24    2    5    5    0    0  0.24394849949E+02  0.80191899703E+01 -0.20517944010E+03  0.22161157174E+03  0.79709911393E+02 0.  0.
          5    1    3    3  501    0 -0.13176834037E+02 -0.59878402273E+02 -0.48397332262E+02  0.78252436282E+02  0.47000000000E+01 0. -1.
        -13    1    4    4    0    0  0.38440390815E+02  0.36399207169E+02 -0.15910770042E+03  0.16768370899E+03  0.00000000000E+00 0.  1.
         14    1    4    4    0    0 -0.27120604201E+02  0.36691320819E+02 -0.45272714952E+02  0.64275959073E+02  0.00000000000E+00 0. -1.
         -5    1    5    5    0  502 -0.22537802525E+02 -0.21231315685E+02  0.15930317394E+02  0.35136680558E+02  0.47000000000E+01 0.  1.
         11    1    6    6    0    0  0.49891353176E+02 -0.99255997797E+01 -0.14779291200E+03  0.15630230161E+03  0.00000000000E+00 0. -1.
        -12    1    6    6    0    0 -0.25496503227E+02  0.17944789750E+02 -0.57386528106E+02  0.65309270123E+02  0.00000000000E+00 0.  1.
<mgrwt>
<rscale>  2 0.17821979E+03</rscale>
<asrwt>0</asrwt>
<pdfrwt beam="1">  1       21 0.96102680E-02 0.17981924E+03</pdfrwt>
<pdfrwt beam="2">  1       21 0.77614403E-01 0.17981924E+03</pdfrwt>
<totfact> 0.12875799E+05</totfact>
</mgrwt>
</event>
<event>
12    1  0.1050690E-001  0.4115362E+03  0.7546771E-02  0.1039870E+00
         21   -1    0    0  503  502  0.00000000000E+00  0.00000000000E+00  0.16013684192E+04  0.16013684192E+04  0.00000000000E+00 0. -1.
         21   -1    0    0  501  503 -0.00000000000E+00 -0.00000000000E+00 -0.11016540129E+03  0.11016540129E+03  0.00000000000E+00 0.  1.
          6    2    1    2  501    0 -0.22035261186E+03  0.30130677464E+03  0.57353262127E+03  0.70580971816E+03  0.17287754218E+03 0.  0.
         24    2    3    3    0    0 -0.47348099192E+02  0.52121561970E+02  0.17114184427E+03  0.20186105110E+03  0.80621668126E+02 0.  0.
         -6    2    1    2    0  502  0.22035261186E+03 -0.30130677464E+03  0.91767039669E+03  0.10057241024E+04  0.17326559711E+03 0.  0.
        -24    2    5    5    0    0  0.13584531816E+03 -0.12544201188E+03  0.34642606199E+03  0.40205856799E+03  0.86315855235E+02 0.  0.
          5    1    3    3  501    0 -0.17300451267E+03  0.24918521267E+03  0.40239077700E+03  0.50394866706E+03  0.47000000000E+01 0. -1.
        -13    1    4    4    0    0 -0.67288914047E+02  0.51899719830E+02  0.15241674507E+03  0.17450571065E+03  0.00000000000E+00 0.  1.
         14    1    4    4    0    0  0.19940814855E+02  0.22184213905E+00  0.18725099205E+02  0.27355340452E+02  0.00000000000E+00 0. -1.
         -5    1    5    5    0  502  0.84507293700E+02 -0.17586476277E+03  0.57124433470E+03  0.60366553438E+03  0.47000000000E+01 0.  1.
         11    1    6    6    0    0  0.60144487579E+02 -0.11106298052E+03  0.19870415770E+03  0.23544784416E+03  0.00000000000E+00 0. -1.
        -12    1    6    6    0    0  0.75700830579E+02 -0.14379031354E+02  0.14772190428E+03  0.16661072384E+03  0.00000000000E+00 0.  1.
<mgrwt>
<rscale>  2 0.41149535E+03</rscale>
<asrwt>0</asrwt>
<pdfrwt beam="1">  1       21 0.24636436E+00 0.41153616E+03</pdfrwt>
<pdfrwt beam="2">  1       21 0.16948524E-01 0.41153616E+03</pdfrwt>
<totfact> 0.18569288E+03</totfact>
</mgrwt>
</event>
<event>
12    1  0.1050690E-001  0.1771812E+03  0.7546771E-02  0.1170810E+00
         21   -1    0    0  501  502  0.00000000000E+00  0.00000000000E+00  0.22631457449E+04  0.22631457449E+04  0.00000000000E+00 0. -1.
         21   -1    0    0  502  503 -0.00000000000E+00 -0.00000000000E+00 -0.49994401174E+02  0.49994401174E+02  0.00000000000E+00 0. -1.
         -6    2    1    2    0  503 -0.32195973352E+02  0.11415517086E+02  0.12151218763E+03  0.21400995799E+03  0.17282405980E+03 0.  0.
        -24    2    3    3    0    0 -0.19324642779E+02  0.73998012065E+02  0.88289574227E+02  0.14184298583E+03  0.80468851770E+02 0.  0.
          6    2    1    2  501    0  0.32195973352E+02 -0.11415517086E+02  0.20916391560E+04  0.20991301880E+04  0.17385710367E+03 0.  0.
         24    2    5    5    0    0  0.32374179908E+02 -0.66441318975E+02  0.17104551042E+04  0.17139662723E+04  0.81001127078E+02 0.  0.
          5    1    5    5  501    0 -0.17820655601E+00  0.55025801889E+02  0.38118405183E+03  0.38516391575E+03  0.47000000000E+01 0. -1.
        -11    1    6    6    0    0  0.45969974557E+02 -0.29736836234E+02  0.13976265085E+04  0.13986984576E+04  0.00000000000E+00 0.  1.
         12    1    6    6    0    0 -0.13595794650E+02 -0.36704482741E+02  0.31282859569E+03  0.31526781467E+03  0.00000000000E+00 0. -1.
         -5    1    3    3    0  503 -0.12871330573E+02 -0.62582494979E+02  0.33222613406E+02  0.72166972155E+02  0.47000000000E+01 0.  1.
         11    1    4    4    0    0 -0.30673516205E+02  0.74272399505E+02  0.98120135606E+02  0.12682592375E+03  0.00000000000E+00 0. -1.
        -12    1    4    4    0    0  0.11348873426E+02 -0.27438744037E+00 -0.98305613792E+01  0.15017062081E+02  0.00000000000E+00 0.  1.
<mgrwt>
<rscale>  2 0.17692729E+03</rscale>
<asrwt>0</asrwt>
<pdfrwt beam="1">  1       21 0.34817619E+00 0.17718123E+03</pdfrwt>
<pdfrwt beam="2">  1       21 0.76914481E-02 0.17718123E+03</pdfrwt>
<totfact> 0.23545233E+03</totfact>
</mgrwt>
</event>
<event>
12    1  0.1050690E-001  0.1778042E+03  0.7546771E-02  0.1175198E+00
         21   -1    0    0  501  502  0.00000000000E+00  0.00000000000E+00  0.81780745790E+03  0.81780745790E+03  0.00000000000E+00 0.  1.
         21   -1    0    0  502  503 -0.00000000000E+00 -0.00000000000E+00 -0.49365919694E+02  0.49365919694E+02  0.00000000000E+00 0. -1.
         -6    2    1    2    0  503  0.39320353967E+02 -0.62720970048E+01  0.12995350471E+03  0.20439037136E+03  0.15265019188E+03 0.  0.
        -24    2    3    3    0    0 -0.27147026646E+02  0.10796607136E+02  0.95191878950E+02  0.12732083151E+03  0.79344644035E+02 0.  0.
          6    2    1    2  501    0 -0.39320353967E+02  0.62720970048E+01  0.63848803349E+03  0.66278300623E+03  0.17328853108E+03 0.  0.
         24    2    5    5    0    0 -0.55886581631E+02 -0.42226141714E+02  0.55196267887E+03  0.56210904709E+03  0.79983904026E+02 0.  0.
          5    1    5    5  501    0  0.16566227664E+02  0.48498238719E+02  0.86525354622E+02  0.10067395915E+03  0.47000000000E+01 0. -1.
        -13    1    6    6    0    0 -0.41519313759E+02 -0.36233503713E+02  0.53911777462E+03  0.54192683558E+03  0.00000000000E+00 0.  1.
         14    1    6    6    0    0 -0.14367267872E+02 -0.59926380008E+01  0.12844904247E+02  0.20182211510E+02  0.00000000000E+00 0. -1.
         -5    1    3    3    0  503  0.66467380613E+02 -0.17068704141E+02  0.34761625765E+02  0.77069539849E+02  0.47000000000E+01 0.  1.
         11    1    4    4    0    0  0.24544633169E+02 -0.12818205439E+02  0.29558532861E+02  0.40502497121E+02  0.00000000000E+00 0. -1.
        -12    1    4    4    0    0 -0.51691659815E+02  0.23614812575E+02  0.65633346088E+02  0.86818334389E+02  0.00000000000E+00 0.  1.
<mgrwt>
<rscale>  2 0.17256561E+03</rscale>
<asrwt>0</asrwt>
<pdfrwt beam="1">  1       21 0.12581652E+00 0.17780423E+03</pdfrwt>
<pdfrwt beam="2">  1       21 0.75947575E-02 0.17780423E+03</pdfrwt>
<totfact> 0.62104636E+04</totfact>
</mgrwt>
</event>
<event>
12    1  0.1050690E-001  0.1731558E+03  0.7546771E-02  0.1174810E+00
         21   -1    0    0  503  502  0.00000000000E+00  0.00000000000E+00  0.47795569565E+02  0.47795569565E+02  0.00000000000E+00 0.  1.
         21   -1    0    0  501  503 -0.00000000000E+00 -0.00000000000E+00 -0.16500376154E+04  0.16500376154E+04  0.00000000000E+00 0.  1.
          6    2    1    2  501    0 -0.11259215333E+02 -0.21880569281E+01 -0.14697143197E+04  0.14797814979E+04  0.17193470424E+03 0.  0.
         24    2    3    3    0    0  0.30707227736E+02  0.50037428478E+02 -0.88561171000E+03  0.89183028198E+03  0.87215095447E+02 0.  0.
         -6    2    1    2    0  502  0.11259215333E+02  0.21880569281E+01 -0.13252772613E+03  0.21805168704E+03  0.17277552635E+03 0.  0.
        -24    2    5    5    0    0 -0.52746792594E+02 -0.20451018233E+02 -0.46410836194E+02  0.10829055773E+03  0.79827381907E+02 0.  0.
          5    1    3    3  501    0 -0.41966443068E+02 -0.52225485406E+02 -0.58410260972E+03  0.58795121596E+03  0.47000000000E+01 0. -1.
        -11    1    4    4    0    0 -0.38034771022E+01  0.46954001181E+02 -0.76199202029E+03  0.76344677853E+03  0.00000000000E+00 0.  1.
         12    1    4    4    0    0  0.34510704838E+02  0.30834272967E+01 -0.12361968972E+03  0.12838350345E+03  0.00000000000E+00 0. -1.
         -5    1    5    5    0  502  0.64006007927E+02  0.22639075162E+02 -0.86116889933E+02  0.10976112931E+03  0.47000000000E+01 0.  1.
         11    1    6    6    0    0  0.11804712623E+02 -0.23606709706E+02 -0.33049312509E+02  0.42295212975E+02  0.00000000000E+00 0. -1.
        -12    1    6    6    0    0 -0.64551505218E+02  0.31556914728E+01 -0.13361523685E+02  0.65995344758E+02  0.00000000000E+00 0.  1.
<mgrwt>
<rscale>  2 0.17294570E+03</rscale>
<asrwt>0</asrwt>
<pdfrwt beam="1">  1       21 0.73531650E-02 0.17315583E+03</pdfrwt>
<pdfrwt beam="2">  1       21 0.25385192E+00 0.17315583E+03</pdfrwt>
<totfact> 0.89447280E+03</totfact>
</mgrwt>
</event>
<event>
12    1  0.1050690E-001  0.2065934E+03  0.7546771E-02  0.1145334E+00
         21   -1    0    0  503  502  0.00000000000E+00  0.00000000000E+00  0.19333219074E+03  0.19333219074E+03  0.00000000000E+00 0. -1.
         21   -1    0    0  501  503 -0.00000000000E+00 -0.00000000000E+00 -0.58065436822E+03  0.58065436822E+03  0.00000000000E+00 0. -1.
          6    2    1    2  501    0 -0.39627353626E+01 -0.10939137660E+03 -0.49970348540E+03  0.53880492602E+03  0.16918923853E+03 0.  0.
         24    2    3    3    0    0  0.11359293841E+02  0.82453025653E+01 -0.18515576848E+03  0.20259738731E+03  0.81031007481E+02 0.  0.
         -6    2    1    2    0  502  0.39627353626E+01  0.10939137660E+03  0.11238130792E+03  0.23518163293E+03  0.17521034659E+03 0.  0.
        -24    2    5    5    0    0 -0.56847876385E+02  0.50353378124E+02  0.10061252445E+03  0.14948443327E+03  0.80346574151E+02 0.  0.
          5    1    3    3  501    0 -0.15322029204E+02 -0.11763667916E+03 -0.31454771693E+03  0.33620753871E+03  0.47000000000E+01 0. -1.
        -11    1    4    4    0    0 -0.33818194815E+02  0.58855429525E+01 -0.55306217045E+02  0.65092914824E+02  0.00000000000E+00 0.  1.
         12    1    4    4    0    0  0.45177488656E+02  0.23597596127E+01 -0.12984955143E+03  0.13750447249E+03  0.00000000000E+00 0. -1.
         -5    1    5    5    0  502  0.60810611747E+02  0.59037998473E+02  0.11768783474E+02  0.85697199658E+02  0.47000000000E+01 0.  1.
         11    1    6    6    0    0 -0.52899924333E+02  0.70541293097E+02  0.91229599911E+02  0.12687519823E+03  0.00000000000E+00 0. -1.
        -12    1    6    6    0    0 -0.39479520514E+01 -0.20187914974E+02  0.93829245351E+01  0.22609235043E+02  0.00000000000E+00 0.  1.
<mgrwt>
<rscale>  2 0.20531123E+03</rscale>
<asrwt>0</asrwt>
<pdfrwt beam="1">  1       21 0.29743414E-01 0.20659342E+03</pdfrwt>
<pdfrwt beam="2">  1       21 0.89331440E-01 0.20659342E+03</pdfrwt>
<totfact> 0.11473221E+04</totfact>
</mgrwt>
</event>
<event>
12    1  0.1050690E-001  0.1818331E+03  0.7546771E-02  0.1167209E+00
         21   -1    0    0  503  502  0.00000000000E+00  0.00000000000E+00  0.37807830978E+03  0.37807830978E+03  0.00000000000E+00 0. -1.
         21   -1    0    0  501  503 -0.00000000000E+00 -0.00000000000E+00 -0.10976622538E+03  0.10976622538E+03  0.00000000000E+00 0. -1.
          6    2    1    2  501    0 -0.21440651553E+02 -0.49687150935E+02  0.20042865301E+02  0.18293440742E+03  0.17359368209E+03 0.  0.
         24    2    3    3    0    0  0.14206785298E+01  0.35068674816E+02 -0.12260730010E+02  0.89276505018E+02  0.81167349144E+02 0.  0.
         -6    2    1    2    0  502  0.21440651553E+02  0.49687150935E+02  0.24826921910E+03  0.30491012774E+03  0.16853505968E+03 0.  0.
        -24    2    5    5    0    0  0.16796975906E+02  0.85810180974E+02  0.23772493901E+03  0.26670399126E+03  0.83500579429E+02 0.  0.
          5    1    3    3  501    0 -0.22861330083E+02 -0.84755825751E+02  0.32303595311E+02  0.93657902400E+02  0.47000000000E+01 0. -1.
        -11    1    4    4    0    0 -0.38523353051E+02  0.22382669600E+02  0.30482017839E+01  0.44657856675E+02  0.00000000000E+00 0.  1.
         12    1    4    4    0    0  0.39944031581E+02  0.12686005216E+02 -0.15308931794E+02  0.44618648343E+02  0.00000000000E+00 0. -1.
         -5    1    5    5    0  502  0.46436756467E+01 -0.36123030039E+02  0.10544280086E+02  0.38206136487E+02  0.47000000000E+01 0.  1.
         13    1    6    6    0    0  0.48455939595E+02  0.44080272343E+02  0.10200957220E+03  0.12123118952E+03  0.00000000000E+00 0. -1.
        -14    1    6    6    0    0 -0.31658963688E+02  0.41729908631E+02  0.13571536681E+03  0.14547280173E+03  0.00000000000E+00 0.  1.
<mgrwt>
<rscale>  2 0.18061518E+03</rscale>
<asrwt>0</asrwt>
<pdfrwt beam="1">  1       21 0.58165893E-01 0.18183311E+03</pdfrwt>
<pdfrwt beam="2">  1       21 0.16887112E-01 0.18183311E+03</pdfrwt>
<totfact> 0.87838031E+04</totfact>
</mgrwt>
</event>
<event>
12    1  0.1050690E-001  0.2941109E+03  0.7546771E-02  0.1088872E+00
         21   -1    0    0  503  502  0.00000000000E+00  0.00000000000E+00  0.22308470699E+04  0.22308470699E+04  0.00000000000E+00 0. -1.
         21   -1    0    0  501  503 -0.00000000000E+00 -0.00000000000E+00 -0.12200157015E+03  0.12200157015E+03  0.00000000000E+00 0.  1.
          6    2    1    2  501    0  0.52889545840E+02 -0.22575350897E+03  0.81775321193E+02  0.30526776092E+03  0.18093991221E+03 0.  0.
         24    2    3    3    0    0  0.90790421654E+02 -0.21361674525E+03  0.95029426482E+02  0.26305948297E+03  0.79339051961E+02 0.  0.
         -6    2    1    2    0  502 -0.52889545840E+02  0.22575350897E+03  0.20270701785E+04  0.20475808791E+04  0.17266150961E+03 0.  0.
        -24    2    5    5    0    0 -0.80236099181E+02  0.21407609701E+03  0.14867149774E+04  0.15063877257E+04  0.81339714216E+02 0.  0.
          5    1    3    3  501    0 -0.37900875815E+02 -0.12136763720E+02 -0.13254105288E+02  0.42208277957E+02  0.47000000000E+01 0. -1.
        -13    1    4    4    0    0  0.58473888955E+02 -0.92092632582E+02  0.82335935844E+02  0.13667280270E+03  0.00000000000E+00 0.  1.
         14    1    4    4    0    0  0.32316532700E+02 -0.12152411267E+03  0.12693490637E+02  0.12638668027E+03  0.00000000000E+00 0. -1.
         -5    1    5    5    0  502  0.27346553341E+02  0.11677411963E+02  0.54035520113E+03  0.54119315343E+03  0.47000000000E+01 0.  1.
         13    1    6    6    0    0  0.57118283871E+01  0.78831571255E+02  0.61601854961E+03  0.62106834976E+03  0.00000000000E+00 0. -1.
        -14    1    6    6    0    0 -0.85947927568E+02  0.13524452575E+03  0.87069642779E+03  0.88531937591E+03  0.00000000000E+00 0.  1.
<mgrwt>
<rscale>  2 0.29284794E+03</rscale>
<asrwt>0</asrwt>
<pdfrwt beam="1">  1       21 0.34320721E+00 0.29411087E+03</pdfrwt>
<pdfrwt beam="2">  1       21 0.18769474E-01 0.29411087E+03</pdfrwt>
<totfact> 0.43967248E+02</totfact>
</mgrwt>
</event>
<event>
12    1  0.1050690E-001  0.1851963E+03  0.7546771E-02  0.1163225E+00
         21   -1    0    0  501  502  0.00000000000E+00  0.00000000000E+00  0.80333850053E+02  0.80333850053E+02  0.00000000000E+00 0. -1.
         21   -1    0    0  502  503 -0.00000000000E+00 -0.00000000000E+00 -0.42361656709E+03  0.42361656709E+03  0.00000000000E+00 0. -1.
         -6    2    1    2    0  503  0.37056596291E+01 -0.68872300586E+02 -0.17633390923E+03  0.25461216389E+03  0.17022508850E+03 0.  0.
        -24    2    3    3    0    0 -0.19636661296E+02 -0.73362237977E+02 -0.44395372600E+02  0.12046712696E+03  0.82302874452E+02 0.  0.
          6    2    1    2  501    0 -0.37056596291E+01  0.68872300586E+02 -0.16694880781E+03  0.24933825326E+03  0.17187360008E+03 0.  0.
         24    2    5    5    0    0  0.62460377627E+02  0.47283847251E+02 -0.84268253412E+02  0.14116168519E+03  0.81782772315E+02 0.  0.
          5    1    5    5  501    0 -0.66166037256E+02  0.21588453335E+02 -0.82680554397E+02  0.10817656807E+03  0.47000000000E+01 0. -1.
        -11    1    6    6    0    0  0.11397939194E+01 -0.19375587990E+02 -0.33297903109E+01  0.19692639327E+02  0.00000000000E+00 0.  1.
         12    1    6    6    0    0  0.61320583707E+02  0.66659435242E+02 -0.80938463101E+02  0.12146904586E+03  0.00000000000E+00 0. -1.
         -5    1    3    3    0  503  0.23342320925E+02  0.44899373903E+01 -0.13193853663E+03  0.13414503693E+03  0.47000000000E+01 0.  1.
         11    1    4    4    0    0  0.26295363484E+02 -0.56315453402E+02 -0.32111709946E+02  0.69957403813E+02  0.00000000000E+00 0. -1.
        -12    1    4    4    0    0 -0.45932024779E+02 -0.17046784575E+02 -0.12283662654E+02  0.50509723152E+02  0.00000000000E+00 0.  1.
<mgrwt>
<rscale>  2 0.18481286E+03</rscale>
<asrwt>0</asrwt>
<pdfrwt beam="1">  1       21 0.12359054E-01 0.18519627E+03</pdfrwt>
<pdfrwt beam="2">  1       21 0.65171780E-01 0.18519627E+03</pdfrwt>
<totfact> 0.12094746E+05</totfact>
</mgrwt>
</event>
<event>
11    1  0.1050690E-001  0.1961582E+03  0.7546771E-02  0.1153178E+00
         21   -1    0    0  503  502  0.00000000000E+00  0.00000000000E+00  0.87240379408E+02  0.87240379408E+02  0.00000000000E+00 0. -1.
         21   -1    0    0  501  503 -0.00000000000E+00 -0.00000000000E+00 -0.53548724575E+03  0.53548724575E+03  0.00000000000E+00 0. -1.
          6    2    1    2  501    0 -0.26294294984E+02 -0.88281759151E+02 -0.35633583350E+03  0.40675945971E+03  0.17318479403E+03 0.  0.
         -6    2    1    2    0  502  0.26294294984E+02  0.88281759151E+02 -0.91911032842E+02  0.21596816545E+03  0.17236458911E+03 0.  0.
        -24    2    4    4    0    0 -0.50814959015E+01  0.71129078642E+02 -0.12637555392E+03  0.16608281774E+03  0.80793281238E+02 0.  0.
          5    1    3    3  501    0  0.19288639753E+02 -0.16296916730E+02 -0.65085983244E+01  0.26497037015E+02  0.47000000000E+01 0. -1.
        -13    1    3    3    0    0  0.10769460051E+01  0.21692099455E+02 -0.86211157502E+01  0.23367298266E+02  0.00000000000E+00 0.  1.
         14    1    3    3    0    0 -0.46659880742E+02 -0.93676941875E+02 -0.34120611942E+03  0.35689512443E+03  0.00000000000E+00 0. -1.
         -5    1    4    4    0  502  0.31375790886E+02  0.17152680509E+02  0.34464521074E+02  0.49885347701E+02  0.47000000000E+01 0.  1.
         13    1    5    5    0    0  0.27458594947E+02  0.69457656070E+02 -0.80475089987E+02  0.10979335377E+03  0.00000000000E+00 0. -1.
        -14    1    5    5    0    0 -0.32540090848E+02  0.16714225715E+01 -0.45900463929E+02  0.56289463976E+02  0.00000000000E+00 0.  1.
<mgrwt>
<rscale>  2 0.19597699E+03</rscale>
<asrwt>0</asrwt>
<pdfrwt beam="1">  1       21 0.13421597E-01 0.19615818E+03</pdfrwt>
<pdfrwt beam="2">  1       21 0.82382655E-01 0.19615818E+03</pdfrwt>
<totfact> 0.61652494E+04</totfact>
</mgrwt>
</event>
<event>
12    1  0.1050690E-001  0.2477625E+03  0.7546771E-02  0.1114809E+00
         21   -1    0    0  503  502  0.00000000000E+00  0.00000000000E+00  0.41582284671E+03  0.41582284671E+03  0.00000000000E+00 0.  1.
         21   -1    0    0  501  503 -0.00000000000E+00 -0.00000000000E+00 -0.27155868820E+03  0.27155868820E+03  0.00000000000E+00 0. -1.
          6    2    1    2  501    0  0.41838778954E+02 -0.17194378945E+03 -0.16029477866E+03  0.29509433936E+03  0.17341021569E+03 0.  0.
         24    2    3    3    0    0  0.58648976612E+02 -0.10580427348E+03 -0.17243065459E+03  0.22562213051E+03  0.80862651389E+02 0.  0.
         -6    2    1    2    0  502 -0.41838778954E+02  0.17194378945E+03  0.30455893716E+03  0.39228719555E+03  0.17267874054E+03 0.  0.
        -24    2    5    5    0    0  0.13357125348E+02  0.63647065255E+01  0.69219738482E+02  0.99251960489E+02  0.69574831503E+02 0.  0.
          5    1    3    3  501    0 -0.16810197657E+02 -0.66139515969E+02  0.12135875935E+02  0.69472208851E+02  0.47000000000E+01 0. -1.
        -11    1    4    4    0    0  0.71246024712E+02 -0.47437559431E+02 -0.95639647568E+02  0.12834819932E+03  0.00000000000E+00 0.  1.
         12    1    4    4    0    0 -0.12597048101E+02 -0.58366714045E+02 -0.76791007022E+02  0.97273931188E+02  0.00000000000E+00 0. -1.
         -5    1    5    5    0  502 -0.55195904302E+02  0.16557908292E+03  0.23533919868E+03  0.29303523506E+03  0.47000000000E+01 0.  1.
         11    1    6    6    0    0  0.12463025168E+02  0.13103530792E+01 -0.12306680304E+02  0.17564122570E+02  0.00000000000E+00 0. -1.
        -12    1    6    6    0    0  0.89410017959E+00  0.50543534463E+01  0.81526418786E+02  0.81687837920E+02  0.00000000000E+00 0.  1.
<mgrwt>
<rscale>  2 0.24763454E+03</rscale>
<asrwt>0</asrwt>
<pdfrwt beam="1">  1       21 0.63972746E-01 0.24776249E+03</pdfrwt>
<pdfrwt beam="2">  1       21 0.41778260E-01 0.24776249E+03</pdfrwt>
<totfact> 0.12035410E+04</totfact>
</mgrwt>
</event>
<event>
12    1  0.1050690E-001  0.2065139E+03  0.7546771E-02  0.1144448E+00
         21   -1    0    0  503  502  0.00000000000E+00  0.00000000000E+00  0.72754646460E+03  0.72754646460E+03  0.00000000000E+00 0.  1.
         21   -1    0    0  501  503 -0.00000000000E+00 -0.00000000000E+00 -0.92660147924E+02  0.92660147924E+02  0.00000000000E+00 0.  1.
          6    2    1    2  501    0 -0.23636768874E+01  0.11204390551E+03  0.68183947047E+02  0.21704860478E+03  0.17292085609E+03 0.  0.
         24    2    3    3    0    0 -0.26869417891E+02  0.90272052795E+00  0.56439877880E+01  0.87101573853E+02  0.82656209974E+02 0.  0.
         -6    2    1    2    0  502  0.23636768874E+01 -0.11204390551E+03  0.56670236963E+03  0.60315800775E+03  0.17346060888E+03 0.  0.
        -24    2    5    5    0    0 -0.65781102298E+02 -0.83728856728E+02  0.35029975302E+03  0.37447124513E+03  0.78620109375E+02 0.  0.
          5    1    3    3  501    0  0.24505741003E+02  0.11114118499E+03  0.62539959259E+02  0.12994703093E+03  0.47000000000E+01 0. -1.
        -13    1    4    4    0    0 -0.47714534465E+01 -0.39463629845E+02 -0.44163156383E+01  0.39995608413E+02  0.00000000000E+00 0.  1.
         14    1    4    4    0    0 -0.22097964444E+02  0.40366350373E+02  0.10060303426E+02  0.47105965440E+02  0.00000000000E+00 0. -1.
         -5    1    5    5    0  502  0.68144779186E+02 -0.28315048786E+02  0.21640261661E+03  0.22868676262E+03  0.47000000000E+01 0.  1.
         13    1    6    6    0    0 -0.26477773232E+02 -0.79216368317E+01  0.22222334720E+02  0.35463459586E+02  0.00000000000E+00 0. -1.
        -14    1    6    6    0    0 -0.39303329067E+02 -0.75807219897E+02  0.32807741830E+03  0.33900778555E+03  0.00000000000E+00 0.  1.
<mgrwt>
<rscale>  2 0.20640056E+03</rscale>
<asrwt>0</asrwt>
<pdfrwt beam="1">  1       21 0.11193022E+00 0.20651394E+03</pdfrwt>
<pdfrwt beam="2">  1       21 0.14255408E-01 0.20651394E+03</pdfrwt>
<totfact> 0.26722601E+04</totfact>
</mgrwt>
</event>
<event>
12    1  0.1050690E-001  0.3346551E+03  0.7546771E-02  0.1069351E+00
         21   -1    0    0  501  502  0.00000000000E+00  0.00000000000E+00  0.52636545952E+02  0.52636545952E+02  0.00000000000E+00 0.  1.
         21   -1    0    0  502  503 -0.00000000000E+00 -0.00000000000E+00 -0.23568439173E+04  0.23568439173E+04  0.00000000000E+00 0.  1.
         -6    2    1    2    0  503 -0.26212282539E+01  0.28361485654E+03 -0.15361235506E+04  0.15716578020E+04  0.17317166635E+03 0.  0.
        -24    2    3    3    0    0  0.13233692905E+02  0.28016501067E+03 -0.15221953811E+04  0.15497634221E+04  0.77590737668E+02 0.  0.
          6    2    1    2  501    0  0.26212282539E+01 -0.28361485654E+03 -0.76808382072E+03  0.83782266128E+03  0.17762262922E+03 0.  0.
         24    2    5    5    0    0  0.61398677814E+02 -0.24528570715E+03 -0.62182382745E+03  0.67553283443E+03  0.75794869405E+02 0.  0.
          5    1    5    5  501    0 -0.58777449560E+02 -0.38329149386E+02 -0.14625999327E+03  0.16228982685E+03  0.47000000000E+01 0. -1.
        -11    1    6    6    0    0  0.30563271049E+02 -0.20222447470E+03 -0.42411376990E+03  0.47085171926E+03  0.00000000000E+00 0.  1.
         12    1    6    6    0    0  0.30835406765E+02 -0.43061232452E+02 -0.19771005755E+03  0.20468111517E+03  0.00000000000E+00 0. -1.
         -5    1    3    3    0  503 -0.15854921159E+02  0.34498458666E+01 -0.13928169537E+02  0.21894379829E+02  0.47000000000E+01 0.  1.
         13    1    4    4    0    0  0.30001754285E+02  0.87824754381E+02 -0.63954497237E+03  0.64624381191E+03  0.00000000000E+00 0. -1.
        -14    1    4    4    0    0 -0.16768061381E+02  0.19234025629E+03 -0.88265040871E+03  0.90351961023E+03  0.00000000000E+00 0.  1.
<mgrwt>
<rscale>  2 0.33406834E+03</rscale>
<asrwt>0</asrwt>
<pdfrwt beam="1">  1       21 0.80979288E-02 0.33465513E+03</pdfrwt>
<pdfrwt beam="2">  1       21 0.36259143E+00 0.33465513E+03</pdfrwt>
<totfact> 0.14881650E+03</totfact>
</mgrwt>
</event>
<event>
12    1  0.1050690E-001  0.1777554E+03  0.7546771E-02  0.1170183E+00
         21   -1    0    0  503  502  0.00000000000E+00  0.00000000000E+00  0.50317022411E+03  0.50317022411E+03  0.00000000000E+00 0. -1.
         21   -1    0    0  501  503 -0.00000000000E+00 -0.00000000000E+00 -0.92381045255E+02  0.92381045255E+02  0.00000000000E+00 0. -1.
          6    2    1    2  501    0  0.11962119473E+02 -0.37283811705E+02  0.35807456804E+02  0.18057140258E+03  0.17259977563E+03 0.  0.
         24    2    3    3    0    0 -0.27347037873E+02 -0.22092283571E+02  0.79356180985E+02  0.11978839709E+03  0.82558628518E+02 0.  0.
         -6    2    1    2    0  502 -0.11962119473E+02  0.37283811705E+02  0.37498172205E+03  0.41497986679E+03  0.17338922415E+03 0.  0.
        -24    2    5    5    0    0  0.43869285672E+01  0.89265940741E+02  0.25456710658E+03  0.28272555597E+03  0.84508431105E+02 0.  0.
          5    1    3    3  501    0  0.39309157346E+02 -0.15191528134E+02 -0.43548724181E+02  0.60783005488E+02  0.47000000000E+01 0. -1.
        -13    1    4    4    0    0  0.61492998641E+01  0.15912251049E+02  0.64903492521E+02  0.67107950078E+02  0.00000000000E+00 0.  1.
         14    1    4    4    0    0 -0.33496337737E+02 -0.38004534620E+02  0.14452688464E+02  0.52680447011E+02  0.00000000000E+00 0. -1.
         -5    1    5    5    0  502 -0.16349048040E+02 -0.51982129035E+02  0.12041461547E+03  0.13225431082E+03  0.47000000000E+01 0.  1.
         13    1    6    6    0    0 -0.20167372175E+02  0.28563863319E+02  0.18053660539E+03  0.18389149811E+03  0.00000000000E+00 0. -1.
        -14    1    6    6    0    0  0.24554300743E+02  0.60702077422E+02  0.74030501186E+02  0.98834057865E+02  0.00000000000E+00 0.  1.
<mgrwt>
<rscale>  2 0.17756264E+03</rscale>
<asrwt>0</asrwt>
<pdfrwt beam="1">  1       21 0.77410802E-01 0.17775544E+03</pdfrwt>
<pdfrwt beam="2">  1       21 0.14212469E-01 0.17775544E+03</pdfrwt>
<totfact> 0.64518170E+04</totfact>
</mgrwt>
</event>
<event>
12    1  0.1050690E-001  0.1852822E+03  0.7546771E-02  0.1162926E+00
         21   -1    0    0  503  502  0.00000000000E+00  0.00000000000E+00  0.83187093173E+03  0.83187093173E+03  0.00000000000E+00 0. -1.
         21   -1    0    0  501  503 -0.00000000000E+00 -0.00000000000E+00 -0.42032743413E+02  0.42032743413E+02  0.00000000000E+00 0. -1.
          6    2    1    2  501    0  0.58759381561E+02  0.26965577599E+02  0.33168214768E+03  0.37992439068E+03  0.17363665582E+03 0.  0.
         24    2    3    3    0    0  0.75372350964E+02  0.72029102460E+02  0.27795273853E+03  0.30770492354E+03  0.80965500222E+02 0.  0.
         -6    2    1    2    0  502 -0.58759381561E+02 -0.26965577599E+02  0.45815604063E+03  0.49397928446E+03  0.17299933125E+03 0.  0.
        -24    2    5    5    0    0 -0.56985194236E+02  0.22246149094E+02  0.41802203116E+03  0.43027865259E+03  0.81578776813E+02 0.  0.
          5    1    3    3  501    0 -0.16612969403E+02 -0.45063524861E+02  0.53729409160E+02  0.72219467140E+02  0.47000000000E+01 0. -1.
        -13    1    4    4    0    0 -0.12214015817E+01  0.40186326008E+02  0.14938655046E+03  0.15470221096E+03  0.00000000000E+00 0.  1.
         14    1    4    4    0    0  0.76593752545E+02  0.31842776452E+02  0.12856618807E+03  0.15300271258E+03  0.00000000000E+00 0. -1.
         -5    1    5    5    0  502 -0.17741873248E+01 -0.49211726693E+02  0.40134009468E+02  0.63700631870E+02  0.47000000000E+01 0.  1.
         13    1    6    6    0    0 -0.59311893792E+02 -0.11891341246E+02  0.18201133432E+03  0.19180049678E+03  0.00000000000E+00 0. -1.
        -14    1    6    6    0    0  0.23266995559E+01  0.34137490340E+02  0.23601069684E+03  0.23847815582E+03  0.00000000000E+00 0.  1.
<mgrwt>
<rscale>  2 0.18513274E+03</rscale>
<asrwt>0</asrwt>
<pdfrwt beam="1">  1       21 0.12798013E+00 0.18528221E+03</pdfrwt>
<pdfrwt beam="2">  1       21 0.64665765E-02 0.18528221E+03</pdfrwt>
<totfact> 0.78241838E+04</totfact>
</mgrwt>
</event>
<event>
12    1  0.1050690E-001  0.3737712E+03  0.7546771E-02  0.1053378E+00
         21   -1    0    0  503  502  0.00000000000E+00  0.00000000000E+00  0.22319097877E+04  0.22319097877E+04  0.00000000000E+00 0.  1.
         21   -1    0    0  501  503 -0.00000000000E+00 -0.00000000000E+00 -0.82472755866E+02  0.82472755866E+02  0.00000000000E+00 0. -1.
          6    2    1    2  501    0 -0.20736098241E+03  0.25735813286E+03  0.50498055555E+03  0.62825973381E+03  0.17456559244E+03 0.  0.
         24    2    3    3    0    0 -0.67617745564E+02  0.10595227670E+03  0.31301773277E+03  0.34661506254E+03  0.79773780771E+02 0.  0.
         -6    2    1    2    0  502  0.20736098241E+03 -0.25735813286E+03  0.16444564763E+04  0.16861228098E+04  0.17187565744E+03 0.  0.
        -24    2    5    5    0    0  0.56468151894E+02 -0.37256025587E+02  0.41432175756E+03  0.42736663793E+03  0.80019127714E+02 0.  0.
          5    1    3    3  501    0 -0.13974323685E+03  0.15140585616E+03  0.19196282279E+03  0.28164467128E+03  0.47000000000E+01 0. -1.
        -13    1    4    4    0    0 -0.29738291804E+02  0.10617551152E+03  0.21728378862E+03  0.24365929090E+03  0.00000000000E+00 0.  1.
         14    1    4    4    0    0 -0.37879453760E+02 -0.22323482319E+00  0.95733944149E+02  0.10295577164E+03  0.00000000000E+00 0. -1.
         -5    1    5    5    0  502  0.15089283052E+03 -0.22010210727E+03  0.12301347187E+04  0.12587561718E+04  0.47000000000E+01 0.  1.
         13    1    6    6    0    0  0.75819408420E+02 -0.29919629916E+02  0.36280580057E+03  0.37184918431E+03  0.00000000000E+00 0. -1.
        -14    1    6    6    0    0 -0.19351256526E+02 -0.73363956710E+01  0.51515956997E+02  0.55517453615E+02  0.00000000000E+00 0.  1.
<mgrwt>
<rscale>  2 0.37345866E+03</rscale>
<asrwt>0</asrwt>
<pdfrwt beam="1">  1       21 0.34337069E+00 0.37377123E+03</pdfrwt>
<pdfrwt beam="2">  1       21 0.12688118E-01 0.37377123E+03</pdfrwt>
<totfact> 0.84639389E+02</totfact>
</mgrwt>
</event>
<event>
12    1  0.1050690E-001  0.1886840E+03  0.7546771E-02  0.1159703E+00
         21   -1    0    0  501  502  0.00000000000E+00  0.00000000000E+00  0.28292496551E+02  0.28292496551E+02  0.00000000000E+00 0.  1.
         21   -1    0    0  502  503 -0.00000000000E+00 -0.00000000000E+00 -0.13956753655E+04  0.13956753655E+04  0.00000000000E+00 0.  1.
         -6    2    1    2    0  503 -0.46484415884E+02 -0.59873135572E+02 -0.90855691564E+03  0.92794252469E+03  0.17278908208E+03 0.  0.
        -24    2    3    3    0    0 -0.37196217440E+02  0.33399858315E+02 -0.44771658154E+03  0.45764259320E+03  0.80544997383E+02 0.  0.
          6    2    1    2  501    0  0.46484415884E+02  0.59873135572E+02 -0.45882595331E+03  0.49602533736E+03  0.17255227206E+03 0.  0.
         24    2    5    5    0    0  0.31654934888E+02  0.62200948249E+02 -0.46658325090E+03  0.47848686866E+03  0.79867143413E+02 0.  0.
          5    1    5    5  501    0  0.14829480996E+02 -0.23278126773E+01  0.77572975891E+01  0.17538468700E+02  0.47000000000E+01 0. -1.
        -13    1    6    6    0    0 -0.22625489439E+02  0.89033092388E+01 -0.58133070556E+02  0.63012979457E+02  0.00000000000E+00 0.  1.
         14    1    6    6    0    0  0.54280424328E+02  0.53297639010E+02 -0.40845018034E+03  0.41547388921E+03  0.00000000000E+00 0. -1.
         -5    1    3    3    0  503 -0.92881984443E+01 -0.93272993887E+02 -0.46084033410E+03  0.47029993148E+03  0.47000000000E+01 0.  1.
         11    1    4    4    0    0  0.71428750103E+01  0.13288490057E+02 -0.12170206626E+02  0.19383461010E+02  0.00000000000E+00 0. -1.
        -12    1    4    4    0    0 -0.44339092450E+02  0.20111368258E+02 -0.43554637491E+03  0.43825913219E+03  0.00000000000E+00 0.  1.
<mgrwt>
<rscale>  2 0.18862979E+03</rscale>
<asrwt>0</asrwt>
<pdfrwt beam="1">  1       21 0.43526911E-02 0.18868402E+03</pdfrwt>
<pdfrwt beam="2">  1       21 0.21471932E+00 0.18868402E+03</pdfrwt>
<totfact> 0.36973146E+04</totfact>
</mgrwt>
</event>
<event>
12    1  0.1050690E-001  0.1744939E+03  0.7546771E-02  0.1173842E+00
         21   -1    0    0  501  502  0.00000000000E+00  0.00000000000E+00  0.11244301881E+03  0.11244301881E+03  0.00000000000E+00 0. -1.
         21   -1    0    0  502  503 -0.00000000000E+00 -0.00000000000E+00 -0.36208191575E+03  0.36208191575E+03  0.00000000000E+00 0. -1.
         -6    2    1    2    0  503 -0.13043964110E+02  0.15784761396E+00 -0.24569174122E+03  0.29998636368E+03  0.17163104840E+03 0.  0.
        -24    2    3    3    0    0  0.14834767162E+02  0.42194100272E+02 -0.70829565942E+02  0.11793378738E+03  0.83012880804E+02 0.  0.
          6    2    1    2  501    0  0.13043964110E+02 -0.15784761396E+00 -0.39471557209E+01  0.17453857088E+03  0.17400564006E+03 0.  0.
         24    2    5    5    0    0  0.41639335680E+02  0.20338241948E+02  0.52479363537E+02  0.10787653493E+03  0.82071827255E+02 0.  0.
          5    1    5    5  501    0 -0.28595371570E+02 -0.20496089562E+02 -0.56426519258E+02  0.66662035959E+02  0.47000000000E+01 0. -1.
        -11    1    6    6    0    0  0.17009838372E+02  0.18710077675E+02 -0.19403948738E+02  0.31873418936E+02  0.00000000000E+00 0.  1.
         12    1    6    6    0    0  0.24629497308E+02  0.16281642725E+01  0.71883312275E+02  0.76003115990E+02  0.00000000000E+00 0. -1.
         -5    1    3    3    0  503 -0.27878731272E+02 -0.42036252658E+02 -0.17486217528E+03  0.18205257630E+03  0.47000000000E+01 0.  1.
         11    1    4    4    0    0  0.13014993006E+02  0.39695341502E+02 -0.89626767045E+02  0.98884111721E+02  0.00000000000E+00 0. -1.
        -12    1    4    4    0    0  0.18197741563E+01  0.24987587705E+01  0.18797201103E+02  0.19049675658E+02  0.00000000000E+00 0.  1.
<mgrwt>
<rscale>  2 0.17389893E+03</rscale>
<asrwt>0</asrwt>
<pdfrwt beam="1">  1       21 0.17298926E-01 0.17449393E+03</pdfrwt>
<pdfrwt beam="2">  1       21 0.55704910E-01 0.17449393E+03</pdfrwt>
<totfact> 0.92389715E+04</totfact>
</mgrwt>
</event>
<event>
12    1  0.1050690E-001  0.1852631E+03  0.7546771E-02  0.1162870E+00
         21   -1    0    0  501  502  0.00000000000E+00  0.00000000000E+00  0.30642973900E+02  0.30642973900E+02  0.00000000000E+00 0. -1.
         21   -1    0    0  502  503 -0.00000000000E+00 -0.00000000000E+00 -0.11534645143E+04  0.11534645143E+04  0.00000000000E+00 0. -1.
         -6    2    1    2    0  503 -0.64337626983E+02 -0.16531618113E+02 -0.66425683888E+03  0.68953293590E+03  0.17264384448E+03 0.  0.
        -24    2    3    3    0    0 -0.55460355987E+02  0.52201494842E+02 -0.38714963923E+03  0.40385210549E+03  0.86086194065E+02 0.  0.
          6    2    1    2  501    0  0.64337626983E+02  0.16531618113E+02 -0.45856470155E+03  0.49457455234E+03  0.17294443521E+03 0.  0.
         24    2    5    5    0    0 -0.21302455830E+02 -0.27738631732E+02 -0.25792951196E+03  0.27192988452E+03  0.78708339084E+02 0.  0.
          5    1    5    5  501    0  0.85640082814E+02  0.44270249845E+02 -0.20063518959E+03  0.22264466782E+03  0.47000000000E+01 0. -1.
        -13    1    6    6    0    0 -0.92978349938E+01 -0.51830448447E+02 -0.21422106372E+03  0.22059807176E+03  0.00000000000E+00 0.  1.
         14    1    6    6    0    0 -0.12004620837E+02  0.24091816715E+02 -0.43708448236E+02  0.51331812761E+02  0.00000000000E+00 0. -1.
         -5    1    3    3    0  503 -0.88772709967E+01 -0.68733112955E+02 -0.27710719966E+03  0.28568083040E+03  0.47000000000E+01 0.  1.
         11    1    4    4    0    0 -0.14648484027E+02 -0.21779645199E+02 -0.14571736444E+03  0.14806242376E+03  0.00000000000E+00 0. -1.
        -12    1    4    4    0    0 -0.40811871960E+02  0.73981140041E+02 -0.24143227478E+03  0.25578968173E+03  0.00000000000E+00 0.  1.
<mgrwt>
<rscale>  2 0.18519288E+03</rscale>
<asrwt>0</asrwt>
<pdfrwt beam="1">  1       21 0.47143034E-02 0.18526306E+03</pdfrwt>
<pdfrwt beam="2">  1       21 0.17745609E+00 0.18526306E+03</pdfrwt>
<totfact> 0.56527371E+04</totfact>
</mgrwt>
</event>
<event>
12    1  0.1050690E-001  0.2292975E+03  0.7546771E-02  0.1127168E+00
         21   -1    0    0  503  502  0.00000000000E+00  0.00000000000E+00  0.14478232799E+04  0.14478232799E+04  0.00000000000E+00 0. -1.
         21   -1    0    0  501  503 -0.00000000000E+00 -0.00000000000E+00 -0.74215615309E+02  0.74215615309E+02  0.00000000000E+00 0.  1.
          6    2    1    2  501    0  0.13380334910E+03  0.69635073747E+02  0.14288698690E+03  0.27017408248E+03  0.17269905643E+03 0.  0.
         24    2    3    3    0    0  0.95075558412E+02  0.10224585393E+03  0.58040119018E+02  0.17125802845E+03  0.80418159885E+02 0.  0.
         -6    2    1    2    0  502 -0.13380334910E+03 -0.69635073747E+02  0.12307206776E+04  0.12518648127E+04  0.17245214733E+03 0.  0.
        -24    2    5    5    0    0 -0.53598205439E+02 -0.69044086217E+02  0.46454118678E+03  0.48148418172E+03  0.91589571261E+02 0.  0.
          5    1    3    3  501    0  0.38727790692E+02 -0.32610780184E+02  0.84846867877E+02  0.98916054029E+02  0.47000000000E+01 0. -1.
        -13    1    4    4    0    0  0.74954217306E+01 -0.91418319652E+00 -0.15501623517E+02  0.17242894464E+02  0.00000000000E+00 0.  1.
         14    1    4    4    0    0  0.87580136681E+02  0.10316003713E+03  0.73541742535E+02  0.15401513398E+03  0.00000000000E+00 0. -1.
         -5    1    5    5    0  502 -0.80205143665E+02 -0.59098752964E+00  0.76617949087E+03  0.77038063096E+03  0.47000000000E+01 0.  1.
         13    1    6    6    0    0 -0.67410027658E+00 -0.65148417618E+02  0.33873279637E+03  0.34494155746E+03  0.00000000000E+00 0. -1.
        -14    1    6    6    0    0 -0.52924105162E+02 -0.38956685990E+01  0.12580839041E+03  0.13654262426E+03  0.00000000000E+00 0.  1.
<mgrwt>
<rscale>  2 0.22925101E+03</rscale>
<asrwt>0</asrwt>
<pdfrwt beam="1">  1       21 0.22274202E+00 0.22929750E+03</pdfrwt>
<pdfrwt beam="2">  1       21 0.11417788E-01 0.22929750E+03</pdfrwt>
<totfact> 0.60069994E+03</totfact>
</mgrwt>
</event>
<event>
12    1  0.1050690E-001  0.1903056E+03  0.7546771E-02  0.1159304E+00
         21   -1    0    0  501  502  0.00000000000E+00  0.00000000000E+00  0.15447317913E+03  0.15447317913E+03  0.00000000000E+00 0.  1.
         21   -1    0    0  502  503 -0.00000000000E+00 -0.00000000000E+00 -0.32923689015E+03  0.32923689015E+03  0.00000000000E+00 0.  1.
         -6    2    1    2    0  503  0.32439582609E+02  0.73456575206E+02 -0.22039667454E+03  0.28800982248E+03  0.16711304179E+03 0.  0.
        -24    2    3    3    0    0 -0.76149792198E+01  0.43917138456E+02 -0.35981190407E+02  0.96938874833E+02  0.78203557669E+02 0.  0.
          6    2    1    2  501    0 -0.32439582609E+02 -0.73456575206E+02  0.45632963517E+02  0.19570024679E+03  0.17253412496E+03 0.  0.
         24    2    5    5    0    0  0.11265635363E+01 -0.11269800852E+03  0.21085962156E+02  0.13833107797E+03  0.77387072983E+02 0.  0.
          5    1    5    5  501    0 -0.33566146145E+02  0.39241433309E+02  0.24547001361E+02  0.57369168819E+02  0.47000000000E+01 0. -1.
        -11    1    6    6    0    0  0.10499826609E+02 -0.80808493961E+02  0.48862189368E+02  0.95014591537E+02  0.00000000000E+00 0.  1.
         12    1    6    6    0    0 -0.93732630728E+01 -0.31889514554E+02 -0.27776227213E+02  0.43316486437E+02  0.00000000000E+00 0. -1.
         -5    1    3    3    0  503  0.40054561829E+02  0.29539436750E+02 -0.18441548414E+03  0.19107094765E+03  0.47000000000E+01 0.  1.
         11    1    4    4    0    0 -0.37129582520E+02  0.71197318821E+00 -0.20263714238E+02  0.42305211484E+02  0.00000000000E+00 0. -1.
        -12    1    4    4    0    0  0.29514603301E+02  0.43205165268E+02 -0.15717476169E+02  0.54633663349E+02  0.00000000000E+00 0.  1.
<mgrwt>
<rscale>  2 0.18906840E+03</rscale>
<asrwt>0</asrwt>
<pdfrwt beam="1">  1       21 0.23765105E-01 0.19030559E+03</pdfrwt>
<pdfrwt beam="2">  1       21 0.50651829E-01 0.19030559E+03</pdfrwt>
<totfact> 0.61930844E+04</totfact>
</mgrwt>
</event>
<event>
12    1  0.1050690E-001  0.1819359E+03  0.7546771E-02  0.1166466E+00
         21   -1    0    0  503  502  0.00000000000E+00  0.00000000000E+00  0.15730895819E+03  0.15730895819E+03  0.00000000000E+00 0. -1.
         21   -1    0    0  501  503 -0.00000000000E+00 -0.00000000000E+00 -0.27880716075E+03  0.27880716075E+03  0.00000000000E+00 0. -1.
          6    2    1    2  501    0 -0.23099288122E+01  0.52436720915E+02 -0.17044005878E+03  0.24771236989E+03  0.17192050223E+03 0.  0.
         24    2    3    3    0    0  0.26114582844E+02  0.33321502119E+01 -0.18959461780E+02  0.85886312054E+02  0.79523095671E+02 0.  0.
         -6    2    1    2    0  502  0.23099288122E+01 -0.52436720915E+02  0.48941856221E+02  0.18840374904E+03  0.17420023505E+03 0.  0.
        -24    2    5    5    0    0  0.34476067559E+02 -0.69231045956E+02 -0.21426742073E+02  0.10909082789E+03  0.73892939420E+02 0.  0.
          5    1    3    3  501    0 -0.28424511656E+02  0.49104570703E+02 -0.15148059700E+03  0.16182605784E+03  0.47000000000E+01 0. -1.
        -11    1    4    4    0    0  0.42962539136E+02 -0.12397776072E+02 -0.35848503993E+02  0.57311428695E+02  0.00000000000E+00 0.  1.
         12    1    4    4    0    0 -0.16847956292E+02  0.15729926284E+02  0.16889042213E+02  0.28574883359E+02  0.00000000000E+00 0. -1.
         -5    1    5    5    0  502 -0.32166138747E+02  0.16794325041E+02  0.70368598294E+02  0.79312921150E+02  0.47000000000E+01 0.  1.
         13    1    6    6    0    0 -0.13249817450E+02 -0.42416604207E+02 -0.30089842820E+02  0.53666792487E+02  0.00000000000E+00 0. -1.
        -14    1    6    6    0    0  0.47725885009E+02 -0.26814441749E+02  0.86631007465E+01  0.55424035407E+02  0.00000000000E+00 0.  1.
<mgrwt>
<rscale>  2 0.18138802E+03</rscale>
<asrwt>0</asrwt>
<pdfrwt beam="1">  1       21 0.24201378E-01 0.18193589E+03</pdfrwt>
<pdfrwt beam="2">  1       21 0.42893409E-01 0.18193589E+03</pdfrwt>
<totfact> 0.84589760E+04</totfact>
</mgrwt>
</event>
<event>
12    1  0.1050690E-001  0.2195235E+03  0.7546771E-02  0.1134495E+00
         21   -1    0    0  503  502  0.00000000000E+00  0.00000000000E+00  0.40352649584E+03  0.40352649584E+03  0.00000000000E+00 0.  1.
         21   -1    0    0  501  503 -0.00000000000E+00 -0.00000000000E+00 -0.11920494019E+03  0.11920494019E+03  0.00000000000E+00 0. -1.
          6    2    1    2  501    0 -0.43116923796E+02 -0.13059978084E+03  0.12442228142E+03  0.25114653062E+03  0.16934669721E+03 0.  0.
         24    2    3    3    0    0 -0.47172550764E+02 -0.91772599760E+02  0.14948048441E+03  0.20452034015E+03  0.94003695160E+02 0.  0.
         -6    2    1    2    0  502  0.43116923796E+02  0.13059978084E+03  0.15989927422E+03  0.27158490541E+03  0.17110000315E+03 0.  0.
        -24    2    5    5    0    0  0.33591493889E+02  0.51884694341E+02  0.19960566709E+02  0.11067583010E+03  0.89611970052E+02 0.  0.
          5    1    3    3  501    0  0.40556269682E+01 -0.38827181081E+02 -0.25058202987E+02  0.46626190470E+02  0.47000000000E+01 0. -1.
        -13    1    4    4    0    0 -0.55601672851E+02 -0.82182633863E+02  0.63961269604E+02  0.11805327332E+03  0.00000000000E+00 0.  1.
         14    1    4    4    0    0  0.84291220872E+01 -0.95899658976E+01  0.85519214808E+02  0.86467066832E+02  0.00000000000E+00 0. -1.
         -5    1    5    5    0  502  0.95254299068E+01  0.78715086500E+02  0.13993870751E+03  0.16090907531E+03  0.47000000000E+01 0.  1.
         11    1    6    6    0    0  0.17032389861E+02  0.48617113907E+02  0.52791177560E+02  0.73760656839E+02  0.00000000000E+00 0. -1.
        -12    1    6    6    0    0  0.16559104028E+02  0.32675804331E+01 -0.32830610851E+02  0.36915173262E+02  0.00000000000E+00 0.  1.
<mgrwt>
<rscale>  2 0.21918179E+03</rscale>
<asrwt>0</asrwt>
<pdfrwt beam="1">  1       21 0.62080999E-01 0.21952354E+03</pdfrwt>
<pdfrwt beam="2">  1       21 0.18339222E-01 0.21952354E+03</pdfrwt>
<totfact> 0.64521543E+04</totfact>
</mgrwt>
</event>
<event>
12    1  0.1050690E-001  0.2913896E+03  0.7546771E-02  0.1089708E+00
         21   -1    0    0  503  502  0.00000000000E+00  0.00000000000E+00  0.35841448278E+03  0.35841448278E+03  0.00000000000E+00 0. -1.
         21   -1    0    0  501  503 -0.00000000000E+00 -0.00000000000E+00 -0.24735920793E+03  0.24735920793E+03  0.00000000000E+00 0.  1.
          6    2    1    2  501    0  0.97008666167E+02 -0.21275446548E+03 -0.83240934601E+01  0.29087798694E+03  0.17281657578E+03 0.  0.
         24    2    3    3    0    0  0.59389966579E+02 -0.21145641303E+03  0.31467208607E+02  0.23590263593E+03  0.80117948537E+02 0.  0.
         -6    2    1    2    0  502 -0.97008666167E+02  0.21275446548E+03  0.11937936830E+03  0.31489570377E+03  0.17387560722E+03 0.  0.
        -24    2    5    5    0    0 -0.11334250027E+03  0.94785868681E+02  0.29111677706E+02  0.16538406565E+03  0.68363119613E+02 0.  0.
          5    1    3    3  501    0  0.37618699588E+02 -0.12980524433E+01 -0.39791302068E+02  0.54975351014E+02  0.47000000000E+01 0. -1.
        -13    1    4    4    0    0  0.25560637982E+02 -0.11366933441E+03 -0.23321741820E+02  0.11881905336E+03  0.00000000000E+00 0.  1.
         14    1    4    4    0    0  0.33829328597E+02 -0.97787078622E+02  0.54788950427E+02  0.11708358257E+03  0.00000000000E+00 0. -1.
         -5    1    5    5    0  502  0.16333834108E+02  0.11796859679E+03  0.90267690597E+02  0.14951163812E+03  0.47000000000E+01 0.  1.
         11    1    6    6    0    0 -0.79119616232E+02  0.23797612892E+02  0.25610542131E+02  0.86499363698E+02  0.00000000000E+00 0. -1.
        -12    1    6    6    0    0 -0.34222884043E+02  0.70988255790E+02  0.35011355747E+01  0.78884701955E+02  0.00000000000E+00 0.  1.
<mgrwt>
<rscale>  2 0.29123175E+03</rscale>
<asrwt>0</asrwt>
<pdfrwt beam="1">  1       21 0.55140690E-01 0.29138955E+03</pdfrwt>
<pdfrwt beam="2">  1       21 0.38055263E-01 0.29138955E+03</pdfrwt>
<totfact> 0.19658088E+04</totfact>
</mgrwt>
</event>
<event>
12    1  0.1050690E-001  0.1793733E+03  0.7546771E-02  0.1168668E+00
         21   -1    0    0  501  502  0.00000000000E+00  0.00000000000E+00  0.43910538451E+03  0.43910538451E+03  0.00000000000E+00 0. -1.
         21   -1    0    0  502  503 -0.00000000000E+00 -0.00000000000E+00 -0.46195333167E+03  0.46195333167E+03  0.00000000000E+00 0. -1.
         -6    2    1    2    0  503 -0.44350284688E+02  0.25275970055E+01 -0.42491458778E+03  0.46122358503E+03  0.17378564953E+03 0.  0.
        -24    2    3    3    0    0 -0.86652885680E+02  0.12703999398E+02 -0.20248308310E+03  0.23452790027E+03  0.79585318150E+02 0.  0.
          6    2    1    2  501    0  0.44350284688E+02 -0.25275970055E+01  0.40206664063E+03  0.43983513115E+03  0.17269633056E+03 0.  0.
         24    2    5    5    0    0  0.78541491949E+02 -0.39205130847E+02  0.26968144278E+03  0.29819399746E+03  0.92118246298E+02 0.  0.
          5    1    5    5  501    0 -0.34191207261E+02  0.36677533842E+02  0.13238519785E+03  0.14164113369E+03  0.47000000000E+01 0. -1.
        -13    1    6    6    0    0 -0.14450430261E+01 -0.25627041590E+02  0.12559187846E+02  0.28575629640E+02  0.00000000000E+00 0.  1.
         14    1    6    6    0    0  0.79986534975E+02 -0.13578089258E+02  0.25712225493E+03  0.26961836782E+03  0.00000000000E+00 0. -1.
         -5    1    3    3    0  503  0.42302600992E+02 -0.10176402392E+02 -0.22243150468E+03  0.22669568477E+03  0.47000000000E+01 0.  1.
         13    1    4    4    0    0 -0.21420432990E+02  0.13198403474E+02 -0.14626061012E+03  0.14840889082E+03  0.00000000000E+00 0. -1.
        -14    1    4    4    0    0 -0.65232452690E+02 -0.49440407691E+00 -0.56222472983E+02  0.86119009444E+02  0.00000000000E+00 0.  1.
<mgrwt>
<rscale>  2 0.17910894E+03</rscale>
<asrwt>0</asrwt>
<pdfrwt beam="1">  1       21 0.67554675E-01 0.17937332E+03</pdfrwt>
<pdfrwt beam="2">  1       21 0.71069743E-01 0.17937332E+03</pdfrwt>
<totfact> 0.36304132E+03</totfact>
</mgrwt>
</event>
<event>
12    1  0.1050690E-001  0.1752187E+03  0.7546771E-02  0.1172589E+00
         21   -1    0    0  501  502  0.00000000000E+00  0.00000000000E+00  0.62201677566E+02  0.62201677566E+02  0.00000000000E+00 0. -1.
         21   -1    0    0  502  503 -0.00000000000E+00 -0.00000000000E+00 -0.67034945361E+03  0.67034945361E+03  0.00000000000E+00 0. -1.
         -6    2    1    2    0  503  0.23144207213E+02  0.67234616378E+01 -0.49281170984E+03  0.52303439424E+03  0.17355326829E+03 0.  0.
        -24    2    3    3    0    0  0.51212874804E+02 -0.42693073700E+02 -0.40576679683E+03  0.41897310967E+03  0.80288953963E+02 0.  0.
          6    2    1    2  501    0 -0.23144207213E+02 -0.67234616378E+01 -0.11533606620E+03  0.20951673694E+03  0.17324547794E+03 0.  0.
         24    2    5    5    0    0 -0.53500167154E+02 -0.24830757614E+02 -0.11900225576E+02  0.10010731505E+03  0.80006404424E+02 0.  0.
          5    1    5    5  501    0  0.30355959941E+02  0.18107295977E+02 -0.10343584062E+03  0.10940942188E+03  0.47000000000E+01 0. -1.
        -11    1    6    6    0    0 -0.12028443481E+02 -0.28323290612E+02  0.28618181145E+02  0.42022524147E+02  0.00000000000E+00 0.  1.
         12    1    6    6    0    0 -0.41471723672E+02  0.34925329972E+01 -0.40518406721E+02  0.58084790904E+02  0.00000000000E+00 0. -1.
         -5    1    3    3    0  503 -0.28068667591E+02  0.49416535338E+02 -0.87044913013E+02  0.10406128457E+03  0.47000000000E+01 0.  1.
         11    1    4    4    0    0 -0.93787299217E+01  0.13743612335E+01 -0.19598093260E+03  0.19621002876E+03  0.00000000000E+00 0. -1.
        -12    1    4    4    0    0  0.60591604725E+02 -0.44067434934E+02 -0.20978586423E+03  0.22276308091E+03  0.00000000000E+00 0.  1.
<mgrwt>
<rscale>  2 0.17514244E+03</rscale>
<asrwt>0</asrwt>
<pdfrwt beam="1">  1       21 0.95694888E-02 0.17521871E+03</pdfrwt>
<pdfrwt beam="2">  1       21 0.10313069E+00 0.17521871E+03</pdfrwt>
<totfact> 0.67438939E+04</totfact>
</mgrwt>
</event>
<event>
12    1  0.1050690E-001  0.1767705E+03  0.7546771E-02  0.1171237E+00
         21   -1    0    0  503  502  0.00000000000E+00  0.00000000000E+00  0.29720479989E+03  0.29720479989E+03  0.00000000000E+00 0. -1.
         21   -1    0    0  501  503 -0.00000000000E+00 -0.00000000000E+00 -0.27792214321E+03  0.27792214321E+03  0.00000000000E+00 0. -1.
          6    2    1    2  501    0 -0.53690199055E+01  0.32089682129E+02 -0.21750888970E+03  0.28028186749E+03  0.17375049373E+03 0.  0.
         24    2    3    3    0    0 -0.67627552348E+02  0.15571821354E+02 -0.16082390416E+03  0.19435025415E+03  0.84212384364E+02 0.  0.
         -6    2    1    2    0  502  0.53690199055E+01 -0.32089682129E+02  0.23679154637E+03  0.29484507562E+03  0.17264069076E+03 0.  0.
        -24    2    5    5    0    0  0.46957073504E+02 -0.58522371998E+02  0.21264419194E+03  0.23976841975E+03  0.81495447513E+02 0.  0.
          5    1    3    3  501    0  0.62258532442E+02  0.16517860775E+02 -0.56684985533E+02  0.85931613340E+02  0.47000000000E+01 0. -1.
        -13    1    4    4    0    0  0.37581101494E+01  0.16366967945E+02  0.16599895496E+01  0.16874732499E+02  0.00000000000E+00 0.  1.
         14    1    4    4    0    0 -0.71385662497E+02 -0.79514659146E+00 -0.16248389371E+03  0.17747552165E+03  0.00000000000E+00 0. -1.
         -5    1    5    5    0  502 -0.41588053598E+02  0.26432689869E+02  0.24147354434E+02  0.55076655871E+02  0.47000000000E+01 0.  1.
         11    1    6    6    0    0  0.31863801946E+02 -0.43748509649E+02  0.43846413844E+02  0.69654446936E+02  0.00000000000E+00 0. -1.
        -12    1    6    6    0    0  0.15093271558E+02 -0.14773862348E+02  0.16879777810E+03  0.17011397281E+03  0.00000000000E+00 0.  1.
<mgrwt>
<rscale>  2 0.17649718E+03</rscale>
<asrwt>0</asrwt>
<pdfrwt beam="1">  1       21 0.45723815E-01 0.17677050E+03</pdfrwt>
<pdfrwt beam="2">  1       21 0.42757253E-01 0.17677050E+03</pdfrwt>
<totfact> 0.24347031E+04</totfact>
</mgrwt>
</event>
<event>
12    1  0.1050690E-001  0.1965933E+03  0.7546771E-02  0.1153009E+00
         21   -1    0    0  501  502  0.00000000000E+00  0.00000000000E+00  0.33506638165E+04  0.33506638165E+04  0.00000000000E+00 0. -1.
         21   -1    0    0  502  503 -0.00000000000E+00 -0.00000000000E+00 -0.14096708996E+02  0.14096708996E+02  0.00000000000E+00 0. -1.
         -6    2    1    2    0  503 -0.76436572056E+02  0.54920308581E+02  0.94323808499E+03  0.96350765808E+03  0.17259818179E+03 0.  0.
        -24    2    3    3    0    0  0.22758161312E+02  0.14266016552E+02  0.32451776149E+03  0.33555121429E+03  0.81002387322E+02 0.  0.
          6    2    1    2  501    0  0.76436572056E+02 -0.54920308581E+02  0.23933290225E+04  0.24012528674E+04  0.17068313751E+03 0.  0.
         24    2    5    5    0    0 -0.56113305044E+01  0.22939227638E+01  0.42881239776E+03  0.43418576497E+03  0.67826668216E+02 0.  0.
          5    1    5    5  501    0  0.82047902560E+02 -0.57214231345E+02  0.19645166248E+04  0.19670671025E+04  0.47000000000E+01 0. -1.
        -13    1    6    6    0    0  0.89450533354E+01  0.23158425606E+02  0.66527035314E+02  0.71008260671E+02  0.00000000000E+00 0.  1.
         14    1    6    6    0    0 -0.14556383840E+02 -0.20864502843E+02  0.36228536244E+03  0.36317750430E+03  0.00000000000E+00 0. -1.
         -5    1    3    3    0  503 -0.99194733368E+02  0.40654292030E+02  0.61872032349E+03  0.62795644379E+03  0.47000000000E+01 0.  1.
         13    1    4    4    0    0 -0.50024561645E+01 -0.20531564560E+02  0.24960900154E+02  0.32704988112E+02  0.00000000000E+00 0. -1.
        -14    1    4    4    0    0  0.27760617477E+02  0.34797581111E+02  0.29955686134E+03  0.30284622618E+03  0.00000000000E+00 0.  1.
<mgrwt>
<rscale>  2 0.19617215E+03</rscale>
<asrwt>0</asrwt>
<pdfrwt beam="1">  1       21 0.51548611E+00 0.19659329E+03</pdfrwt>
<pdfrwt beam="2">  1       21 0.21687271E-02 0.19659329E+03</pdfrwt>
<totfact> 0.15749214E+03</totfact>
</mgrwt>
</event>
<event>
12    1  0.1050690E-001  0.2281322E+03  0.7546771E-02  0.1128860E+00
         21   -1    0    0  503  502  0.00000000000E+00  0.00000000000E+00  0.48683860100E+03  0.48683860100E+03  0.00000000000E+00 0. -1.
         21   -1    0    0  501  503 -0.00000000000E+00 -0.00000000000E+00 -0.13090093190E+03  0.13090093190E+03  0.00000000000E+00 0.  1.
          6    2    1    2  501    0 -0.11004471701E+03  0.99478018479E+02  0.37889619469E+02  0.22633328883E+03  0.16668958716E+03 0.  0.
         24    2    3    3    0    0 -0.84076114066E+02  0.13097852885E+03  0.90817416536E+01  0.17614729162E+03  0.81983061279E+02 0.  0.
         -6    2    1    2    0  502  0.11004471701E+03 -0.99478018479E+02  0.31804804963E+03  0.39140624406E+03  0.17331638731E+03 0.  0.
        -24    2    5    5    0    0  0.23630589334E+02 -0.84637724824E+02  0.10203487965E+03  0.15822945409E+03  0.83087268935E+02 0.  0.
          5    1    3    3  501    0 -0.25968602945E+02 -0.31500510370E+02  0.28807877815E+02  0.50185997217E+02  0.47000000000E+01 0. -1.
        -11    1    4    4    0    0 -0.52200079992E+02  0.13392734952E+02  0.65882413629E+01  0.54291975696E+02  0.00000000000E+00 0.  1.
         12    1    4    4    0    0 -0.31876034074E+02  0.11758579390E+03  0.24935002907E+01  0.12185531592E+03  0.00000000000E+00 0. -1.
         -5    1    5    5    0  502  0.86414127677E+02 -0.14840293655E+02  0.21601316998E+03  0.23317678997E+03  0.47000000000E+01 0.  1.
         11    1    6    6    0    0  0.28925366972E+02 -0.97724846452E+02  0.10188805561E+03  0.14411106253E+03  0.00000000000E+00 0. -1.
        -12    1    6    6    0    0 -0.52947776373E+01  0.13087121628E+02  0.14682404326E+00  0.14118391553E+02  0.00000000000E+00 0.  1.
<mgrwt>
<rscale>  2 0.22687357E+03</rscale>
<asrwt>0</asrwt>
<pdfrwt beam="1">  1       21 0.74898245E-01 0.22813217E+03</pdfrwt>
<pdfrwt beam="2">  1       21 0.20138605E-01 0.22813217E+03</pdfrwt>
<totfact> 0.35684737E+04</totfact>
</mgrwt>
</event>
<event>
12    1  0.1050690E-001  0.2123624E+03  0.7546771E-02  0.1139833E+00
         21   -1    0    0  503  502  0.00000000000E+00  0.00000000000E+00  0.19889487428E+04  0.19889487428E+04  0.00000000000E+00 0. -1.
         21   -1    0    0  501  503 -0.00000000000E+00 -0.00000000000E+00 -0.26620035419E+02  0.26620035419E+02  0.00000000000E+00 0.  1.
          6    2    1    2  501    0  0.48336147524E+02 -0.11327978108E+03  0.58860769155E+03  0.62553020537E+03  0.17222175042E+03 0.  0.
         24    2    3    3    0    0  0.28786914641E+02 -0.12131100486E+03  0.58498471338E+03  0.60357823433E+03  0.80960013030E+02 0.  0.
         -6    2    1    2    0  502 -0.48336147524E+02  0.11327978108E+03  0.13737210158E+04  0.13900385729E+04  0.17300032577E+03 0.  0.
        -24    2    5    5    0    0 -0.80602611776E+02  0.22461506901E+02  0.78788391985E+03  0.79630776123E+03  0.79647216648E+02 0.  0.
          5    1    3    3  501    0  0.19549232883E+02  0.80312237804E+01  0.36229781667E+01  0.21951971040E+02  0.47000000000E+01 0. -1.
        -13    1    4    4    0    0 -0.44149336245E+01  0.23211401089E+01  0.24917496620E+00  0.49941384120E+01  0.00000000000E+00 0.  1.
         14    1    4    4    0    0  0.33201848265E+02 -0.12363214497E+03  0.58473553841E+03  0.59858409592E+03  0.00000000000E+00 0. -1.
         -5    1    5    5    0  502  0.32266464252E+02  0.90818274176E+02  0.58583709599E+03  0.59373081163E+03  0.47000000000E+01 0.  1.
         13    1    6    6    0    0 -0.36227839120E+02  0.44079981440E+02  0.57269067803E+03  0.57552594537E+03  0.00000000000E+00 0. -1.
        -14    1    6    6    0    0 -0.44374772656E+02 -0.21618474539E+02  0.21519324182E+03  0.22078181586E+03  0.00000000000E+00 0.  1.
<mgrwt>
<rscale>  2 0.21220381E+03</rscale>
<asrwt>0</asrwt>
<pdfrwt beam="1">  1       21 0.30599200E+00 0.21236244E+03</pdfrwt>
<pdfrwt beam="2">  1       21 0.40953916E-02 0.21236244E+03</pdfrwt>
<totfact> 0.11636478E+04</totfact>
</mgrwt>
</event>
<event>
12    1  0.1050690E-001  0.2544558E+03  0.7546771E-02  0.1110603E+00
         21   -1    0    0  501  502  0.00000000000E+00  0.00000000000E+00  0.19739570867E+03  0.19739570867E+03  0.00000000000E+00 0.  1.
         21   -1    0    0  502  503 -0.00000000000E+00 -0.00000000000E+00 -0.48065744916E+03  0.48065744916E+03  0.00000000000E+00 0. -1.
         -6    2    1    2    0  503 -0.17188216218E+03 -0.72193737218E+02 -0.33301516914E+03  0.41877889375E+03  0.17239850813E+03 0.  0.
        -24    2    3    3    0    0 -0.14407404861E+03 -0.11553757825E+03 -0.24435923600E+03  0.31614388892E+03  0.78289583045E+02 0.  0.
          6    2    1    2  501    0  0.17188216218E+03  0.72193737218E+02  0.49753428650E+02  0.25927426408E+03  0.17318292925E+03 0.  0.
         24    2    5    5    0    0  0.12436450538E+03  0.82723459104E+02 -0.23743550638E+02  0.17099800048E+03  0.79792600456E+02 0.  0.
          5    1    5    5  501    0  0.47517656799E+02 -0.10529721886E+02  0.73496979288E+02  0.88276263600E+02  0.47000000000E+01 0. -1.
        -13    1    6    6    0    0  0.39776907421E+02 -0.12608783635E+02 -0.26152795704E+01  0.41809370672E+02  0.00000000000E+00 0.  1.
         14    1    6    6    0    0  0.84587597959E+02  0.95332242739E+02 -0.21128271068E+02  0.12918862981E+03  0.00000000000E+00 0. -1.
         -5    1    3    3    0  503 -0.27808113572E+02  0.43343841033E+02 -0.88655933142E+02  0.10263500483E+03  0.47000000000E+01 0.  1.
         13    1    4    4    0    0 -0.12627871205E+03 -0.95617960743E+02 -0.24213398958E+03  0.28934058901E+03  0.00000000000E+00 0. -1.
        -14    1    4    4    0    0 -0.17795336553E+02 -0.19919617508E+02 -0.22252464158E+01  0.26803299914E+02  0.00000000000E+00 0.  1.
<mgrwt>
<rscale>  2 0.25432236E+03</rscale>
<asrwt>0</asrwt>
<pdfrwt beam="1">  1       21 0.30368571E-01 0.25445577E+03</pdfrwt>
<pdfrwt beam="2">  1       21 0.73947299E-01 0.25445577E+03</pdfrwt>
<totfact> 0.16487050E+04</totfact>
</mgrwt>
</event>
<event>
12    1  0.1050690E-001  0.1905109E+03  0.7546771E-02  0.1158292E+00
         21   -1    0    0  503  502  0.00000000000E+00  0.00000000000E+00  0.41898531825E+02  0.41898531825E+02  0.00000000000E+00 0. -1.
         21   -1    0    0  501  503 -0.00000000000E+00 -0.00000000000E+00 -0.27292584607E+04  0.27292584607E+04  0.00000000000E+00 0. -1.
          6    2    1    2  501    0 -0.12158224543E+02 -0.72861960936E+02 -0.24916827800E+04  0.24989552766E+04  0.17560669299E+03 0.  0.
         24    2    3    3    0    0 -0.62525014747E+02 -0.35116139058E+01 -0.14762300009E+04  0.14798808334E+04  0.82888821219E+02 0.  0.
         -6    2    1    2    0  502  0.12158224543E+02  0.72861960936E+02 -0.19567714892E+03  0.27220171595E+03  0.17420545279E+03 0.  0.
        -24    2    5    5    0    0  0.54442997203E+02  0.96171382836E+02 -0.10201183209E+03  0.16671895562E+03  0.71943182149E+02 0.  0.
          5    1    3    3  501    0  0.50366790204E+02 -0.69350347030E+02 -0.10154527791E+04  0.10190744432E+04  0.47000000000E+01 0. -1.
        -13    1    4    4    0    0 -0.36568022709E+02 -0.25475659200E+02 -0.31331447259E+03  0.31646830525E+03  0.00000000000E+00 0.  1.
         14    1    4    4    0    0 -0.25956992038E+02  0.21964045294E+02 -0.11629155283E+04  0.11634125281E+04  0.00000000000E+00 0. -1.
         -5    1    5    5    0  502 -0.42284772660E+02 -0.23309421900E+02 -0.93665316831E+02  0.10548276032E+03  0.47000000000E+01 0.  1.
         13    1    6    6    0    0 -0.98158620873E+01  0.47501017478E+02 -0.22415745815E+02  0.53433729707E+02  0.00000000000E+00 0. -1.
        -14    1    6    6    0    0  0.64258859290E+02  0.48670365358E+02 -0.79596086270E+02  0.11328522592E+03  0.00000000000E+00 0.  1.
<mgrwt>
<rscale>  2 0.19018736E+03</rscale>
<asrwt>0</asrwt>
<pdfrwt beam="1">  1       21 0.64459260E-02 0.19051089E+03</pdfrwt>
<pdfrwt beam="2">  1       21 0.41988605E+00 0.19051089E+03</pdfrwt>
<totfact> 0.11423676E+03</totfact>
</mgrwt>
</event>
<event>
12    1  0.1050690E-001  0.1743892E+03  0.7546771E-02  0.1173428E+00
         21   -1    0    0  501  502  0.00000000000E+00  0.00000000000E+00  0.21848870101E+03  0.21848870101E+03  0.00000000000E+00 0. -1.
         21   -1    0    0  502  503 -0.00000000000E+00 -0.00000000000E+00 -0.19255320203E+03  0.19255320203E+03  0.00000000000E+00 0. -1.
         -6    2    1    2    0  503  0.22190587226E+02  0.20886140965E+02 -0.95494458455E+02  0.19854056169E+03  0.17137826582E+03 0.  0.
        -24    2    3    3    0    0  0.28206417519E+02 -0.52144925871E+01  0.10619491239E+02  0.88997448696E+02  0.83576188942E+02 0.  0.
          6    2    1    2  501    0 -0.22190587226E+02 -0.20886140965E+02  0.12142995743E+03  0.21250134134E+03  0.17170594766E+03 0.  0.
         24    2    5    5    0    0 -0.23930683135E+02 -0.73457604451E+02  0.46424638579E+02  0.12076980607E+03  0.80382844829E+02 0.  0.
          5    1    5    5  501    0  0.17400959089E+01  0.52571463486E+02  0.75005318855E+02  0.91731535272E+02  0.47000000000E+01 0. -1.
        -13    1    6    6    0    0  0.14630597628E+02 -0.64254999385E+02  0.47297469263E+02  0.81116027588E+02  0.00000000000E+00 0.  1.
         14    1    6    6    0    0 -0.38561280763E+02 -0.92026050659E+01 -0.87283068473E+00  0.39653778477E+02  0.00000000000E+00 0. -1.
         -5    1    3    3    0  503 -0.60158302932E+01  0.26100633552E+02 -0.10611394969E+03  0.10954311300E+03  0.47000000000E+01 0.  1.
         11    1    4    4    0    0  0.18803838084E+02 -0.41606458173E+02  0.20626331152E+02  0.50101169898E+02  0.00000000000E+00 0. -1.
        -12    1    4    4    0    0  0.94025794350E+01  0.36391965586E+02 -0.10006839913E+02  0.38896278798E+02  0.00000000000E+00 0.  1.
<mgrwt>
<rscale>  2 0.17430846E+03</rscale>
<asrwt>0</asrwt>
<pdfrwt beam="1">  1       21 0.33613646E-01 0.17438918E+03</pdfrwt>
<pdfrwt beam="2">  1       21 0.29623570E-01 0.17438918E+03</pdfrwt>
<totfact> 0.93768877E+04</totfact>
</mgrwt>
</event>
<event>
12    1  0.1050690E-001  0.2259284E+03  0.7546771E-02  0.1130043E+00
         21   -1    0    0  501  502  0.00000000000E+00  0.00000000000E+00  0.71557723149E+02  0.71557723149E+02  0.00000000000E+00 0.  1.
         21   -1    0    0  502  503 -0.00000000000E+00 -0.00000000000E+00 -0.99319265734E+03  0.99319265734E+03  0.00000000000E+00 0. -1.
         -6    2    1    2    0  503 -0.28740764289E+02  0.14212058454E+03 -0.74578183761E+03  0.77844995387E+03  0.16961571063E+03 0.  0.
        -24    2    3    3    0    0  0.10389680991E+02  0.15490202534E+03 -0.52504323712E+03  0.55385659528E+03  0.83571193411E+02 0.  0.
          6    2    1    2  501    0  0.28740764289E+02 -0.14212058454E+03 -0.17585309658E+03  0.28630042662E+03  0.17326087447E+03 0.  0.
         24    2    5    5    0    0 -0.14583845512E+02 -0.15584856963E+03 -0.16013200070E+03  0.23798146300E+03  0.80569559246E+02 0.  0.
          5    1    5    5  501    0  0.43324609802E+02  0.13727985090E+02 -0.15721095878E+02  0.48318963614E+02  0.47000000000E+01 0. -1.
        -13    1    6    6    0    0 -0.33730827375E+01 -0.57335515981E+02 -0.10355064878E+02  0.58360658397E+02  0.00000000000E+00 0.  1.
         14    1    6    6    0    0 -0.11210762775E+02 -0.98513053652E+02 -0.14977693583E+03  0.17962080461E+03  0.00000000000E+00 0. -1.
         -5    1    3    3    0  503 -0.39130445280E+02 -0.12781440793E+02 -0.22073860049E+03  0.22459335859E+03  0.47000000000E+01 0.  1.
         11    1    4    4    0    0  0.27492733940E+02  0.58976082831E+02 -0.32369801156E+03  0.33017333547E+03  0.00000000000E+00 0. -1.
        -12    1    4    4    0    0 -0.17103052949E+02  0.95925942505E+02 -0.20134522556E+03  0.22368325981E+03  0.00000000000E+00 0.  1.
<mgrwt>
<rscale>  2 0.22522933E+03</rscale>
<asrwt>0</asrwt>
<pdfrwt beam="1">  1       21 0.11008881E-01 0.22592836E+03</pdfrwt>
<pdfrwt beam="2">  1       21 0.15279886E+00 0.22592836E+03</pdfrwt>
<totfact> 0.19061720E+04</totfact>
</mgrwt>
</event>
<event>
12    1  0.1050690E-001  0.1958862E+03  0.7546771E-02  0.1156733E+00
         21   -1    0    0  503  502  0.00000000000E+00  0.00000000000E+00  0.98029630737E+02  0.98029630737E+02  0.00000000000E+00 0. -1.
         21   -1    0    0  501  503 -0.00000000000E+00 -0.00000000000E+00 -0.36597966985E+03  0.36597966985E+03  0.00000000000E+00 0. -1.
          6    2    1    2  501    0 -0.16606821687E+02 -0.43332648739E+02 -0.15468097067E+03  0.23773226787E+03  0.17446181109E+03 0.  0.
         24    2    3    3    0    0  0.44319918176E+02 -0.34936750434E+01 -0.30831059374E+02  0.93996044244E+02  0.76865084394E+02 0.  0.
         -6    2    1    2    0  502  0.16606821687E+02  0.43332648739E+02 -0.11326906844E+03  0.22627703271E+03  0.19031003309E+03 0.  0.
        -24    2    5    5    0    0 -0.13730720291E+02 -0.23191990427E+02 -0.12629890391E+03  0.15186090085E+03  0.79899430398E+02 0.  0.
          5    1    3    3  501    0 -0.60926739864E+02 -0.39838973696E+02 -0.12384991129E+03  0.14373622363E+03  0.47000000000E+01 0. -1.
        -13    1    4    4    0    0  0.10945657837E+02  0.33634520531E+02 -0.25880217960E+02  0.43827777476E+02  0.00000000000E+00 0.  1.
         14    1    4    4    0    0  0.33374260340E+02 -0.37128195574E+02 -0.49508414133E+01  0.50168266768E+02  0.00000000000E+00 0. -1.
         -5    1    5    5    0  502  0.30337541978E+02  0.66524639166E+02  0.13029835465E+02  0.74416131865E+02  0.47000000000E+01 0.  1.
         13    1    6    6    0    0 -0.35212584951E+02  0.79683296869E+01 -0.25526639477E+02  0.44215718245E+02  0.00000000000E+00 0. -1.
        -14    1    6    6    0    0  0.21481864660E+02 -0.31160320114E+02 -0.10077226443E+03  0.10764518260E+03  0.00000000000E+00 0.  1.
<mgrwt>
<rscale>  2 0.19192837E+03</rscale>
<asrwt>0</asrwt>
<pdfrwt beam="1">  1       21 0.15081482E-01 0.19588623E+03</pdfrwt>
<pdfrwt beam="2">  1       21 0.56304565E-01 0.19588623E+03</pdfrwt>
<totfact> 0.11514471E+05</totfact>
</mgrwt>
</event>
<event>
12    1  0.1050690E-001  0.2018306E+03  0.7546771E-02  0.1148218E+00
         21   -1    0    0  503  502  0.00000000000E+00  0.00000000000E+00  0.30584161015E+02  0.30584161015E+02  0.00000000000E+00 0.  1.
         21   -1    0    0  501  503 -0.00000000000E+00 -0.00000000000E+00 -0.14080716825E+04  0.14080716825E+04  0.00000000000E+00 0.  1.
          6    2    1    2  501    0 -0.98233536857E+02  0.29571228415E+02 -0.85665156912E+03  0.88010653890E+03  0.17381404898E+03 0.  0.
         24    2    3    3    0    0  0.11799293277E+02  0.33088208566E+02 -0.30308442447E+03  0.31567915960E+03  0.80988336114E+02 0.  0.
         -6    2    1    2    0  502  0.98233536857E+02 -0.29571228415E+02 -0.52083595239E+03  0.55854930465E+03  0.17373241235E+03 0.  0.
        -24    2    5    5    0    0  0.13463941189E+03 -0.35998752627E+02 -0.37560918002E+03  0.40861729932E+03  0.80387559781E+02 0.  0.
          5    1    3    3  501    0 -0.11003283013E+03 -0.35169801506E+01 -0.55356714465E+03  0.56442737929E+03  0.47000000000E+01 0. -1.
        -11    1    4    4    0    0 -0.34958754798E+01  0.49505251974E+02 -0.10291679802E+03  0.11425785939E+03  0.00000000000E+00 0.  1.
         12    1    4    4    0    0  0.15295168756E+02 -0.16417043408E+02 -0.20016762645E+03  0.20142130021E+03  0.00000000000E+00 0. -1.
         -5    1    5    5    0  502 -0.36405875037E+02  0.64275242115E+01 -0.14522677238E+03  0.14993200532E+03  0.47000000000E+01 0.  1.
         11    1    6    6    0    0 -0.85260813245E+01 -0.10848755813E+02 -0.18668892726E+02  0.23214588540E+02  0.00000000000E+00 0. -1.
        -12    1    6    6    0    0  0.14316549322E+03 -0.25149996813E+02 -0.35694028729E+03  0.38540271078E+03  0.00000000000E+00 0.  1.
<mgrwt>
<rscale>  2 0.20181307E+03</rscale>
<asrwt>0</asrwt>
<pdfrwt beam="1">  1       21 0.47052555E-02 0.20183064E+03</pdfrwt>
<pdfrwt beam="2">  1       21 0.21662641E+00 0.20183064E+03</pdfrwt>
<totfact> 0.31247336E+04</totfact>
</mgrwt>
</event>
<event>
12    1  0.1050690E-001  0.1789653E+03  0.7546771E-02  0.1168970E+00
         21   -1    0    0  501  502  0.00000000000E+00  0.00000000000E+00  0.46993928398E+03  0.46993928398E+03  0.00000000000E+00 0.  1.
         21   -1    0    0  502  503 -0.00000000000E+00 -0.00000000000E+00 -0.18738235311E+03  0.18738235311E+03  0.00000000000E+00 0.  1.
         -6    2    1    2    0  503 -0.35882625659E+02 -0.29830038504E+02 -0.12106631136E+03  0.21606854550E+03  0.17277491307E+03 0.  0.
        -24    2    3    3    0    0 -0.70778564869E+02 -0.57980664550E+02 -0.12228978691E+03  0.17097119288E+03  0.76843959477E+02 0.  0.
          6    2    1    2  501    0  0.35882625659E+02  0.29830038504E+02  0.40362324223E+03  0.44125309160E+03  0.17209060160E+03 0.  0.
         24    2    5    5    0    0 -0.11715338215E+01  0.32598309897E+02  0.89739299459E+02  0.12514251982E+03  0.80891817264E+02 0.  0.
          5    1    5    5  501    0  0.37054159481E+02 -0.27682713930E+01  0.31388394277E+03  0.31611057178E+03  0.47000000000E+01 0. -1.
        -13    1    6    6    0    0  0.66543164799E-01 -0.26874626330E+02  0.20127104734E+02  0.33576037785E+02  0.00000000000E+00 0.  1.
         14    1    6    6    0    0 -0.12380769863E+01  0.59472936227E+02  0.69612194725E+02  0.91566482037E+02  0.00000000000E+00 0. -1.
         -5    1    3    3    0  503  0.34895939210E+02  0.28150626045E+02  0.12234755512E+01  0.45097352611E+02  0.47000000000E+01 0.  1.
         13    1    4    4    0    0 -0.11887144731E+02  0.13698486067E+01  0.92386882666E+01  0.15117342887E+02  0.00000000000E+00 0. -1.
        -14    1    4    4    0    0 -0.58891420138E+02 -0.59350513156E+02 -0.13152847517E+03  0.15585385000E+03  0.00000000000E+00 0.  1.
<mgrwt>
<rscale>  2 0.17879989E+03</rscale>
<asrwt>0</asrwt>
<pdfrwt beam="1">  1       21 0.72298351E-01 0.17896526E+03</pdfrwt>
<pdfrwt beam="2">  1       21 0.28828054E-01 0.17896526E+03</pdfrwt>
<totfact> 0.20029465E+04</totfact>
</mgrwt>
</event>
<event>
12    1  0.1050690E-001  0.2186111E+03  0.7546771E-02  0.1134962E+00
         21   -1    0    0  503  502  0.00000000000E+00  0.00000000000E+00  0.37090472095E+03  0.37090472095E+03  0.00000000000E+00 0. -1.
         21   -1    0    0  501  503 -0.00000000000E+00 -0.00000000000E+00 -0.15345066372E+03  0.15345066372E+03  0.00000000000E+00 0.  1.
          6    2    1    2  501    0  0.56889048343E+02 -0.12162014758E+03  0.21400555611E+03  0.30592347796E+03  0.17251948354E+03 0.  0.
         24    2    3    3    0    0 -0.21560035240E+02 -0.11151281516E+03  0.96349665790E+02  0.16407350295E+03  0.68825236702E+02 0.  0.
         -6    2    1    2    0  502 -0.56889048343E+02  0.12162014758E+03  0.34485011108E+01  0.21843190671E+03  0.17225789268E+03 0.  0.
        -24    2    5    5    0    0 -0.53193040928E+02  0.11669180050E+00  0.76388371799E+01  0.96709274659E+02  0.80404096608E+02 0.  0.
          5    1    3    3  501    0  0.78449083584E+02 -0.10107332423E+02  0.11765589032E+03  0.14184997501E+03  0.47000000000E+01 0. -1.
        -13    1    4    4    0    0  0.43150371650E+01 -0.99275627461E+02  0.91427348326E+02  0.13503047721E+03  0.00000000000E+00 0.  1.
         14    1    4    4    0    0 -0.25875072405E+02 -0.12237187696E+02  0.49223174641E+01  0.29043025736E+02  0.00000000000E+00 0. -1.
         -5    1    5    5    0  502 -0.36960074155E+01  0.12150345578E+03 -0.41903360691E+01  0.12172263205E+03  0.47000000000E+01 0.  1.
         11    1    6    6    0    0 -0.64470680028E+02  0.22567604482E+02  0.16137046575E+02  0.70186676995E+02  0.00000000000E+00 0. -1.
        -12    1    6    6    0    0  0.11277639100E+02 -0.22450912682E+02 -0.84982093956E+01  0.26522597664E+02  0.00000000000E+00 0.  1.
<mgrwt>
<rscale>  2 0.21855945E+03</rscale>
<asrwt>0</asrwt>
<pdfrwt beam="1">  1       21 0.57062265E-01 0.21861106E+03</pdfrwt>
<pdfrwt beam="2">  1       21 0.23607794E-01 0.21861106E+03</pdfrwt>
<totfact> 0.48125726E+04</totfact>
</mgrwt>
</event>
<event>
12    1  0.1050690E-001  0.1834052E+03  0.7546771E-02  0.1165369E+00
         21   -1    0    0  503  502  0.00000000000E+00  0.00000000000E+00  0.39053659553E+02  0.39053659553E+02  0.00000000000E+00 0. -1.
         21   -1    0    0  501  503 -0.00000000000E+00 -0.00000000000E+00 -0.87613417343E+03  0.87613417343E+03  0.00000000000E+00 0.  1.
          6    2    1    2  501    0  0.21008610874E+02  0.58465201152E+02 -0.33640825376E+03  0.38315529617E+03  0.17256281844E+03 0.  0.
         24    2    3    3    0    0  0.43571019161E+02  0.43142079269E+02 -0.33879262309E+03  0.35537696740E+03  0.88049274758E+02 0.  0.
         -6    2    1    2    0  502 -0.21008610874E+02 -0.58465201152E+02 -0.50067226011E+03  0.53203253681E+03  0.16889750353E+03 0.  0.
        -24    2    5    5    0    0  0.75687262182E+01  0.31365538860E+01 -0.11313922884E+03  0.13856667966E+03  0.79580877233E+02 0.  0.
          5    1    3    3  501    0 -0.22562408286E+02  0.15323121882E+02  0.23843693327E+01  0.27778328766E+02  0.47000000000E+01 0. -1.
        -13    1    4    4    0    0 -0.21865228075E+02 -0.10402042049E+01 -0.13610363474E+03  0.13785270985E+03  0.00000000000E+00 0.  1.
         14    1    4    4    0    0  0.65436247235E+02  0.44182283474E+02 -0.20268898835E+03  0.21752425755E+03  0.00000000000E+00 0. -1.
         -5    1    5    5    0  502 -0.28577337093E+02 -0.61601755038E+02 -0.38753303127E+03  0.39346585715E+03  0.47000000000E+01 0.  1.
         13    1    6    6    0    0 -0.10603817939E+02 -0.27048955811E+02 -0.94172788537E+02  0.98552529476E+02  0.00000000000E+00 0. -1.
        -14    1    6    6    0    0  0.18172544157E+02  0.30185509697E+02 -0.18966440306E+02  0.40014150181E+02  0.00000000000E+00 0.  1.
<mgrwt>
<rscale>  2 0.18253798E+03</rscale>
<asrwt>0</asrwt>
<pdfrwt beam="1">  1       21 0.60082558E-02 0.18340520E+03</pdfrwt>
<pdfrwt beam="2">  1       21 0.13478986E+00 0.18340520E+03</pdfrwt>
<totfact> 0.77929792E+04</totfact>
</mgrwt>
</event>
<event>
12    1  0.1050690E-001  0.2351844E+03  0.7546771E-02  0.1123072E+00
         21   -1    0    0  503  502  0.00000000000E+00  0.00000000000E+00  0.66234527872E+02  0.66234527872E+02  0.00000000000E+00 0.  1.
         21   -1    0    0  501  503 -0.00000000000E+00 -0.00000000000E+00 -0.14147278200E+04  0.14147278200E+04  0.00000000000E+00 0. -1.
          6    2    1    2  501    0  0.96732852142E+02  0.12701536714E+03 -0.11486134838E+04  0.11724438828E+04  0.17268924398E+03 0.  0.
         24    2    3    3    0    0  0.93110697714E+02  0.25041462405E+02 -0.48663725086E+03  0.50263314817E+03  0.80793507471E+02 0.  0.
         -6    2    1    2    0  502 -0.96732852142E+02 -0.12701536714E+03 -0.19987980831E+03  0.30851846505E+03  0.17245740730E+03 0.  0.
        -24    2    5    5    0    0 -0.19138142055E+01 -0.59378018227E+02 -0.34605614183E+02  0.10627329164E+03  0.81037350955E+02 0.  0.
          5    1    3    3  501    0  0.36221544282E+01  0.10197390473E+03 -0.66197623298E+03  0.66981073467E+03  0.47000000000E+01 0. -1.
        -11    1    4    4    0    0 -0.15032715714E+02  0.42275366465E+01 -0.55881426981E+02  0.58022310272E+02  0.00000000000E+00 0.  1.
         12    1    4    4    0    0  0.10814341343E+03  0.20813925759E+02 -0.43075582388E+03  0.44461083790E+03  0.00000000000E+00 0. -1.
         -5    1    5    5    0  502 -0.94819037937E+02 -0.67637348913E+02 -0.16527419413E+03  0.20224517341E+03  0.47000000000E+01 0.  1.
         11    1    6    6    0    0  0.31373847682E+02 -0.45001837401E+02 -0.42218368370E+02  0.69223365388E+02  0.00000000000E+00 0. -1.
        -12    1    6    6    0    0 -0.33287661887E+02 -0.14376180826E+02  0.76127541865E+01  0.37049926253E+02  0.00000000000E+00 0.  1.
<mgrwt>
<rscale>  2 0.23514189E+03</rscale>
<asrwt>0</asrwt>
<pdfrwt beam="1">  1       21 0.10189927E-01 0.23518444E+03</pdfrwt>
<pdfrwt beam="2">  1       21 0.21765044E+00 0.23518444E+03</pdfrwt>
<totfact> 0.78756324E+03</totfact>
</mgrwt>
</event>
<event>
12    1  0.1050690E-001  0.1803892E+03  0.7546771E-02  0.1168123E+00
         21   -1    0    0  501  502  0.00000000000E+00  0.00000000000E+00  0.48741157026E+03  0.48741157026E+03  0.00000000000E+00 0. -1.
         21   -1    0    0  502  503 -0.00000000000E+00 -0.00000000000E+00 -0.14098963987E+03  0.14098963987E+03  0.00000000000E+00 0. -1.
         -6    2    1    2    0  503  0.87256346356E+01 -0.41506547441E+02 -0.55735242676E+02  0.18880326718E+03  0.17533204568E+03 0.  0.
        -24    2    3    3    0    0 -0.11219629062E+01 -0.52206209920E+00  0.35774206981E+02  0.87943103628E+02  0.80328477148E+02 0.  0.
          6    2    1    2  501    0 -0.87256346356E+01  0.41506547441E+02  0.40215717306E+03  0.43959794295E+03  0.17238627967E+03 0.  0.
         24    2    5    5    0    0 -0.23758717834E+02 -0.40433460578E+02  0.22567299838E+03  0.24438290148E+03  0.81211815200E+02 0.  0.
          5    1    5    5  501    0  0.15033083199E+02  0.81940008019E+02  0.17648417467E+03  0.19521504147E+03  0.47000000000E+01 0. -1.
        -13    1    6    6    0    0  0.15945899494E+02  0.12705154737E+02  0.21173547219E+02  0.29394077115E+02  0.00000000000E+00 0.  1.
         14    1    6    6    0    0 -0.39704617328E+02 -0.53138615315E+02  0.20449945116E+03  0.21498882436E+03  0.00000000000E+00 0. -1.
         -5    1    3    3    0  503  0.98475975419E+01 -0.40984485341E+02 -0.91509449658E+02  0.10086016356E+03  0.47000000000E+01 0.  1.
         13    1    4    4    0    0 -0.17772926807E+02  0.85438750828E+01 -0.20569442645E+02  0.28495204850E+02  0.00000000000E+00 0. -1.
        -14    1    4    4    0    0  0.16650963901E+02 -0.90659371820E+01  0.56343649626E+02  0.59447898777E+02  0.00000000000E+00 0.  1.
<mgrwt>
<rscale>  2 0.17966943E+03</rscale>
<asrwt>0</asrwt>
<pdfrwt beam="1">  1       21 0.74986395E-01 0.18038918E+03</pdfrwt>
<pdfrwt beam="2">  1       21 0.21690714E-01 0.18038918E+03</pdfrwt>
<totfact> 0.31742584E+04</totfact>
</mgrwt>
</event>
<event>
12    1  0.1050690E-001  0.1987655E+03  0.7546771E-02  0.1150797E+00
         21   -1    0    0  501  502  0.00000000000E+00  0.00000000000E+00  0.26196464032E+03  0.26196464032E+03  0.00000000000E+00 0.  1.
         21   -1    0    0  502  503 -0.00000000000E+00 -0.00000000000E+00 -0.18389450429E+03  0.18389450429E+03  0.00000000000E+00 0.  1.
         -6    2    1    2    0  503 -0.37298897232E+02  0.87911382961E+02 -0.55574891474E+02  0.20638870535E+03  0.17432185791E+03 0.  0.
        -24    2    3    3    0    0 -0.16747772278E+02 -0.24224796366E+02 -0.25200634748E+02  0.88314335047E+02  0.79353772109E+02 0.  0.
          6    2    1    2  501    0  0.37298897232E+02 -0.87911382961E+02  0.13364502751E+03  0.23947043926E+03  0.17425693361E+03 0.  0.
         24    2    5    5    0    0  0.72134179903E+02 -0.71299065628E+02  0.14838663279E+03  0.19789074551E+03  0.82796483605E+02 0.  0.
          5    1    5    5  501    0 -0.34835282671E+02 -0.16612317333E+02 -0.14741605282E+02  0.41579693749E+02  0.47000000000E+01 0. -1.
        -11    1    6    6    0    0  0.32253942984E+02 -0.80544421178E+02  0.11997444341E+03  0.14805940596E+03  0.00000000000E+00 0.  1.
         12    1    6    6    0    0  0.39880236919E+02  0.92453555506E+01  0.28412189375E+02  0.49831339547E+02  0.00000000000E+00 0. -1.
         -5    1    3    3    0  503 -0.20551124954E+02  0.11213617933E+03 -0.30374256727E+02  0.11807437030E+03  0.47000000000E+01 0.  1.
         13    1    4    4    0    0  0.26501209041E+02 -0.82685715503E+01  0.10836790679E+02  0.29801331989E+02  0.00000000000E+00 0. -1.
        -14    1    4    4    0    0 -0.43248981318E+02 -0.15956224816E+02 -0.36037425427E+02  0.58513003058E+02  0.00000000000E+00 0.  1.
<mgrwt>
<rscale>  2 0.19875128E+03</rscale>
<asrwt>0</asrwt>
<pdfrwt beam="1">  1       21 0.40302253E-01 0.19876551E+03</pdfrwt>
<pdfrwt beam="2">  1       21 0.28291462E-01 0.19876551E+03</pdfrwt>
<totfact> 0.70653348E+04</totfact>
</mgrwt>
</event>
<event>
12    1  0.1050690E-001  0.3646918E+03  0.7546771E-02  0.1056840E+00
         21   -1    0    0  503  502  0.00000000000E+00  0.00000000000E+00  0.16859722140E+04  0.16859722140E+04  0.00000000000E+00 0.  1.
         21   -1    0    0  501  503 -0.00000000000E+00 -0.00000000000E+00 -0.20382516771E+03  0.20382516771E+03  0.00000000000E+00 0.  1.
          6    2    1    2  501    0  0.11175587375E+02 -0.32102251070E+03  0.24753542513E+00  0.36368261712E+03  0.17054219008E+03 0.  0.
         24    2    3    3    0    0  0.66622330521E+02 -0.24947609699E+03 -0.17418839495E+02  0.27133857864E+03  0.81512884854E+02 0.  0.
         -6    2    1    2    0  502 -0.11175587375E+02  0.32102251070E+03  0.14818995109E+04  0.15261147646E+04  0.17268401271E+03 0.  0.
        -24    2    5    5    0    0  0.31602293687E+01  0.70508256376E+02  0.31012623310E+03  0.32776689699E+03  0.79192531487E+02 0.  0.
          5    1    3    3  501    0 -0.55446743147E+02 -0.71546413710E+02  0.17666374920E+02  0.92344038482E+02  0.47000000000E+01 0. -1.
        -13    1    4    4    0    0  0.61818233663E+01 -0.10576215028E+03  0.26805774590E+02  0.10928127435E+03  0.00000000000E+00 0.  1.
         14    1    4    4    0    0  0.60440507155E+02 -0.14371394671E+03 -0.44224614084E+02  0.16205730429E+03  0.00000000000E+00 0. -1.
         -5    1    5    5    0  502 -0.14335816743E+02  0.25051425432E+03  0.11717732778E+04  0.11983478676E+04  0.47000000000E+01 0.  1.
         13    1    6    6    0    0  0.23762662115E+02 -0.16741198335E+01  0.33297290938E+02  0.40941133007E+02  0.00000000000E+00 0. -1.
        -14    1    6    6    0    0 -0.20602432747E+02  0.72182376210E+02  0.27682894216E+03  0.28682576399E+03  0.00000000000E+00 0.  1.
<mgrwt>
<rscale>  2 0.36443923E+03</rscale>
<asrwt>0</asrwt>
<pdfrwt beam="1">  1       21 0.25938033E+00 0.36469181E+03</pdfrwt>
<pdfrwt beam="2">  1       21 0.31357719E-01 0.36469181E+03</pdfrwt>
<totfact> 0.48659408E+02</totfact>
</mgrwt>
</event>
<event>
12    1  0.1050690E-001  0.2190164E+03  0.7546771E-02  0.1134888E+00
         21   -1    0    0  503  502  0.00000000000E+00  0.00000000000E+00  0.42105791872E+03  0.42105791872E+03  0.00000000000E+00 0.  1.
         21   -1    0    0  501  503 -0.00000000000E+00 -0.00000000000E+00 -0.18711339742E+03  0.18711339742E+03  0.00000000000E+00 0. -1.
          6    2    1    2  501    0  0.13408881951E+03 -0.81852889209E+01 -0.73941296563E+02  0.23116116535E+03  0.17297791349E+03 0.  0.
         24    2    3    3    0    0  0.48067319379E+02 -0.49276118486E+02  0.60012872541E+01  0.10665790649E+03  0.81248326279E+02 0.  0.
         -6    2    1    2    0  502 -0.13408881951E+03  0.81852889209E+01  0.30788581786E+03  0.37701015078E+03  0.17116122949E+03 0.  0.
        -24    2    5    5    0    0 -0.10790588551E+03  0.68140924534E+02  0.16911215326E+03  0.22351603278E+03  0.71229423723E+02 0.  0.
          5    1    3    3  501    0  0.86021500132E+02  0.41090829565E+02 -0.79942583817E+02  0.12450325886E+03  0.47000000000E+01 0. -1.
        -13    1    4    4    0    0  0.67319722019E+01  0.16894544572E+02  0.20389778874E+02  0.27321935666E+02  0.00000000000E+00 0.  1.
         14    1    4    4    0    0  0.41335347177E+02 -0.66170663057E+02 -0.14388491620E+02  0.79335970825E+02  0.00000000000E+00 0. -1.
         -5    1    5    5    0  502 -0.26182933996E+02 -0.59955635613E+02  0.13877366461E+03  0.15349411801E+03  0.47000000000E+01 0.  1.
         13    1    6    6    0    0 -0.93329796860E+02  0.55348750751E+02  0.86810710502E+02  0.13896055069E+03  0.00000000000E+00 0. -1.
        -14    1    6    6    0    0 -0.14576088655E+02  0.12792173783E+02  0.82301442754E+02  0.84555482081E+02  0.00000000000E+00 0.  1.
<mgrwt>
<rscale>  2 0.21865750E+03</rscale>
<asrwt>0</asrwt>
<pdfrwt beam="1">  1       21 0.64778141E-01 0.21901637E+03</pdfrwt>
<pdfrwt beam="2">  1       21 0.28786677E-01 0.21901637E+03</pdfrwt>
<totfact> 0.24982697E+04</totfact>
</mgrwt>
</event>
<event>
12    1  0.1050690E-001  0.1873288E+03  0.7546771E-02  0.1161671E+00
         21   -1    0    0  501  502  0.00000000000E+00  0.00000000000E+00  0.70678428992E+03  0.70678428992E+03  0.00000000000E+00 0. -1.
         21   -1    0    0  502  503 -0.00000000000E+00 -0.00000000000E+00 -0.62140773248E+02  0.62140773248E+02  0.00000000000E+00 0. -1.
         -6    2    1    2    0  503  0.60815780882E+02  0.34067885194E+02  0.14624308627E+03  0.23765336128E+03  0.17387610486E+03 0.  0.
        -24    2    3    3    0    0  0.19360286561E+02 -0.23446321799E+02  0.13407341765E+02  0.87008523887E+02  0.80412534559E+02 0.  0.
          6    2    1    2  501    0 -0.60815780882E+02 -0.34067885194E+02  0.49840043040E+03  0.53127170189E+03  0.17025701805E+03 0.  0.
         24    2    5    5    0    0 -0.19897873864E+02  0.19648907523E+02  0.11493398406E+03  0.14187681953E+03  0.78340323445E+02 0.  0.
          5    1    5    5  501    0 -0.40917907018E+02 -0.53716792717E+02  0.38346644634E+03  0.38939488236E+03  0.47000000000E+01 0. -1.
        -13    1    6    6    0    0 -0.36762841916E+02 -0.16558880070E+02  0.76345576945E+02  0.86338578712E+02  0.00000000000E+00 0.  1.
         14    1    6    6    0    0  0.16864968052E+02  0.36207787593E+02  0.38588407116E+02  0.55538240821E+02  0.00000000000E+00 0. -1.
         -5    1    3    3    0  503  0.41455494321E+02  0.57514206992E+02  0.13283574451E+03  0.15064483739E+03  0.47000000000E+01 0.  1.
         11    1    4    4    0    0 -0.28130140833E+02 -0.23088895146E+01 -0.10074464347E+02  0.29968827571E+02  0.00000000000E+00 0. -1.
        -12    1    4    4    0    0  0.47490427394E+02 -0.21137432284E+02  0.23481806113E+02  0.57039696317E+02  0.00000000000E+00 0.  1.
<mgrwt>
<rscale>  2 0.18648455E+03</rscale>
<asrwt>0</asrwt>
<pdfrwt beam="1">  1       21 0.10873604E+00 0.18732880E+03</pdfrwt>
<pdfrwt beam="2">  1       21 0.95601194E-02 0.18732880E+03</pdfrwt>
<totfact> 0.59150811E+04</totfact>
</mgrwt>
</event>
<event>
12    1  0.1050690E-001  0.1837463E+03  0.7546771E-02  0.1164415E+00
         21   -1    0    0  503  502  0.00000000000E+00  0.00000000000E+00  0.18274799572E+03  0.18274799572E+03  0.00000000000E+00 0.  1.
         21   -1    0    0  501  503 -0.00000000000E+00 -0.00000000000E+00 -0.26936654353E+03  0.26936654353E+03  0.00000000000E+00 0.  1.
          6    2    1    2  501    0  0.38456981445E+02 -0.49947870023E+02 -0.17067302404E+03  0.25078275908E+03  0.17259484922E+03 0.  0.
         24    2    3    3    0    0  0.80360968228E+02 -0.49761829700E+02 -0.71796411756E+02  0.14329018643E+03  0.80269719556E+02 0.  0.
         -6    2    1    2    0  502 -0.38456981445E+02  0.49947870023E+02  0.84054476231E+02  0.20133178016E+03  0.17174283562E+03 0.  0.
        -24    2    5    5    0    0  0.16948030832E+02  0.67280720915E+01  0.12735432365E+02  0.10110123424E+03  0.98624366275E+02 0.  0.
          5    1    3    3  501    0 -0.41903986782E+02 -0.18604032309E+00 -0.98876612279E+02  0.10749257265E+03  0.47000000000E+01 0. -1.
        -13    1    4    4    0    0  0.39107970459E+02  0.19144135998E+02 -0.28656768889E+02  0.52126209336E+02  0.00000000000E+00 0.  1.
         14    1    4    4    0    0  0.41252997768E+02 -0.68905965698E+02 -0.43139642867E+02  0.91163977098E+02  0.00000000000E+00 0. -1.
         -5    1    5    5    0  502 -0.55405012277E+02  0.43219797932E+02  0.71319043866E+02  0.10023054593E+03  0.47000000000E+01 0.  1.
         13    1    6    6    0    0 -0.74206086653E+01  0.20955188084E+02  0.49789034887E+02  0.54526446203E+02  0.00000000000E+00 0. -1.
        -14    1    6    6    0    0  0.24368639497E+02 -0.14227115993E+02 -0.37053602521E+02  0.46574788032E+02  0.00000000000E+00 0.  1.
<mgrwt>
<rscale>  2 0.18354598E+03</rscale>
<asrwt>0</asrwt>
<pdfrwt beam="1">  1       21 0.28115076E-01 0.18374632E+03</pdfrwt>
<pdfrwt beam="2">  1       21 0.41441007E-01 0.18374632E+03</pdfrwt>
<totfact> 0.68028817E+04</totfact>
</mgrwt>
</event>
<event>
12    1  0.1050690E-001  0.2552129E+03  0.7546771E-02  0.1110201E+00
         21   -1    0    0  503  502  0.00000000000E+00  0.00000000000E+00  0.61734792547E+02  0.61734792547E+02  0.00000000000E+00 0.  1.
         21   -1    0    0  501  503 -0.00000000000E+00 -0.00000000000E+00 -0.11072691974E+04  0.11072691974E+04  0.00000000000E+00 0. -1.
          6    2    1    2  501    0  0.15884525264E+03  0.99869130411E+02 -0.39021908164E+03  0.46574599695E+03  0.17158888225E+03 0.  0.
         24    2    3    3    0    0  0.11135537505E+03  0.12659466727E+03 -0.22947263359E+03  0.29594890230E+03  0.80633949874E+02 0.  0.
         -6    2    1    2    0  502 -0.15884525264E+03 -0.99869130411E+02 -0.65531532326E+03  0.70325799304E+03  0.17299703576E+03 0.  0.
        -24    2    5    5    0    0 -0.85474717363E+02 -0.47382106157E+01 -0.19713039182E+03  0.22956120316E+03  0.80681947592E+02 0.  0.
          5    1    3    3  501    0  0.47489877588E+02 -0.26725536855E+02 -0.16074644805E+03  0.16979709466E+03  0.47000000000E+01 0. -1.
        -11    1    4    4    0    0  0.10643656676E+03  0.64250666753E+02 -0.15503875181E+03  0.19873073614E+03  0.00000000000E+00 0.  1.
         12    1    4    4    0    0  0.49188082840E+01  0.62344000513E+02 -0.74433881780E+02  0.97218166161E+02  0.00000000000E+00 0. -1.
         -5    1    5    5    0  502 -0.73370535272E+02 -0.95130919795E+02 -0.45818493144E+03  0.47369678988E+03  0.47000000000E+01 0.  1.
         11    1    6    6    0    0 -0.93561246723E+02 -0.56228563172E+01 -0.20004926765E+03  0.22091861146E+03  0.00000000000E+00 0. -1.
        -12    1    6    6    0    0  0.80865293607E+01  0.88464570152E+00  0.29188758305E+01  0.86425916965E+01  0.00000000000E+00 0.  1.
<mgrwt>
<rscale>  2 0.25497448E+03</rscale>
<asrwt>0</asrwt>
<pdfrwt beam="1">  1       21 0.94976617E-02 0.25521291E+03</pdfrwt>
<pdfrwt beam="2">  1       21 0.17034908E+00 0.25521291E+03</pdfrwt>
<totfact> 0.18113720E+04</totfact>
</mgrwt>
</event>
<event>
12    1  0.1050690E-001  0.2797552E+03  0.7546771E-02  0.1095985E+00
         21   -1    0    0  501  502  0.00000000000E+00  0.00000000000E+00  0.30270991531E+03  0.30270991531E+03  0.00000000000E+00 0. -1.
         21   -1    0    0  502  503 -0.00000000000E+00 -0.00000000000E+00 -0.29817747876E+03  0.29817747876E+03  0.00000000000E+00 0. -1.
         -6    2    1    2    0  503 -0.11942442330E+02 -0.21949008653E+03 -0.10877366028E+03  0.29905759113E+03  0.17112923077E+03 0.  0.
        -24    2    3    3    0    0  0.34397707392E+02 -0.55544043451E+02 -0.71913524859E+02  0.12468306861E+03  0.78140703252E+02 0.  0.
          6    2    1    2  501    0  0.11942442330E+02  0.21949008653E+03  0.11330609683E+03  0.30182980294E+03  0.17304461377E+03 0.  0.
         24    2    5    5    0    0 -0.12178998710E+02  0.16505414464E+03  0.11949505435E+02  0.18418472525E+03  0.79937623576E+02 0.  0.
          5    1    5    5  501    0  0.24121441041E+02  0.54435941892E+02  0.10135659139E+03  0.11764507770E+03  0.47000000000E+01 0. -1.
        -11    1    6    6    0    0 -0.12203950894E+02  0.17416684341E+03  0.12605935852E+02  0.17504838011E+03  0.00000000000E+00 0.  1.
         12    1    6    6    0    0  0.24952183923E-01 -0.91126987734E+01 -0.65643041771E+00  0.91363451357E+01  0.00000000000E+00 0. -1.
         -5    1    3    3    0  503 -0.46340149723E+02 -0.16394604308E+03 -0.36860135420E+02  0.17437452251E+03  0.47000000000E+01 0.  1.
         13    1    4    4    0    0  0.64194435037E+01 -0.62357653683E+02 -0.20857040257E+02  0.66065894045E+02  0.00000000000E+00 0. -1.
        -14    1    4    4    0    0  0.27978263889E+02  0.68136102317E+01 -0.51056484602E+02  0.58617174569E+02  0.00000000000E+00 0.  1.
<mgrwt>
<rscale>  2 0.27945953E+03</rscale>
<asrwt>0</asrwt>
<pdfrwt beam="1">  1       21 0.46570756E-01 0.27975518E+03</pdfrwt>
<pdfrwt beam="2">  1       21 0.45873458E-01 0.27975518E+03</pdfrwt>
<totfact> 0.19227418E+04</totfact>
</mgrwt>
</event>
<event>
12    1  0.1050690E-001  0.2412414E+03  0.7546771E-02  0.1119205E+00
         21   -1    0    0  501  502  0.00000000000E+00  0.00000000000E+00  0.56763205084E+03  0.56763205084E+03  0.00000000000E+00 0. -1.
         21   -1    0    0  502  503 -0.00000000000E+00 -0.00000000000E+00 -0.11645607882E+03  0.11645607882E+03  0.00000000000E+00 0. -1.
         -6    2    1    2    0  503  0.56884149162E+02 -0.15671690394E+03  0.10533619560E+03  0.26323591876E+03  0.17436008837E+03 0.  0.
        -24    2    3    3    0    0  0.82561064002E+02 -0.63676542678E+02  0.10165516603E+03  0.16653300899E+03  0.80798755715E+02 0.  0.
          6    2    1    2  501    0 -0.56884149162E+02  0.15671690394E+03  0.34583977642E+03  0.42085221090E+03  0.17238166393E+03 0.  0.
         24    2    5    5    0    0 -0.19005993127E+02  0.96034095403E+02  0.93912772744E+02  0.15892385593E+03  0.82785311768E+02 0.  0.
          5    1    5    5  501    0 -0.37878156035E+02  0.60682808540E+02  0.25192700368E+03  0.26192835497E+03  0.47000000000E+01 0. -1.
        -13    1    6    6    0    0 -0.13312703357E+02  0.16555605910E+02 -0.13508786111E+02  0.25175453520E+02  0.00000000000E+00 0.  1.
         14    1    6    6    0    0 -0.56932897700E+01  0.79478489493E+02  0.10742155886E+03  0.13374840241E+03  0.00000000000E+00 0. -1.
         -5    1    3    3    0  503 -0.25676914840E+02 -0.93040361264E+02  0.36810295694E+01  0.96702909773E+02  0.47000000000E+01 0.  1.
         11    1    4    4    0    0  0.38499765651E+02 -0.33288762676E+01 -0.20674323936E+01  0.38698677615E+02  0.00000000000E+00 0. -1.
        -12    1    4    4    0    0  0.44061298350E+02 -0.60347666411E+02  0.10372259843E+03  0.12783433137E+03  0.00000000000E+00 0.  1.
<mgrwt>
<rscale>  2 0.24088414E+03</rscale>
<asrwt>0</asrwt>
<pdfrwt beam="1">  1       21 0.87328006E-01 0.24124145E+03</pdfrwt>
<pdfrwt beam="2">  1       21 0.17916320E-01 0.24124145E+03</pdfrwt>
<totfact> 0.31099138E+04</totfact>
</mgrwt>
</event>
<event>
12    1  0.1050690E-001  0.1757806E+03  0.7546771E-02  0.1172476E+00
         21   -1    0    0  503  502  0.00000000000E+00  0.00000000000E+00  0.35424777798E+03  0.35424777798E+03  0.00000000000E+00 0. -1.
         21   -1    0    0  501  503 -0.00000000000E+00 -0.00000000000E+00 -0.87162721904E+02  0.87162721904E+02  0.00000000000E+00 0. -1.
          6    2    1    2  501    0  0.12200315738E+01  0.13412292591E+01  0.11098537333E+03  0.20788594958E+03  0.17577123646E+03 0.  0.
         24    2    3    3    0    0  0.15066158401E+02  0.14329778808E-01 -0.13120248755E+02  0.82914867627E+02  0.80472013843E+02 0.  0.
         -6    2    1    2    0  502 -0.12200315738E+01 -0.13412292591E+01  0.15609968274E+03  0.23352455030E+03  0.17367589720E+03 0.  0.
        -24    2    5    5    0    0  0.21127781129E+02 -0.56629816486E+01  0.89340916431E+01  0.84534941673E+02  0.81165792509E+02 0.  0.
          5    1    3    3  501    0 -0.13846126827E+02  0.13268994803E+01  0.12410562209E+03  0.12497108195E+03  0.47000000000E+01 0. -1.
        -13    1    4    4    0    0 -0.62180795794E+01 -0.45205824363E+01 -0.44261002528E+02  0.44923674427E+02  0.00000000000E+00 0.  1.
         14    1    4    4    0    0  0.21284237980E+02  0.45349122152E+01  0.31140753773E+02  0.37991193200E+02  0.00000000000E+00 0. -1.
         -5    1    5    5    0  502 -0.22347812703E+02  0.43217523896E+01  0.14716559110E+03  0.14898960863E+03  0.47000000000E+01 0.  1.
         11    1    6    6    0    0  0.23503668145E+02  0.13295137923E+02  0.39882226796E+02  0.48164043880E+02  0.00000000000E+00 0. -1.
        -12    1    6    6    0    0 -0.23758870153E+01 -0.18958119572E+02 -0.30948135153E+02  0.36370897793E+02  0.00000000000E+00 0.  1.
<mgrwt>
<rscale>  2 0.17525442E+03</rscale>
<asrwt>0</asrwt>
<pdfrwt beam="1">  1       21 0.54499657E-01 0.17578059E+03</pdfrwt>
<pdfrwt beam="2">  1       21 0.13409650E-01 0.17578059E+03</pdfrwt>
<totfact> 0.15369614E+05</totfact>
</mgrwt>
</event>
<event>
12    1  0.1050690E-001  0.1806279E+03  0.7546771E-02  0.1167494E+00
         21   -1    0    0  501  502  0.00000000000E+00  0.00000000000E+00  0.30782705077E+02  0.30782705077E+02  0.00000000000E+00 0.  1.
         21   -1    0    0  502  503 -0.00000000000E+00 -0.00000000000E+00 -0.11248032216E+04  0.11248032216E+04  0.00000000000E+00 0. -1.
         -6    2    1    2    0  503 -0.18332201782E+02  0.49727687660E+02 -0.69155679926E+03  0.71444705972E+03  0.17139102078E+03 0.  0.
        -24    2    3    3    0    0  0.32692968351E+01  0.59407477422E+02 -0.68048409932E+03  0.68789488926E+03  0.81245507969E+02 0.  0.
          6    2    1    2  501    0  0.18332201782E+02 -0.49727687660E+02 -0.40246371731E+03  0.44113886700E+03  0.17267757146E+03 0.  0.
         24    2    5    5    0    0  0.46879587821E+02 -0.87858140880E+02 -0.33212205276E+03  0.35605699770E+03  0.80961589698E+02 0.  0.
          5    1    5    5  501    0 -0.28547386039E+02  0.38130453220E+02 -0.70341664553E+02  0.85081869306E+02  0.47000000000E+01 0. -1.
        -11    1    6    6    0    0  0.28279245366E+02 -0.49226066929E+02 -0.68483296408E+02  0.88954388710E+02  0.00000000000E+00 0.  1.
         12    1    6    6    0    0  0.18600342455E+02 -0.38632073951E+02 -0.26363875635E+03  0.26710260899E+03  0.00000000000E+00 0. -1.
         -5    1    3    3    0  503 -0.21601498617E+02 -0.96797897619E+01 -0.11072699936E+02  0.26552170461E+02  0.47000000000E+01 0.  1.
         11    1    4    4    0    0  0.36826671933E+02  0.44177128578E+02 -0.28814048791E+03  0.29382437480E+03  0.00000000000E+00 0. -1.
        -12    1    4    4    0    0 -0.33557375097E+02  0.15230348844E+02 -0.39234361142E+03  0.39407051446E+03  0.00000000000E+00 0.  1.
<mgrwt>
<rscale>  2 0.18031978E+03</rscale>
<asrwt>0</asrwt>
<pdfrwt beam="1">  1       21 0.47358009E-02 0.18062795E+03</pdfrwt>
<pdfrwt beam="2">  1       21 0.17304665E+00 0.18062795E+03</pdfrwt>
<totfact> 0.60331309E+04</totfact>
</mgrwt>
</event>
<event>
12    1  0.1050690E-001  0.1897849E+03  0.7546771E-02  0.1158988E+00
         21   -1    0    0  501  502  0.00000000000E+00  0.00000000000E+00  0.13494152746E+03  0.13494152746E+03  0.00000000000E+00 0.  1.
         21   -1    0    0  502  503 -0.00000000000E+00 -0.00000000000E+00 -0.13109517011E+04  0.13109517011E+04  0.00000000000E+00 0.  1.
         -6    2    1    2    0  503 -0.25834054044E+02 -0.71426025115E+02 -0.12333430499E+04  0.12476374023E+04  0.17232217910E+03 0.  0.
        -24    2    3    3    0    0 -0.48472112724E+02  0.52331746058E+01 -0.41842146284E+03  0.42879163068E+03  0.80055044494E+02 0.  0.
          6    2    1    2  501    0  0.25834054044E+02  0.71426025115E+02  0.57332876298E+02  0.19825582625E+03  0.17392308221E+03 0.  0.
         24    2    5    5    0    0  0.22781747183E+02  0.11741514190E+03  0.42411288707E+02  0.14958284385E+03  0.79189558723E+02 0.  0.
          5    1    5    5  501    0  0.30523068610E+01 -0.45989116787E+02  0.14921587590E+02  0.48672982405E+02  0.47000000000E+01 0. -1.
        -13    1    6    6    0    0  0.39809391953E+02  0.59077745872E+02  0.51812890452E+02  0.88088270286E+02  0.00000000000E+00 0.  1.
         14    1    6    6    0    0 -0.17027644770E+02  0.58337396029E+02 -0.94016017447E+01  0.61494573559E+02  0.00000000000E+00 0. -1.
         -5    1    3    3    0  503  0.22638058679E+02 -0.76659199721E+02 -0.81492158708E+03  0.81884577161E+03  0.47000000000E+01 0.  1.
         11    1    4    4    0    0 -0.55594359130E+02  0.21925450553E+02 -0.39322172402E+03  0.39773707696E+03  0.00000000000E+00 0. -1.
        -12    1    4    4    0    0  0.71222464067E+01 -0.16692275947E+02 -0.25199738826E+02  0.31054553725E+02  0.00000000000E+00 0.  1.
<mgrwt>
<rscale>  2 0.18941735E+03</rscale>
<asrwt>0</asrwt>
<pdfrwt beam="1">  1       21 0.20760234E-01 0.18978491E+03</pdfrwt>
<pdfrwt beam="2">  1       21 0.20168489E+00 0.18978491E+03</pdfrwt>
<totfact> 0.28276389E+03</totfact>
</mgrwt>
</event>
<event>
12    1  0.1050690E-001  0.1822173E+03  0.7546771E-02  0.1165780E+00
         21   -1    0    0  503  502  0.00000000000E+00  0.00000000000E+00  0.77256604596E+03  0.77256604596E+03  0.00000000000E+00 0. -1.
         21   -1    0    0  501  503 -0.00000000000E+00 -0.00000000000E+00 -0.54823273527E+02  0.54823273527E+02  0.00000000000E+00 0. -1.
          6    2    1    2  501    0 -0.11296215706E+02 -0.54202679711E+02  0.16538333091E+03  0.24575015798E+03  0.17313566653E+03 0.  0.
         24    2    3    3    0    0  0.31654279478E+02  0.14081337464E+02  0.37107258633E+02  0.94144443184E+02  0.79283983661E+02 0.  0.
         -6    2    1    2    0  502  0.11296215706E+02  0.54202679711E+02  0.55235944152E+03  0.58163916151E+03  0.17360191989E+03 0.  0.
        -24    2    5    5    0    0  0.17230253944E+02  0.30074787869E+02  0.54957501075E+03  0.55619881895E+03  0.78249979216E+02 0.  0.
          5    1    3    3  501    0 -0.42950495185E+02 -0.68284017176E+02  0.12827607228E+03  0.15160571479E+03  0.47000000000E+01 0. -1.
        -13    1    4    4    0    0  0.41581482976E+02 -0.48583449103E+00  0.55050023706E+02  0.68991020225E+02  0.00000000000E+00 0.  1.
         14    1    4    4    0    0 -0.99272034978E+01  0.14567171955E+02 -0.17942765074E+02  0.25153422959E+02  0.00000000000E+00 0. -1.
         -5    1    5    5    0  502 -0.59340382374E+01  0.24127891842E+02  0.27844307655E+01  0.25440342554E+02  0.47000000000E+01 0.  1.
         11    1    6    6    0    0  0.25138810188E+02  0.49841554209E+02  0.26431586033E+03  0.27014628319E+03  0.00000000000E+00 0. -1.
        -12    1    6    6    0    0 -0.79085562446E+01 -0.19766766340E+02  0.28525915043E+03  0.28605253576E+03  0.00000000000E+00 0.  1.
<mgrwt>
<rscale>  2 0.18210621E+03</rscale>
<asrwt>0</asrwt>
<pdfrwt beam="1">  1       21 0.11885631E+00 0.18221735E+03</pdfrwt>
<pdfrwt beam="2">  1       21 0.84343503E-02 0.18221735E+03</pdfrwt>
<totfact> 0.59486300E+04</totfact>
</mgrwt>
</event>
<event>
12    1  0.1050690E-001  0.2510694E+03  0.7546771E-02  0.1113012E+00
         21   -1    0    0  503  502  0.00000000000E+00  0.00000000000E+00  0.19919211356E+03  0.19919211356E+03  0.00000000000E+00 0.  1.
         21   -1    0    0  501  503 -0.00000000000E+00 -0.00000000000E+00 -0.67152012880E+03  0.67152012880E+03  0.00000000000E+00 0.  1.
          6    2    1    2  501    0  0.14819771489E+03 -0.10768053147E+03 -0.55354790726E+03  0.60683252104E+03  0.16814506654E+03 0.  0.
         24    2    3    3    0    0  0.63401931761E+02 -0.12515018794E+03 -0.33794823276E+03  0.37445174864E+03  0.79515593093E+02 0.  0.
         -6    2    1    2    0  502 -0.14819771489E+03  0.10768053147E+03  0.81219892023E+02  0.26387972132E+03  0.17169209914E+03 0.  0.
        -24    2    5    5    0    0 -0.79606446969E+02  0.76220847605E+02  0.10556198209E+03  0.18444987119E+03  0.10359352735E+03 0.  0.
          5    1    3    3  501    0  0.84795783127E+02  0.17469656476E+02 -0.21559967450E+03  0.23238077240E+03  0.47000000000E+01 0. -1.
        -13    1    4    4    0    0  0.68367518988E+02 -0.11612638768E+03 -0.23426585719E+03  0.27025903762E+03  0.00000000000E+00 0.  1.
         14    1    4    4    0    0 -0.49655872269E+01 -0.90238002591E+01 -0.10368237556E+03  0.10419271102E+03  0.00000000000E+00 0. -1.
         -5    1    5    5    0  502 -0.68591267919E+02  0.31459683861E+02 -0.24342090063E+02  0.79429850133E+02  0.47000000000E+01 0.  1.
         13    1    6    6    0    0 -0.18439090103E+01 -0.19807419516E+02 -0.28140396733E+01  0.20091109666E+02  0.00000000000E+00 0. -1.
        -14    1    6    6    0    0 -0.77762537959E+02  0.96028267120E+02  0.10837602176E+03  0.16435876152E+03  0.00000000000E+00 0.  1.
<mgrwt>
<rscale>  2 0.25046416E+03</rscale>
<asrwt>0</asrwt>
<pdfrwt beam="1">  1       21 0.30644940E-01 0.25106939E+03</pdfrwt>
<pdfrwt beam="2">  1       21 0.10331079E+00 0.25106939E+03</pdfrwt>
<totfact> 0.74670740E+03</totfact>
</mgrwt>
</event>
<event>
12    1  0.1050690E-001  0.2213671E+03  0.7546771E-02  0.1132949E+00
         21   -1    0    0  501  502  0.00000000000E+00  0.00000000000E+00  0.38780084556E+03  0.38780084556E+03  0.00000000000E+00 0.  1.
         21   -1    0    0  502  503 -0.00000000000E+00 -0.00000000000E+00 -0.29540439205E+03  0.29540439205E+03  0.00000000000E+00 0.  1.
         -6    2    1    2    0  503  0.92632948110E+02 -0.10175713605E+03 -0.21238381130E+03  0.30677397352E+03  0.17340129674E+03 0.  0.
        -24    2    3    3    0    0  0.11192668028E+03 -0.58034208767E+02 -0.80838694137E+02  0.16673772706E+03  0.73287270455E+02 0.  0.
          6    2    1    2  501    0 -0.92632948110E+02  0.10175713605E+03  0.30478026481E+03  0.37643126408E+03  0.17284128253E+03 0.  0.
         24    2    5    5    0    0 -0.83927389610E+02  0.58044131900E+02  0.94216882415E+02  0.16115088531E+03  0.81730403938E+02 0.  0.
          5    1    5    5  501    0 -0.87055584991E+01  0.43713004152E+02  0.21056338240E+03  0.21528037878E+03  0.47000000000E+01 0. -1.
        -11    1    6    6    0    0 -0.68291992794E+02  0.73596765686E+02  0.96147714307E+02  0.13901317623E+03  0.00000000000E+00 0.  1.
         12    1    6    6    0    0 -0.15635396817E+02 -0.15552633786E+02 -0.19308318916E+01  0.22137709075E+02  0.00000000000E+00 0. -1.
         -5    1    3    3    0  503 -0.19293732170E+02 -0.43722927285E+02 -0.13154511717E+03  0.14003624646E+03  0.47000000000E+01 0.  1.
         13    1    4    4    0    0  0.11186134378E+03 -0.53979665366E+02 -0.92192807577E+02  0.15468121500E+03  0.00000000000E+00 0. -1.
        -14    1    4    4    0    0  0.65336497069E-01 -0.40545434011E+01  0.11354113440E+02  0.12056512060E+02  0.00000000000E+00 0.  1.
<mgrwt>
<rscale>  2 0.22125741E+03</rscale>
<asrwt>0</asrwt>
<pdfrwt beam="1">  1       21 0.59661669E-01 0.22136709E+03</pdfrwt>
<pdfrwt beam="2">  1       21 0.45446829E-01 0.22136709E+03</pdfrwt>
<totfact> 0.11956102E+04</totfact>
</mgrwt>
</event>
<event>
12    1  0.1050690E-001  0.2041899E+03  0.7546771E-02  0.1146491E+00
         21   -1    0    0  501  502  0.00000000000E+00  0.00000000000E+00  0.70558218849E+02  0.70558218849E+02  0.00000000000E+00 0. -1.
         21   -1    0    0  502  503 -0.00000000000E+00 -0.00000000000E+00 -0.79161021397E+03  0.79161021397E+03  0.00000000000E+00 0. -1.
         -6    2    1    2    0  503 -0.31663048418E+02 -0.10202406668E+03 -0.14242047581E+03  0.24895199681E+03  0.17401737261E+03 0.  0.
        -24    2    3    3    0    0 -0.89573180754E+02 -0.70738028813E+02 -0.98820274089E+02  0.16986048537E+03  0.77845452579E+02 0.  0.
          6    2    1    2  501    0  0.31663048418E+02  0.10202406668E+03 -0.57863151931E+03  0.61321643601E+03  0.17265139280E+03 0.  0.
         24    2    5    5    0    0 -0.51712263665E+00 -0.12922346627E+02 -0.28119476450E+03  0.29268725722E+03  0.80175311037E+02 0.  0.
          5    1    5    5  501    0  0.32180171055E+02  0.11494641331E+03 -0.29743675481E+03  0.32052917879E+03  0.47000000000E+01 0. -1.
        -13    1    6    6    0    0  0.25862089234E+02  0.38818577319E+01 -0.23759123813E+03  0.23902617621E+03  0.00000000000E+00 0.  1.
         14    1    6    6    0    0 -0.26379211871E+02 -0.16804204359E+02 -0.43603526366E+02  0.53661081005E+02  0.00000000000E+00 0. -1.
         -5    1    3    3    0  503  0.57910132336E+02 -0.31286037865E+02 -0.43600201722E+02  0.79091511444E+02  0.47000000000E+01 0.  1.
         13    1    4    4    0    0 -0.86800240993E+01 -0.26318646949E+02  0.78560860025E+01  0.28805070437E+02  0.00000000000E+00 0. -1.
        -14    1    4    4    0    0 -0.80893156654E+02 -0.44419381865E+02 -0.10667636009E+03  0.14105541493E+03  0.00000000000E+00 0.  1.
<mgrwt>
<rscale>  2 0.20389853E+03</rscale>
<asrwt>0</asrwt>
<pdfrwt beam="1">  1       21 0.10855110E-01 0.20418987E+03</pdfrwt>
<pdfrwt beam="2">  1       21 0.12178619E+00 0.20418987E+03</pdfrwt>
<totfact> 0.35484723E+04</totfact>
</mgrwt>
</event>
<event>
12    1  0.1050690E-001  0.2230743E+03  0.7546771E-02  0.1131667E+00
         21   -1    0    0  501  502  0.00000000000E+00  0.00000000000E+00  0.85700326699E+03  0.85700326699E+03  0.00000000000E+00 0. -1.
         21   -1    0    0  502  503 -0.00000000000E+00 -0.00000000000E+00 -0.63361634899E+02  0.63361634899E+02  0.00000000000E+00 0.  1.
         -6    2    1    2    0  503  0.72269309485E+01  0.14039033743E+03  0.26303061028E+03  0.34488729574E+03  0.17320643593E+03 0.  0.
        -24    2    3    3    0    0 -0.52397087433E+02  0.66641980649E+02  0.89708302587E+02  0.14725997972E+03  0.80320070452E+02 0.  0.
          6    2    1    2  501    0 -0.72269309485E+01 -0.14039033743E+03  0.53061102181E+03  0.57547760615E+03  0.17281418730E+03 0.  0.
         24    2    5    5    0    0 -0.65092580366E+02 -0.82474021249E+02  0.24311061472E+03  0.27651053916E+03  0.79475147558E+02 0.  0.
          5    1    5    5  501    0  0.57865649417E+02 -0.57916316177E+02  0.28750040709E+03  0.29896706698E+03  0.47000000000E+01 0. -1.
        -13    1    6    6    0    0 -0.66885953644E+02 -0.96192574581E+02  0.22545250818E+03  0.25407789287E+03  0.00000000000E+00 0.  1.
         14    1    6    6    0    0  0.17933732784E+01  0.13718553332E+02  0.17658106538E+02  0.22432646294E+02  0.00000000000E+00 0. -1.
         -5    1    3    3    0  503  0.59624018381E+02  0.73748356777E+02  0.17332230769E+03  0.19762731603E+03  0.47000000000E+01 0.  1.
         13    1    4    4    0    0 -0.32053120888E+02 -0.62947720077E+01  0.54987565437E+02  0.63958260342E+02  0.00000000000E+00 0. -1.
        -14    1    4    4    0    0 -0.20343966544E+02  0.72936752656E+02  0.34720737150E+02  0.83301719376E+02  0.00000000000E+00 0.  1.
<mgrwt>
<rscale>  2 0.22299816E+03</rscale>
<asrwt>0</asrwt>
<pdfrwt beam="1">  1       21 0.13184665E+00 0.22307430E+03</pdfrwt>
<pdfrwt beam="2">  1       21 0.97479444E-02 0.22307430E+03</pdfrwt>
<totfact> 0.34803107E+04</totfact>
</mgrwt>
</event>
<event>
12    1  0.1050690E-001  0.2166747E+03  0.7546771E-02  0.1136558E+00
         21   -1    0    0  503  502  0.00000000000E+00  0.00000000000E+00  0.98648144176E+03  0.98648144176E+03  0.00000000000E+00 0. -1.
         21   -1    0    0  501  503 -0.00000000000E+00 -0.00000000000E+00 -0.53924156297E+02  0.53924156297E+02  0.00000000000E+00 0. -1.
          6    2    1    2  501    0  0.76000448546E+02  0.10384708420E+03  0.28610761805E+03  0.35889483875E+03  0.17432054124E+03 0.  0.
         24    2    3    3    0    0  0.46563947492E+02  0.19775864007E+01  0.71827594436E+02  0.11976742356E+03  0.83743181031E+02 0.  0.
         -6    2    1    2    0  502 -0.76000448546E+02 -0.10384708420E+03  0.64644966741E+03  0.68151075930E+03  0.17320351462E+03 0.  0.
        -24    2    5    5    0    0 -0.52432708026E+02 -0.11658448611E+03  0.31597648910E+03  0.34992021151E+03  0.79132050973E+02 0.  0.
          5    1    3    3  501    0  0.29436501054E+02  0.10186949780E+03  0.21428002362E+03  0.23912741520E+03  0.47000000000E+01 0. -1.
        -13    1    4    4    0    0 -0.19211094869E+02 -0.16114001273E+02  0.79317950851E+01  0.26299060371E+02  0.00000000000E+00 0.  1.
         14    1    4    4    0    0  0.65775042361E+02  0.18091587674E+02  0.63895799351E+02  0.93468363187E+02  0.00000000000E+00 0. -1.
         -5    1    5    5    0  502 -0.23567740520E+02  0.12737401901E+02  0.33047317831E+03  0.33159054779E+03  0.47000000000E+01 0.  1.
         13    1    6    6    0    0 -0.93521597795E+01  0.70579537403E+01  0.72784373902E+02  0.73721385553E+02  0.00000000000E+00 0. -1.
        -14    1    6    6    0    0 -0.43080548247E+02 -0.12364243985E+03  0.24319211519E+03  0.27619882596E+03  0.00000000000E+00 0.  1.
<mgrwt>
<rscale>  2 0.21644996E+03</rscale>
<asrwt>0</asrwt>
<pdfrwt beam="1">  1       21 0.15176636E+00 0.21667472E+03</pdfrwt>
<pdfrwt beam="2">  1       21 0.82960248E-02 0.21667472E+03</pdfrwt>
<totfact> 0.32172527E+04</totfact>
</mgrwt>
</event>
<event>
12    1  0.1050690E-001  0.1890055E+03  0.7546771E-02  0.1160095E+00
         21   -1    0    0  501  502  0.00000000000E+00  0.00000000000E+00  0.69262441243E+02  0.69262441243E+02  0.00000000000E+00 0.  1.
         21   -1    0    0  502  503 -0.00000000000E+00 -0.00000000000E+00 -0.80487415363E+03  0.80487415363E+03  0.00000000000E+00 0.  1.
         -6    2    1    2    0  503  0.67565845217E+02  0.64687369905E+01 -0.10392875109E+03  0.21569483564E+03  0.17639753066E+03 0.  0.
        -24    2    3    3    0    0  0.87442709287E+02  0.21424147192E+02 -0.12548744379E+02  0.12087316277E+03  0.79672008901E+02 0.  0.
          6    2    1    2  501    0 -0.67565845217E+02 -0.64687369905E+01 -0.63168296129E+03  0.65844175923E+03  0.17296010728E+03 0.  0.
         24    2    5    5    0    0  0.67083234941E+01 -0.52440277841E+02 -0.28495329367E+03  0.30084759385E+03  0.80721191795E+02 0.  0.
          5    1    5    5  501    0 -0.74274168711E+02  0.45971540850E+02 -0.34672966762E+03  0.35759416538E+03  0.47000000000E+01 0. -1.
        -13    1    6    6    0    0 -0.31459638885E+02 -0.24297283644E+02 -0.67946025062E+02  0.78719306355E+02  0.00000000000E+00 0.  1.
         14    1    6    6    0    0  0.38167962379E+02 -0.28142994197E+02 -0.21700726861E+03  0.22212828749E+03  0.00000000000E+00 0. -1.
         -5    1    3    3    0  503 -0.19876864071E+02 -0.14955410202E+02 -0.91380006710E+02  0.94821672870E+02  0.47000000000E+01 0.  1.
         13    1    4    4    0    0  0.49456861011E+00 -0.22365619056E+02  0.19111776879E+01  0.22452574775E+02  0.00000000000E+00 0. -1.
        -14    1    4    4    0    0  0.86948140677E+02  0.43789766248E+02 -0.14459922067E+02  0.98420587996E+02  0.00000000000E+00 0.  1.
<mgrwt>
<rscale>  2 0.18819935E+03</rscale>
<asrwt>0</asrwt>
<pdfrwt beam="1">  1       21 0.10655761E-01 0.18900549E+03</pdfrwt>
<pdfrwt beam="2">  1       21 0.12382679E+00 0.18900549E+03</pdfrwt>
<totfact> 0.35489803E+04</totfact>
</mgrwt>
</event>
<event>
11    1  0.1050690E-001  0.1731818E+03  0.7546771E-02  0.1174709E+00
         21   -1    0    0  503  502  0.00000000000E+00  0.00000000000E+00  0.44667749481E+03  0.44667749481E+03  0.00000000000E+00 0. -1.
         21   -1    0    0  501  503 -0.00000000000E+00 -0.00000000000E+00 -0.72169297220E+02  0.72169297220E+02  0.00000000000E+00 0. -1.
          6    2    1    2  501    0 -0.73286237021E+01 -0.26951310286E+01  0.11765327012E+03  0.20936621972E+03  0.17300563440E+03 0.  0.
         24    2    3    3    0    0  0.22856374306E+02  0.57704787928E+02  0.92618996067E+02  0.13719912755E+03  0.79956649335E+02 0.  0.
         -6    2    1    2    0  502  0.73286237021E+01  0.26951310286E+01  0.25685492747E+03  0.30948057231E+03  0.17246100549E+03 0.  0.
          5    1    3    3  501    0 -0.30184998008E+02 -0.60399918957E+02  0.25034274057E+02  0.72167092170E+02  0.47000000000E+01 0. -1.
        -13    1    4    4    0    0 -0.10456311742E+02 -0.13603504452E+02  0.21600691296E+01  0.17293226629E+02  0.00000000000E+00 0.  1.
         14    1    4    4    0    0  0.33312686048E+02  0.71308292380E+02  0.90458926938E+02  0.11990590092E+03  0.00000000000E+00 0. -1.
         -5    1    5    5    0  502  0.10127304335E+02 -0.22964152689E+02  0.10027575984E+03  0.10347575858E+03  0.47000000000E+01 0.  1.
         11    1    5    5    0    0  0.31814742668E+02 -0.71392161030E+01 -0.88946372311E+01  0.33797349439E+02  0.00000000000E+00 0. -1.
        -12    1    5    5    0    0 -0.34613423301E+02  0.32798499821E+02  0.16547380486E+03  0.17220746429E+03  0.00000000000E+00 0.  1.
<mgrwt>
<rscale>  2 0.17304558E+03</rscale>
<asrwt>0</asrwt>
<pdfrwt beam="1">  1       21 0.68719613E-01 0.17318176E+03</pdfrwt>
<pdfrwt beam="2">  1       21 0.11102969E-01 0.17318176E+03</pdfrwt>
<totfact> 0.13098660E+05</totfact>
</mgrwt>
</event>
<event>
12    1  0.1050690E-001  0.3551344E+03  0.7546771E-02  0.1060666E+00
         21   -1    0    0  503  502  0.00000000000E+00  0.00000000000E+00  0.46913703260E+03  0.46913703260E+03  0.00000000000E+00 0. -1.
         21   -1    0    0  501  503 -0.00000000000E+00 -0.00000000000E+00 -0.27394440432E+03  0.27394440432E+03  0.00000000000E+00 0.  1.
          6    2    1    2  501    0  0.20337956189E+03  0.23232625558E+03  0.15345488053E+03  0.38687061659E+03  0.17544725246E+03 0.  0.
         24    2    3    3    0    0  0.42376037343E+02  0.76490620570E+02  0.81548844847E+01  0.11977314579E+03  0.81440534966E+02 0.  0.
         -6    2    1    2    0  502 -0.20337956189E+03 -0.23232625558E+03  0.41737747745E+02  0.35621082033E+03  0.17264232884E+03 0.  0.
        -24    2    5    5    0    0 -0.21896389430E+03 -0.20286035744E+03  0.65198999354E+02  0.31517874877E+03  0.77390067394E+02 0.  0.
          5    1    3    3  501    0  0.16100352455E+03  0.15583563501E+03  0.14529999605E+03  0.26709747080E+03  0.47000000000E+01 0. -1.
        -13    1    4    4    0    0  0.63202960790E+02  0.46043605146E+02 -0.96911723932E+01  0.78794331330E+02  0.00000000000E+00 0.  1.
         14    1    4    4    0    0 -0.20826923446E+02  0.30447015425E+02  0.17846056878E+02  0.40978814461E+02  0.00000000000E+00 0. -1.
         -5    1    5    5    0  502  0.15584332407E+02 -0.29465898144E+02 -0.23461251609E+02  0.41032071567E+02  0.47000000000E+01 0.  1.
         13    1    6    6    0    0 -0.14195035905E+03 -0.82123338681E+02  0.48408589204E+02  0.17098987894E+03  0.00000000000E+00 0. -1.
        -14    1    6    6    0    0 -0.77013535252E+02 -0.12073701876E+03  0.16790410150E+02  0.14418886983E+03  0.00000000000E+00 0.  1.
<mgrwt>
<rscale>  2 0.35478961E+03</rscale>
<asrwt>0</asrwt>
<pdfrwt beam="1">  1       21 0.72174928E-01 0.35513444E+03</pdfrwt>
<pdfrwt beam="2">  1       21 0.42145293E-01 0.35513444E+03</pdfrwt>
<totfact> 0.86155345E+03</totfact>
</mgrwt>
</event>
<event>
12    1  0.1050690E-001  0.2546623E+03  0.7546771E-02  0.1110407E+00
         21   -1    0    0  501  502  0.00000000000E+00  0.00000000000E+00  0.39786203024E+03  0.39786203024E+03  0.00000000000E+00 0.  1.
         21   -1    0    0  502  503 -0.00000000000E+00 -0.00000000000E+00 -0.18617472640E+03  0.18617472640E+03  0.00000000000E+00 0. -1.
         -6    2    1    2    0  503  0.15392428334E+03  0.10571799578E+03  0.26794167993E+01  0.25458696360E+03  0.17302705895E+03 0.  0.
        -24    2    3    3    0    0  0.60568166488E+02  0.97926836194E+02  0.50885948429E+02  0.14912594515E+03  0.79943728532E+02 0.  0.
          6    2    1    2  501    0 -0.15392428334E+03 -0.10571799578E+03  0.20900788704E+03  0.32944979303E+03  0.17315856793E+03 0.  0.
         24    2    5    5    0    0 -0.12918989582E+03 -0.14317919332E+03  0.16623248696E+03  0.26726493877E+03  0.81283437372E+02 0.  0.
          5    1    5    5  501    0 -0.24734387522E+02  0.37461197542E+02  0.42775400079E+02  0.62184854259E+02  0.47000000000E+01 0. -1.
        -13    1    6    6    0    0 -0.98169605735E+02 -0.75599720276E+02  0.14332215512E+03  0.18945666877E+03  0.00000000000E+00 0.  1.
         14    1    6    6    0    0 -0.31020290082E+02 -0.67579473046E+02  0.22910331846E+02  0.77808269993E+02  0.00000000000E+00 0. -1.
         -5    1    3    3    0  503  0.93356116851E+02  0.77911595872E+01 -0.48206531630E+02  0.10546101845E+03  0.47000000000E+01 0.  1.
         11    1    4    4    0    0  0.11328697247E+02  0.57251394747E+02 -0.11903398005E+02  0.59563012565E+02  0.00000000000E+00 0. -1.
        -12    1    4    4    0    0  0.49239469241E+02  0.40675441447E+02  0.62789346434E+02  0.89562932588E+02  0.00000000000E+00 0.  1.
<mgrwt>
<rscale>  2 0.25463991E+03</rscale>
<asrwt>0</asrwt>
<pdfrwt beam="1">  1       21 0.61209543E-01 0.25466227E+03</pdfrwt>
<pdfrwt beam="2">  1       21 0.28642266E-01 0.25466227E+03</pdfrwt>
<totfact> 0.28052236E+04</totfact>
</mgrwt>
</event>
<event>
12    1  0.1050690E-001  0.3582108E+03  0.7546771E-02  0.1059392E+00
         21   -1    0    0  503  502  0.00000000000E+00  0.00000000000E+00  0.14774808808E+03  0.14774808808E+03  0.00000000000E+00 0. -1.
         21   -1    0    0  501  503 -0.00000000000E+00 -0.00000000000E+00 -0.86888497498E+03  0.86888497498E+03  0.00000000000E+00 0.  1.
          6    2    1    2  501    0  0.19325915485E+03 -0.24600423595E+03 -0.33226839943E+03  0.48858700005E+03  0.17449292913E+03 0.  0.
         24    2    3    3    0    0  0.16971144342E+03 -0.26575576710E+03 -0.31700948398E+03  0.45395259235E+03  0.78420924441E+02 0.  0.
         -6    2    1    2    0  502 -0.19325915485E+03  0.24600423595E+03 -0.38886848748E+03  0.52804606301E+03  0.17247248785E+03 0.  0.
        -24    2    5    5    0    0 -0.66761456498E+02  0.85620682188E+02 -0.75969532341E+02  0.15434511555E+03  0.79139443752E+02 0.  0.
          5    1    3    3  501    0  0.23547711429E+02  0.19751531145E+02 -0.15258915444E+02  0.34634407698E+02  0.47000000000E+01 0. -1.
        -13    1    4    4    0    0  0.33096594379E+02 -0.66570772057E+02 -0.12483355483E+03  0.14529442062E+03  0.00000000000E+00 0.  1.
         14    1    4    4    0    0  0.13661484905E+03 -0.19918499504E+03 -0.19217592915E+03  0.30865817173E+03  0.00000000000E+00 0. -1.
         -5    1    5    5    0  502 -0.12649769835E+03  0.16038355377E+03 -0.31289895514E+03  0.37370094746E+03  0.47000000000E+01 0.  1.
         13    1    6    6    0    0 -0.30582519161E+02  0.26529717778E+02  0.12129879881E+02  0.42264055526E+02  0.00000000000E+00 0. -1.
        -14    1    6    6    0    0 -0.36178937337E+02  0.59090964410E+02 -0.88099412222E+02  0.11208106002E+03  0.00000000000E+00 0.  1.
<mgrwt>
<rscale>  2 0.35796557E+03</rscale>
<asrwt>0</asrwt>
<pdfrwt beam="1">  1       21 0.22730475E-01 0.35821079E+03</pdfrwt>
<pdfrwt beam="2">  1       21 0.13367461E+00 0.35821079E+03</pdfrwt>
<totfact> 0.66448728E+03</totfact>
</mgrwt>
</event>
<event>
12    1  0.1050690E-001  0.2267563E+03  0.7546771E-02  0.1129021E+00
         21   -1    0    0  503  502  0.00000000000E+00  0.00000000000E+00  0.20582648395E+03  0.20582648395E+03  0.00000000000E+00 0. -1.
         21   -1    0    0  501  503 -0.00000000000E+00 -0.00000000000E+00 -0.25522036791E+03  0.25522036791E+03  0.00000000000E+00 0.  1.
          6    2    1    2  501    0  0.13756035990E+03 -0.45789090189E+02 -0.59668528154E+02  0.23405784309E+03  0.17379081467E+03 0.  0.
         24    2    3    3    0    0  0.14932935255E+03 -0.41565309512E+02 -0.93930784463E+02  0.19728364400E+03  0.77916066580E+02 0.  0.
         -6    2    1    2    0  502 -0.13756035990E+03  0.45789090189E+02  0.10274644198E+02  0.22698900877E+03  0.17435294203E+03 0.  0.
        -24    2    5    5    0    0 -0.15005625299E+03  0.77472014010E+02 -0.92447861621E+01  0.18745354156E+03  0.80836700543E+02 0.  0.
          5    1    3    3  501    0 -0.11768992653E+02 -0.42237806775E+01  0.34262256309E+02  0.36774199089E+02  0.47000000000E+01 0. -1.
        -13    1    4    4    0    0  0.36695543618E+02  0.22224649992E+02 -0.13893657282E+02  0.45094697042E+02  0.00000000000E+00 0.  1.
         14    1    4    4    0    0  0.11263380893E+03 -0.63789959503E+02 -0.80037127181E+02  0.15218894695E+03  0.00000000000E+00 0. -1.
         -5    1    5    5    0  502  0.12495893095E+02 -0.31682923821E+02  0.19519430360E+02  0.39535467212E+02  0.47000000000E+01 0.  1.
         13    1    6    6    0    0 -0.50052534973E+02  0.47947515984E+02  0.30681859353E+02  0.75799716620E+02  0.00000000000E+00 0. -1.
        -14    1    6    6    0    0 -0.10000371802E+03  0.29524498026E+02 -0.39926645515E+02  0.11165382494E+03  0.00000000000E+00 0.  1.
<mgrwt>
<rscale>  2 0.22664829E+03</rscale>
<asrwt>0</asrwt>
<pdfrwt beam="1">  1       21 0.31665613E-01 0.22675635E+03</pdfrwt>
<pdfrwt beam="2">  1       21 0.39264672E-01 0.22675635E+03</pdfrwt>
<totfact> 0.59048918E+04</totfact>
</mgrwt>
</event>
<event>
12    1  0.1050690E-001  0.2083083E+03  0.7546771E-02  0.1143103E+00
         21   -1    0    0  503  502  0.00000000000E+00  0.00000000000E+00  0.22864326490E+03  0.22864326490E+03  0.00000000000E+00 0.  1.
         21   -1    0    0  501  503 -0.00000000000E+00 -0.00000000000E+00 -0.21070848487E+03  0.21070848487E+03  0.00000000000E+00 0.  1.
          6    2    1    2  501    0  0.10759090874E+02 -0.11412326227E+03 -0.61656729404E+02  0.21724152748E+03  0.17393232004E+03 0.  0.
         24    2    3    3    0    0  0.46527477420E+02 -0.10214888949E+03  0.79246037594E+01  0.13795461176E+03  0.79808983103E+02 0.  0.
         -6    2    1    2    0  502 -0.10759090874E+02  0.11412326227E+03  0.79591509433E+02  0.22211022229E+03  0.17279544393E+03 0.  0.
        -24    2    5    5    0    0  0.40261974398E+02  0.92072434338E+02  0.49584594850E+01  0.12893527792E+03  0.80631010312E+02 0.  0.
          5    1    3    3  501    0 -0.35768386546E+02 -0.11974372780E+02 -0.69581333163E+02  0.79286915720E+02  0.47000000000E+01 0. -1.
        -13    1    4    4    0    0 -0.32294970748E+00 -0.87613429416E+02 -0.31340542869E+01  0.87670061063E+02  0.00000000000E+00 0.  1.
         14    1    4    4    0    0  0.46850427127E+02 -0.14535460071E+02  0.11058658046E+02  0.50284550701E+02  0.00000000000E+00 0. -1.
         -5    1    5    5    0  502 -0.51021065272E+02  0.22050827929E+02  0.74633049948E+02  0.93174944370E+02  0.47000000000E+01 0.  1.
         13    1    6    6    0    0  0.52945088183E+02  0.21584131981E+02  0.38748073996E+01  0.57306816771E+02  0.00000000000E+00 0. -1.
        -14    1    6    6    0    0 -0.12683113785E+02  0.70488302356E+02  0.10836520854E+01  0.71628461146E+02  0.00000000000E+00 0.  1.
<mgrwt>
<rscale>  2 0.20807077E+03</rscale>
<asrwt>0</asrwt>
<pdfrwt beam="1">  1       21 0.35175887E-01 0.20830825E+03</pdfrwt>
<pdfrwt beam="2">  1       21 0.32416690E-01 0.20830825E+03</pdfrwt>
<totfact> 0.70850799E+04</totfact>
</mgrwt>
</event>
<event>
12    1  0.1050690E-001  0.2136383E+03  0.7546771E-02  0.1139890E+00
         21   -1    0    0  501  502  0.00000000000E+00  0.00000000000E+00  0.16582210177E+03  0.16582210177E+03  0.00000000000E+00 0.  1.
         21   -1    0    0  502  503 -0.00000000000E+00 -0.00000000000E+00 -0.37239118443E+03  0.37239118443E+03  0.00000000000E+00 0.  1.
         -6    2    1    2    0  503 -0.55067460170E+01 -0.11692233700E+03 -0.24497140144E+03  0.32115091998E+03  0.17153940872E+03 0.  0.
        -24    2    3    3    0    0  0.48506148514E+02 -0.17270804306E+02 -0.10916202633E+03  0.14419302355E+03  0.78893300874E+02 0.  0.
          6    2    1    2  501    0  0.55067460170E+01  0.11692233700E+03  0.38402318771E+02  0.21706236622E+03  0.17871814569E+03 0.  0.
         24    2    5    5    0    0  0.55562468076E+02  0.12770561935E+03  0.24700798921E+02  0.16384887042E+03  0.82706769960E+02 0.  0.
          5    1    5    5  501    0 -0.50055722059E+02 -0.10783282350E+02  0.13701519851E+02  0.53213495800E+02  0.47000000000E+01 0. -1.
        -11    1    6    6    0    0  0.27731004365E+02  0.12711131129E+03  0.34049970268E+02  0.13448306412E+03  0.00000000000E+00 0.  1.
         12    1    6    6    0    0  0.27831463710E+02  0.59430806065E+00 -0.93491713476E+01  0.29365806293E+02  0.00000000000E+00 0. -1.
         -5    1    3    3    0  503 -0.54012894531E+02 -0.99651532694E+02 -0.13580937510E+03  0.17695789643E+03  0.47000000000E+01 0.  1.
         11    1    4    4    0    0  0.27007896585E+02 -0.20222683282E+02 -0.87305636464E+00  0.33751231451E+02  0.00000000000E+00 0. -1.
        -12    1    4    4    0    0  0.21498251929E+02  0.29518789755E+01 -0.10828896997E+03  0.11044179210E+03  0.00000000000E+00 0.  1.
<mgrwt>
<rscale>  2 0.21213041E+03</rscale>
<asrwt>0</asrwt>
<pdfrwt beam="1">  1       21 0.25511093E-01 0.21363832E+03</pdfrwt>
<pdfrwt beam="2">  1       21 0.57290952E-01 0.21363832E+03</pdfrwt>
<totfact> 0.41242394E+04</totfact>
</mgrwt>
</event>
<event>
12    1  0.1050690E-001  0.2536161E+03  0.7546771E-02  0.1111124E+00
         21   -1    0    0  503  502  0.00000000000E+00  0.00000000000E+00  0.11922468375E+03  0.11922468375E+03  0.00000000000E+00 0.  1.
         21   -1    0    0  501  503 -0.00000000000E+00 -0.00000000000E+00 -0.53843591742E+03  0.53843591742E+03  0.00000000000E+00 0. -1.
          6    2    1    2  501    0  0.11993114171E+03 -0.14146786938E+03 -0.20531688573E+03  0.32588969775E+03  0.17219882321E+03 0.  0.
         24    2    3    3    0    0  0.83869449540E+02 -0.19066506556E+02 -0.11796890671E+03  0.17118255925E+03  0.89382265597E+02 0.  0.
         -6    2    1    2    0  502 -0.11993114171E+03  0.14146786938E+03 -0.21389434794E+03  0.33177090343E+03  0.17298700373E+03 0.  0.
        -24    2    5    5    0    0 -0.80502646030E+02  0.88304909924E+02 -0.45982648574E+02  0.15122358189E+03  0.80471949247E+02 0.  0.
          5    1    3    3  501    0  0.36061692172E+02 -0.12240136282E+03 -0.87347979020E+02  0.15470713850E+03  0.47000000000E+01 0. -1.
        -11    1    4    4    0    0  0.10185832360E+03 -0.25283942067E+02 -0.97882225751E+02  0.14351071713E+03  0.00000000000E+00 0.  1.
         12    1    4    4    0    0 -0.17988874063E+02  0.62174355109E+01 -0.20086680958E+02  0.27671842120E+02  0.00000000000E+00 0. -1.
         -5    1    5    5    0  502 -0.39428495682E+02  0.53162959454E+02 -0.16791169937E+03  0.18054732153E+03  0.47000000000E+01 0.  1.
         11    1    6    6    0    0  0.87171700905E+01  0.41810766940E+02 -0.20834548473E+02  0.47520602864E+02  0.00000000000E+00 0. -1.
        -12    1    6    6    0    0 -0.89219816121E+02  0.46494142984E+02 -0.25148100101E+02  0.10370297903E+03  0.00000000000E+00 0.  1.
<mgrwt>
<rscale>  2 0.25348178E+03</rscale>
<asrwt>0</asrwt>
<pdfrwt beam="1">  1       21 0.18342259E-01 0.25361613E+03</pdfrwt>
<pdfrwt beam="2">  1       21 0.82836296E-01 0.25361613E+03</pdfrwt>
<totfact> 0.33433563E+04</totfact>
</mgrwt>
</event>
<event>
12    1  0.1050690E-001  0.2412483E+03  0.7546771E-02  0.1119095E+00
         21   -1    0    0  503  502  0.00000000000E+00  0.00000000000E+00  0.59574617270E+03  0.59574617270E+03  0.00000000000E+00 0. -1.
         21   -1    0    0  501  503 -0.00000000000E+00 -0.00000000000E+00 -0.31097764874E+03  0.31097764874E+03  0.00000000000E+00 0.  1.
          6    2    1    2  501    0 -0.10408481862E+03  0.12997748939E+03 -0.23342539920E+03  0.33512457653E+03  0.17347411216E+03 0.  0.
         24    2    3    3    0    0  0.39087588285E+01  0.15850703099E+02 -0.96322949606E+02  0.12654196028E+03  0.80425331244E+02 0.  0.
         -6    2    1    2    0  502  0.10408481862E+03 -0.12997748939E+03  0.51819392316E+03  0.57159924491E+03  0.17456505252E+03 0.  0.
        -24    2    5    5    0    0  0.95200331457E+02 -0.90254420412E+02  0.50625523823E+03  0.52892046190E+03  0.79079234132E+02 0.  0.
          5    1    3    3  501    0 -0.10799357745E+03  0.11412678629E+03 -0.13710244960E+03  0.20858261626E+03  0.47000000000E+01 0. -1.
        -13    1    4    4    0    0  0.39973614174E+02  0.65031429836E+01 -0.29745783161E+02  0.50249301633E+02  0.00000000000E+00 0.  1.
         14    1    4    4    0    0 -0.36064855345E+02  0.93475601154E+01 -0.66577166445E+02  0.76292658644E+02  0.00000000000E+00 0. -1.
         -5    1    5    5    0  502  0.88844871610E+01 -0.39723068976E+02  0.11938684935E+02  0.42678783007E+02  0.47000000000E+01 0.  1.
         11    1    6    6    0    0  0.66199075211E+02 -0.30868398246E+02  0.37406875185E+03  0.38113331878E+03  0.00000000000E+00 0. -1.
        -12    1    6    6    0    0  0.29001256246E+02 -0.59386022167E+02  0.13218648637E+03  0.14778714312E+03  0.00000000000E+00 0.  1.
<mgrwt>
<rscale>  2 0.24105103E+03</rscale>
<asrwt>0</asrwt>
<pdfrwt beam="1">  1       21 0.91653257E-01 0.24124833E+03</pdfrwt>
<pdfrwt beam="2">  1       21 0.47842715E-01 0.24124833E+03</pdfrwt>
<totfact> 0.40560805E+03</totfact>
</mgrwt>
</event>
<event>
12    1  0.1050690E-001  0.2080759E+03  0.7546771E-02  0.1143482E+00
         21   -1    0    0  503  502  0.00000000000E+00  0.00000000000E+00  0.46040946180E+03  0.46040946180E+03  0.00000000000E+00 0.  1.
         21   -1    0    0  501  503 -0.00000000000E+00 -0.00000000000E+00 -0.41792214721E+03  0.41792214721E+03  0.00000000000E+00 0.  1.
          6    2    1    2  501    0 -0.86214787845E+02  0.58850155051E+02 -0.36585900455E+03  0.42089002070E+03  0.17999796644E+03 0.  0.
         24    2    3    3    0    0 -0.73790502230E+02  0.10803635547E+03 -0.24399326549E+03  0.28880295267E+03  0.82204255019E+02 0.  0.
         -6    2    1    2    0  502  0.86214787845E+02 -0.58850155051E+02  0.40834631914E+03  0.45744158830E+03  0.17779133825E+03 0.  0.
        -24    2    5    5    0    0  0.88614792267E+02 -0.89316599385E+02  0.39705738116E+03  0.42452511260E+03  0.82079053139E+02 0.  0.
          5    1    3    3  501    0 -0.12424285614E+02 -0.49186200421E+02 -0.12186573906E+03  0.13208706803E+03  0.47000000000E+01 0. -1.
        -11    1    4    4    0    0 -0.18758355501E+02 -0.12009207467E+02 -0.30490890452E+02  0.37759652615E+02  0.00000000000E+00 0.  1.
         12    1    4    4    0    0 -0.55032146729E+02  0.12004556294E+03 -0.21350237504E+03  0.25104330006E+03  0.00000000000E+00 0. -1.
         -5    1    5    5    0  502 -0.24000044218E+01  0.30466444334E+02  0.11288937985E+02  0.32916475698E+02  0.47000000000E+01 0.  1.
         13    1    6    6    0    0  0.16318394000E+01 -0.43411722642E+02  0.64785782755E+02  0.78002808986E+02  0.00000000000E+00 0. -1.
        -14    1    6    6    0    0  0.86982952867E+02 -0.45904876743E+02  0.33227159840E+03  0.34652230362E+03  0.00000000000E+00 0.  1.
<mgrwt>
<rscale>  2 0.20759783E+03</rscale>
<asrwt>0</asrwt>
<pdfrwt beam="1">  1       21 0.70832225E-01 0.20807594E+03</pdfrwt>
<pdfrwt beam="2">  1       21 0.64295715E-01 0.20807594E+03</pdfrwt>
<totfact> 0.39793125E+03</totfact>
</mgrwt>
</event>
<event>
12    1  0.1050690E-001  0.1760449E+03  0.7546771E-02  0.1172485E+00
         21   -1    0    0  501  502  0.00000000000E+00  0.00000000000E+00  0.25693061931E+02  0.25693061931E+02  0.00000000000E+00 0.  1.
         21   -1    0    0  502  503 -0.00000000000E+00 -0.00000000000E+00 -0.12302451777E+04  0.12302451777E+04  0.00000000000E+00 0.  1.
         -6    2    1    2    0  503  0.28321810516E+02 -0.36987305226E+01 -0.48657573324E+03  0.51744347220E+03  0.17371239791E+03 0.  0.
        -24    2    3    3    0    0  0.49530037049E+02 -0.20625791950E+02 -0.47813917527E+03  0.48864104537E+03  0.85289814316E+02 0.  0.
          6    2    1    2  501    0 -0.28321810516E+02  0.36987305226E+01 -0.71797638254E+03  0.73849476744E+03  0.17049524947E+03 0.  0.
         24    2    5    5    0    0 -0.20327699091E+02  0.12969276323E+02 -0.72028333114E+03  0.72518083306E+03  0.80608597786E+02 0.  0.
          5    1    5    5  501    0 -0.79941114254E+01 -0.92705458000E+01  0.23069485996E+01  0.13313934383E+02  0.47000000000E+01 0. -1.
        -11    1    6    6    0    0 -0.36325350056E+02 -0.37566177401E+01 -0.65314398632E+03  0.65416413085E+03  0.00000000000E+00 0.  1.
         12    1    6    6    0    0  0.15997650966E+02  0.16725894063E+02 -0.67139344822E+02  0.71016702203E+02  0.00000000000E+00 0. -1.
         -5    1    3    3    0  503 -0.21208226533E+02  0.16927061428E+02 -0.84365579716E+01  0.28802426836E+02  0.47000000000E+01 0.  1.
         13    1    4    4    0    0 -0.72627441947E+01  0.33570541500E+01 -0.30053471433E+03  0.30064120107E+03  0.00000000000E+00 0. -1.
        -14    1    4    4    0    0  0.56792781244E+02 -0.23982846100E+02 -0.17760446094E+03  0.18799984429E+03  0.00000000000E+00 0.  1.
<mgrwt>
<rscale>  2 0.17524603E+03</rscale>
<asrwt>0</asrwt>
<pdfrwt beam="1">  1       21 0.39527786E-02 0.17604489E+03</pdfrwt>
<pdfrwt beam="2">  1       21 0.18926850E+00 0.17604489E+03</pdfrwt>
<totfact> 0.63685837E+04</totfact>
</mgrwt>
</event>
<event>
12    1  0.1050690E-001  0.2286251E+03  0.7546771E-02  0.1127622E+00
         21   -1    0    0  503  502  0.00000000000E+00  0.00000000000E+00  0.62102660900E+02  0.62102660900E+02  0.00000000000E+00 0.  1.
         21   -1    0    0  501  503 -0.00000000000E+00 -0.00000000000E+00 -0.11607753240E+04  0.11607753240E+04  0.00000000000E+00 0. -1.
          6    2    1    2  501    0 -0.96143793058E+02 -0.11419265540E+03 -0.22857285087E+03  0.32324299702E+03  0.17308060399E+03 0.  0.
         24    2    3    3    0    0 -0.83227926047E+02 -0.15205236017E+02 -0.69049024562E+02  0.13500041423E+03  0.79367859823E+02 0.  0.
         -6    2    1    2    0  502  0.96143793058E+02  0.11419265540E+03 -0.87009981224E+03  0.89963498789E+03  0.17316418995E+03 0.  0.
        -24    2    5    5    0    0  0.12413773158E+03  0.70271412862E+02 -0.76529128643E+03  0.78250406446E+03  0.79332275582E+02 0.  0.
          5    1    3    3  501    0 -0.12915867011E+02 -0.98987419383E+02 -0.15952382631E+03  0.18824258279E+03  0.47000000000E+01 0. -1.
        -13    1    4    4    0    0 -0.72600897743E+02 -0.43488082053E+02 -0.58977350259E+02  0.10315246714E+03  0.00000000000E+00 0.  1.
         14    1    4    4    0    0 -0.10627028304E+02  0.28282846036E+02 -0.10071674303E+02  0.31847947089E+02  0.00000000000E+00 0. -1.
         -5    1    5    5    0  502 -0.27993938519E+02  0.43921242539E+02 -0.10480852581E+03  0.11713092343E+03  0.47000000000E+01 0.  1.
         11    1    6    6    0    0  0.30439895672E+02  0.17453823503E+01 -0.34905166582E+03  0.35038079145E+03  0.00000000000E+00 0. -1.
        -12    1    6    6    0    0  0.93697835904E+02  0.68526030511E+02 -0.41623962061E+03  0.43212327301E+03  0.00000000000E+00 0.  1.
<mgrwt>
<rscale>  2 0.22860925E+03</rscale>
<asrwt>0</asrwt>
<pdfrwt beam="1">  1       21 0.95542560E-02 0.22862508E+03</pdfrwt>
<pdfrwt beam="2">  1       21 0.17858081E+00 0.22862508E+03</pdfrwt>
<totfact> 0.15950675E+04</totfact>
</mgrwt>
</event>
<event>
12    1  0.1050690E-001  0.1890684E+03  0.7546771E-02  0.1159360E+00
         21   -1    0    0  503  502  0.00000000000E+00  0.00000000000E+00  0.22762017061E+03  0.22762017061E+03  0.00000000000E+00 0.  1.
         21   -1    0    0  501  503 -0.00000000000E+00 -0.00000000000E+00 -0.17686473781E+03  0.17686473781E+03  0.00000000000E+00 0.  1.
          6    2    1    2  501    0  0.74137995213E+02  0.14615118737E+02 -0.42654220406E+02  0.19382014770E+03  0.17331134731E+03 0.  0.
         24    2    3    3    0    0  0.19399943226E+02  0.10896783725E+02 -0.88877067443E+02  0.12192632363E+03  0.80447483396E+02 0.  0.
         -6    2    1    2    0  502 -0.74137995213E+02 -0.14615118737E+02  0.93409653200E+02  0.21066476072E+03  0.17304402350E+03 0.  0.
        -24    2    5    5    0    0 -0.81640892560E+02  0.25875778208E+01  0.12763189744E+03  0.17135218972E+03  0.79998379857E+02 0.  0.
          5    1    3    3  501    0  0.54738051987E+02  0.37183350122E+01  0.46222847036E+02  0.71893824065E+02  0.47000000000E+01 0. -1.
        -11    1    4    4    0    0  0.25896391540E+02  0.43212965357E+02 -0.56982110926E+02  0.76058822206E+02  0.00000000000E+00 0.  1.
         12    1    4    4    0    0 -0.64964483135E+01 -0.32316181633E+02 -0.31894956516E+02  0.45867501427E+02  0.00000000000E+00 0. -1.
         -5    1    5    5    0  502  0.75028973466E+01 -0.17202696558E+02 -0.34222244245E+02  0.39312570999E+02  0.47000000000E+01 0.  1.
         11    1    6    6    0    0 -0.53330874219E+02  0.39421791156E+02  0.60881747088E+02  0.90026923148E+02  0.00000000000E+00 0. -1.
        -12    1    6    6    0    0 -0.28310018340E+02 -0.36834213335E+02  0.66750150357E+02  0.81325266572E+02  0.00000000000E+00 0.  1.
<mgrwt>
<rscale>  2 0.18900714E+03</rscale>
<asrwt>0</asrwt>
<pdfrwt beam="1">  1       21 0.35018488E-01 0.18906842E+03</pdfrwt>
<pdfrwt beam="2">  1       21 0.27209960E-01 0.18906842E+03</pdfrwt>
<totfact> 0.10135534E+05</totfact>
</mgrwt>
</event>
<event>
12    1  0.1050690E-001  0.2008747E+03  0.7546771E-02  0.1150114E+00
         21   -1    0    0  503  502  0.00000000000E+00  0.00000000000E+00  0.10555894996E+04  0.10555894996E+04  0.00000000000E+00 0. -1.
         21   -1    0    0  501  503 -0.00000000000E+00 -0.00000000000E+00 -0.16800496989E+03  0.16800496989E+03  0.00000000000E+00 0. -1.
          6    2    1    2  501    0  0.34907684247E+02  0.83875706705E+02 -0.97246285166E+02  0.21848631703E+03  0.17327939911E+03 0.  0.
         24    2    3    3    0    0  0.62599092691E+02  0.57339018108E+02 -0.61242883257E+01  0.11950996505E+03  0.83897052600E+02 0.  0.
         -6    2    1    2    0  502 -0.34907684247E+02 -0.83875706705E+02  0.98483081490E+03  0.10051081525E+04  0.17915631063E+03 0.  0.
        -24    2    5    5    0    0 -0.17408869421E+02  0.58806038104E+01  0.72369000479E+03  0.72837901326E+03  0.80443232686E+02 0.  0.
          5    1    3    3  501    0 -0.27691408444E+02  0.26536688597E+02 -0.91121996841E+02  0.98976351981E+02  0.47000000000E+01 0. -1.
        -13    1    4    4    0    0  0.53975195686E+00  0.32192457858E+02  0.29495394438E+02  0.43664905453E+02  0.00000000000E+00 0.  1.
         14    1    4    4    0    0  0.62059340734E+02  0.25146560249E+02 -0.35619682764E+02  0.75845059594E+02  0.00000000000E+00 0. -1.
         -5    1    5    5    0  502 -0.17498814825E+02 -0.89756310515E+02  0.26114081011E+03  0.27672913924E+03  0.47000000000E+01 0.  1.
         11    1    6    6    0    0  0.50541624267E+01  0.17513425931E+02  0.37227658213E+02  0.41450731980E+02  0.00000000000E+00 0. -1.
        -12    1    6    6    0    0 -0.22463031848E+02 -0.11632822120E+02  0.68646234658E+03  0.68692828128E+03  0.00000000000E+00 0.  1.
<mgrwt>
<rscale>  2 0.19955595E+03</rscale>
<asrwt>0</asrwt>
<pdfrwt beam="1">  1       21 0.16239838E+00 0.20087475E+03</pdfrwt>
<pdfrwt beam="2">  1       21 0.25846919E-01 0.20087475E+03</pdfrwt>
<totfact> 0.34105498E+03</totfact>
</mgrwt>
</event>
<event>
12    1  0.1050690E-001  0.2204629E+03  0.7546771E-02  0.1133715E+00
         21   -1    0    0  501  502  0.00000000000E+00  0.00000000000E+00  0.23695590580E+02  0.23695590580E+02  0.00000000000E+00 0. -1.
         21   -1    0    0  502  503 -0.00000000000E+00 -0.00000000000E+00 -0.21590618886E+04  0.21590618886E+04  0.00000000000E+00 0. -1.
         -6    2    1    2    0  503 -0.15843161042E+02  0.13390160752E+03 -0.13235747718E+04  0.13418100023E+04  0.17442264607E+03 0.  0.
        -24    2    3    3    0    0 -0.54744147331E+01  0.15611677217E+03 -0.12723012513E+04  0.12847829180E+04  0.86684811236E+02 0.  0.
          6    2    1    2  501    0  0.15843161042E+02 -0.13390160752E+03 -0.81179152624E+03  0.84094747691E+03  0.17322393193E+03 0.  0.
         24    2    5    5    0    0  0.42671085974E+02 -0.14462168774E+03 -0.77425390433E+03  0.79334683894E+03  0.84816533449E+02 0.  0.
          5    1    5    5  501    0 -0.26827924932E+02  0.10720080221E+02 -0.37537621917E+02  0.47600637972E+02  0.47000000000E+01 0. -1.
        -13    1    6    6    0    0  0.63055932645E+02 -0.10650830332E+03 -0.65281878967E+03  0.66444897582E+03  0.00000000000E+00 0.  1.
         14    1    6    6    0    0 -0.20384846671E+02 -0.38113384419E+02 -0.12143511465E+03  0.12889786312E+03  0.00000000000E+00 0. -1.
         -5    1    3    3    0  503 -0.10368746309E+02 -0.22215164656E+02 -0.51273520470E+02  0.57027084285E+02  0.47000000000E+01 0.  1.
         11    1    4    4    0    0 -0.26143792354E+02  0.14938143482E+03 -0.97889554360E+03  0.99057296361E+03  0.00000000000E+00 0. -1.
        -12    1    4    4    0    0  0.20669377621E+02  0.67353373522E+01 -0.29340570774E+03  0.29420995441E+03  0.00000000000E+00 0.  1.
<mgrwt>
<rscale>  2 0.22022576E+03</rscale>
<asrwt>0</asrwt>
<pdfrwt beam="1">  1       21 0.36454747E-02 0.22046294E+03</pdfrwt>
<pdfrwt beam="2">  1       21 0.33216344E+00 0.22046294E+03</pdfrwt>
<totfact> 0.98771061E+03</totfact>
</mgrwt>
</event>
<event>
12    1  0.1050690E-001  0.1745667E+03  0.7546771E-02  0.1173194E+00
         21   -1    0    0  503  502  0.00000000000E+00  0.00000000000E+00  0.17906848020E+03  0.17906848020E+03  0.00000000000E+00 0. -1.
         21   -1    0    0  501  503 -0.00000000000E+00 -0.00000000000E+00 -0.21512284562E+03  0.21512284562E+03  0.00000000000E+00 0. -1.
          6    2    1    2  501    0  0.20358285086E+02  0.15759254054E+02  0.72160283668E+02  0.18889318914E+03  0.17265780175E+03 0.  0.
         24    2    3    3    0    0  0.49059012920E+02 -0.11787472817E+02  0.10169239701E+03  0.13912583380E+03  0.80429613686E+02 0.  0.
         -6    2    1    2    0  502 -0.20358285086E+02 -0.15759254054E+02 -0.10821464909E+03  0.20529813668E+03  0.17255173366E+03 0.  0.
        -24    2    5    5    0    0 -0.15021635332E+01  0.56892067248E+02 -0.52453167897E+02  0.11167548669E+03  0.80505376803E+02 0.  0.
          5    1    3    3  501    0 -0.28700727834E+02  0.27546726872E+02 -0.29532113339E+02  0.49767355343E+02  0.47000000000E+01 0. -1.
        -13    1    4    4    0    0  0.32178153531E+02 -0.46261648879E+02  0.64965717722E+02  0.86000687211E+02  0.00000000000E+00 0.  1.
         14    1    4    4    0    0  0.16880859389E+02  0.34474176062E+02  0.36726679285E+02  0.53125146590E+02  0.00000000000E+00 0. -1.
         -5    1    5    5    0  502 -0.18856121552E+02 -0.72651321302E+02 -0.55761481191E+02  0.93622649992E+02  0.47000000000E+01 0.  1.
         11    1    6    6    0    0  0.18467136349E+02 -0.13358690849E+02 -0.24533196460E+02  0.33486825389E+02  0.00000000000E+00 0. -1.
        -12    1    6    6    0    0 -0.19969299882E+02  0.70250758098E+02 -0.27919971437E+02  0.78188661302E+02  0.00000000000E+00 0.  1.
<mgrwt>
<rscale>  2 0.17454046E+03</rscale>
<asrwt>0</asrwt>
<pdfrwt beam="1">  1       21 0.27548997E-01 0.17456669E+03</pdfrwt>
<pdfrwt beam="2">  1       21 0.33095822E-01 0.17456669E+03</pdfrwt>
<totfact> 0.11124078E+05</totfact>
</mgrwt>
</event>
<event>
12    1  0.1050690E-001  0.1778938E+03  0.7546771E-02  0.1170343E+00
         21   -1    0    0  503  502  0.00000000000E+00  0.00000000000E+00  0.10537177380E+03  0.10537177380E+03  0.00000000000E+00 0.  1.
         21   -1    0    0  501  503 -0.00000000000E+00 -0.00000000000E+00 -0.51866248127E+03  0.51866248127E+03  0.00000000000E+00 0.  1.
          6    2    1    2  501    0  0.48265232218E+02 -0.16213378078E+01 -0.41126905897E+03  0.44809421948E+03  0.17121340276E+03 0.  0.
         24    2    3    3    0    0  0.94679766514E+02  0.67739213602E+01 -0.34577987954E+03  0.36725046899E+03  0.79366477065E+02 0.  0.
         -6    2    1    2    0  502 -0.48265232218E+02  0.16213378078E+01 -0.20216484986E+01  0.17594003559E+03  0.16917046930E+03 0.  0.
        -24    2    5    5    0    0 -0.27376850810E+02  0.46530866149E+02 -0.47751900715E+02  0.10836388461E+03  0.80918934749E+02 0.  0.
          5    1    3    3  501    0 -0.46414534296E+02 -0.83952591679E+01 -0.65489179433E+02  0.80843750489E+02  0.47000000000E+01 0. -1.
        -13    1    4    4    0    0  0.69641399044E+01  0.30742927009E+02 -0.67651724404E+02  0.74634995951E+02  0.00000000000E+00 0.  1.
         14    1    4    4    0    0  0.87715626610E+02 -0.23969005649E+02 -0.27812815513E+03  0.29261547304E+03  0.00000000000E+00 0. -1.
         -5    1    5    5    0  502 -0.20888381408E+02 -0.44909528341E+02  0.45730252216E+02  0.67576150981E+02  0.47000000000E+01 0.  1.
         11    1    6    6    0    0 -0.36219084970E+02  0.22715671672E+02 -0.64898413380E+02  0.77715043041E+02  0.00000000000E+00 0. -1.
        -12    1    6    6    0    0  0.88422341600E+01  0.23815194477E+02  0.17146512665E+02  0.30648841569E+02  0.00000000000E+00 0.  1.
<mgrwt>
<rscale>  2 0.17740038E+03</rscale>
<asrwt>0</asrwt>
<pdfrwt beam="1">  1       21 0.16211042E-01 0.17789376E+03</pdfrwt>
<pdfrwt beam="2">  1       21 0.79794226E-01 0.17789376E+03</pdfrwt>
<totfact> 0.47435945E+04</totfact>
</mgrwt>
</event>
<event>
12    1  0.1050690E-001  0.2062865E+03  0.7546771E-02  0.1144783E+00
         21   -1    0    0  503  502  0.00000000000E+00  0.00000000000E+00  0.66258298901E+02  0.66258298901E+02  0.00000000000E+00 0. -1.
         21   -1    0    0  501  503 -0.00000000000E+00 -0.00000000000E+00 -0.11069611944E+04  0.11069611944E+04  0.00000000000E+00 0. -1.
          6    2    1    2  501    0 -0.11031135698E+03 -0.11741593713E+02 -0.90280998092E+03  0.92607774922E+03  0.17391858857E+03 0.  0.
         24    2    3    3    0    0 -0.62617602685E+02  0.23914498894E+02 -0.25609933876E+03  0.27661428156E+03  0.80222952000E+02 0.  0.
         -6    2    1    2    0  502  0.11031135698E+03  0.11741593713E+02 -0.13789291459E+03  0.24714174410E+03  0.17250543550E+03 0.  0.
        -24    2    5    5    0    0  0.70024210623E+02  0.54030298021E+02 -0.14507365981E+03  0.18810750170E+03  0.80718041641E+02 0.  0.
          5    1    3    3  501    0 -0.47693754297E+02 -0.35656092607E+02 -0.64671064216E+03  0.64946346766E+03  0.47000000000E+01 0. -1.
        -11    1    4    4    0    0 -0.48034567325E+02 -0.62026516103E+01 -0.57339477542E+02  0.75057366260E+02  0.00000000000E+00 0.  1.
         12    1    4    4    0    0 -0.14583035360E+02  0.30117150504E+02 -0.19875986122E+03  0.20155691530E+03  0.00000000000E+00 0. -1.
         -5    1    5    5    0  502  0.40287146360E+02 -0.42288704308E+02  0.71807452168E+01  0.59034242399E+02  0.47000000000E+01 0.  1.
         11    1    6    6    0    0  0.58206123097E+02  0.77503534909E+01 -0.35603560281E+02  0.68670475824E+02  0.00000000000E+00 0. -1.
        -12    1    6    6    0    0  0.11818087527E+02  0.46279944530E+02 -0.10947009953E+03  0.11943702587E+03  0.00000000000E+00 0.  1.
<mgrwt>
<rscale>  2 0.20598839E+03</rscale>
<asrwt>0</asrwt>
<pdfrwt beam="1">  1       21 0.10193585E-01 0.20628654E+03</pdfrwt>
<pdfrwt beam="2">  1       21 0.17030172E+00 0.20628654E+03</pdfrwt>
<totfact> 0.16492962E+04</totfact>
</mgrwt>
</event>
<event>
12    1  0.1050690E-001  0.2251850E+03  0.7546771E-02  0.1130626E+00
         21   -1    0    0  503  502  0.00000000000E+00  0.00000000000E+00  0.13730724205E+03  0.13730724205E+03  0.00000000000E+00 0. -1.
         21   -1    0    0  501  503 -0.00000000000E+00 -0.00000000000E+00 -0.10472355108E+04  0.10472355108E+04  0.00000000000E+00 0. -1.
          6    2    1    2  501    0  0.72245768764E+02 -0.11956461243E+03 -0.93215492153E+03  0.95826343371E+03  0.17274508099E+03 0.  0.
         24    2    3    3    0    0  0.10853895693E+03 -0.53042836166E+02 -0.65705460383E+03  0.67287840078E+03  0.80314022281E+02 0.  0.
         -6    2    1    2    0  502 -0.72245768764E+02  0.11956461243E+03  0.22226652770E+02  0.22627931915E+03  0.17661585017E+03 0.  0.
        -24    2    5    5    0    0 -0.94851317030E+01  0.12502289106E+03 -0.19958649317E+02  0.15031630129E+03  0.80473298290E+02 0.  0.
          5    1    3    3  501    0 -0.36293188169E+02 -0.66521776267E+02 -0.27510031769E+03  0.28538503293E+03  0.47000000000E+01 0. -1.
        -11    1    4    4    0    0  0.88304007900E+02 -0.15272648544E+02 -0.29539413038E+03  0.30868842523E+03  0.00000000000E+00 0.  1.
         12    1    4    4    0    0  0.20234949033E+02 -0.37770187622E+02 -0.36166047345E+03  0.36418997555E+03  0.00000000000E+00 0. -1.
         -5    1    5    5    0  502 -0.62760637060E+02 -0.54582786314E+01  0.42185302086E+02  0.75963017857E+02  0.47000000000E+01 0.  1.
         13    1    6    6    0    0 -0.38940568731E+02  0.33557026993E+02 -0.17127077993E+02  0.54182827116E+02  0.00000000000E+00 0. -1.
        -14    1    6    6    0    0  0.29455437028E+02  0.91465864072E+02 -0.28315713237E+01  0.96133474175E+02  0.00000000000E+00 0.  1.
<mgrwt>
<rscale>  2 0.22442548E+03</rscale>
<asrwt>0</asrwt>
<pdfrwt beam="1">  1       21 0.21124191E-01 0.22518505E+03</pdfrwt>
<pdfrwt beam="2">  1       21 0.16111316E+00 0.22518505E+03</pdfrwt>
<totfact> 0.50121819E+03</totfact>
</mgrwt>
</event>
<event>
12    1  0.1050690E-001  0.2390774E+03  0.7546771E-02  0.1121297E+00
         21   -1    0    0  503  502  0.00000000000E+00  0.00000000000E+00  0.31431172929E+03  0.31431172929E+03  0.00000000000E+00 0. -1.
         21   -1    0    0  501  503 -0.00000000000E+00 -0.00000000000E+00 -0.27914105680E+03  0.27914105680E+03  0.00000000000E+00 0. -1.
          6    2    1    2  501    0  0.81423487065E+02 -0.14362060158E+03 -0.16124376123E+03  0.28403944802E+03  0.16559648562E+03 0.  0.
         24    2    3    3    0    0  0.85438421852E+02 -0.82819922102E+02 -0.16983450539E+03  0.22232451294E+03  0.80159630775E+02 0.  0.
         -6    2    1    2    0  502 -0.81423487065E+02  0.14362060158E+03  0.19641443372E+03  0.30941333807E+03  0.17291998889E+03 0.  0.
        -24    2    5    5    0    0 -0.64643816211E+02  0.15425535995E+03  0.99875474081E+02  0.21073955144E+03  0.80389732999E+02 0.  0.
          5    1    3    3  501    0 -0.40149347870E+01 -0.60800679482E+02  0.85907441585E+01  0.61714935081E+02  0.47000000000E+01 0. -1.
        -11    1    4    4    0    0 -0.34171765664E+01  0.30451730915E+01  0.59186414349E+01  0.74820111786E+01  0.00000000000E+00 0.  1.
         12    1    4    4    0    0  0.88855598418E+02 -0.85865095193E+02 -0.17575314683E+03  0.21484250176E+03  0.00000000000E+00 0. -1.
         -5    1    5    5    0  502 -0.16779670854E+02 -0.10634758366E+02  0.96538959638E+02  0.98673786628E+02  0.47000000000E+01 0.  1.
         11    1    6    6    0    0 -0.11597532045E+02  0.53981353477E+02  0.77430437585E+02  0.95099747304E+02  0.00000000000E+00 0. -1.
        -12    1    6    6    0    0 -0.53046284165E+02  0.10027400647E+03  0.22445036497E+02  0.11563980414E+03  0.00000000000E+00 0.  1.
<mgrwt>
<rscale>  2 0.23775588E+03</rscale>
<asrwt>0</asrwt>
<pdfrwt beam="1">  1       21 0.48355651E-01 0.23907736E+03</pdfrwt>
<pdfrwt beam="2">  1       21 0.42944778E-01 0.23907736E+03</pdfrwt>
<totfact> 0.20759689E+04</totfact>
</mgrwt>
</event>
<event>
12    1  0.1050690E-001  0.1917718E+03  0.7546771E-02  0.1156898E+00
         21   -1    0    0  501  502  0.00000000000E+00  0.00000000000E+00  0.58080191201E+02  0.58080191201E+02  0.00000000000E+00 0. -1.
         21   -1    0    0  502  503 -0.00000000000E+00 -0.00000000000E+00 -0.71799924750E+03  0.71799924750E+03  0.00000000000E+00 0. -1.
         -6    2    1    2    0  503 -0.78226462460E+02 -0.27953856858E+02 -0.46369162686E+03  0.50178316768E+03  0.17284566817E+03 0.  0.
        -24    2    3    3    0    0 -0.11369330565E+03  0.37319179067E+01 -0.38954315415E+03  0.41356768552E+03  0.79713653789E+02 0.  0.
          6    2    1    2  501    0  0.78226462460E+02  0.27953856858E+02 -0.19622742944E+03  0.27429627102E+03  0.17272070718E+03 0.  0.
         24    2    5    5    0    0  0.94661295390E+02 -0.23098352475E+02 -0.17693640233E+03  0.21710653822E+03  0.79589344370E+02 0.  0.
          5    1    5    5  501    0 -0.16434832930E+02  0.51052209333E+02 -0.19291027117E+02  0.57189732806E+02  0.47000000000E+01 0. -1.
        -11    1    6    6    0    0  0.66248479615E+02  0.81075222366E+01 -0.15666083803E+03  0.17028567509E+03  0.00000000000E+00 0.  1.
         12    1    6    6    0    0  0.28412815776E+02 -0.31205874712E+02 -0.20275564297E+02  0.46820863132E+02  0.00000000000E+00 0. -1.
         -5    1    3    3    0  503  0.35466843185E+02 -0.31685774764E+02 -0.74148472713E+02  0.88215482165E+02  0.47000000000E+01 0.  1.
         11    1    4    4    0    0 -0.49037973898E+02  0.41154121733E+02 -0.19033545085E+03  0.20081326767E+03  0.00000000000E+00 0. -1.
        -12    1    4    4    0    0 -0.64655331747E+02 -0.37422203827E+02 -0.19920770329E+03  0.21275441785E+03  0.00000000000E+00 0.  1.
<mgrwt>
<rscale>  2 0.19174364E+03</rscale>
<asrwt>0</asrwt>
<pdfrwt beam="1">  1       21 0.89354140E-02 0.19177180E+03</pdfrwt>
<pdfrwt beam="2">  1       21 0.11046142E+00 0.19177180E+03</pdfrwt>
<totfact> 0.63985883E+04</totfact>
</mgrwt>
</event>
<event>
12    1  0.1050690E-001  0.2654337E+03  0.7546771E-02  0.1103976E+00
         21   -1    0    0  503  502  0.00000000000E+00  0.00000000000E+00  0.25645382998E+03  0.25645382998E+03  0.00000000000E+00 0.  1.
         21   -1    0    0  501  503 -0.00000000000E+00 -0.00000000000E+00 -0.34986998687E+03  0.34986998687E+03  0.00000000000E+00 0. -1.
          6    2    1    2  501    0 -0.18288661245E+03 -0.87448822573E+02 -0.18753286876E+03  0.32469816612E+03  0.17077913408E+03 0.  0.
         24    2    3    3    0    0 -0.17442773561E+02 -0.37728104463E+02 -0.82892250002E+02  0.12266954753E+03  0.80305868815E+02 0.  0.
         -6    2    1    2    0  502  0.18288661245E+03  0.87448822573E+02  0.94116711870E+02  0.28162565073E+03  0.17134830643E+03 0.  0.
        -24    2    5    5    0    0  0.12226368117E+03  0.44085749975E+02  0.12845786889E+03  0.19942528013E+03  0.79856478695E+02 0.  0.
          5    1    3    3  501    0 -0.16544383888E+03 -0.49720718110E+02 -0.10464061876E+03  0.20202861859E+03  0.47000000000E+01 0. -1.
        -13    1    4    4    0    0 -0.30497024099E+02 -0.41667174656E+02 -0.15500043723E+02  0.53911717448E+02  0.00000000000E+00 0.  1.
         14    1    4    4    0    0  0.13054250538E+02  0.39390701931E+01 -0.67392206279E+02  0.68757830087E+02  0.00000000000E+00 0. -1.
         -5    1    5    5    0  502  0.60622931273E+02  0.43363072598E+02 -0.34341157024E+02  0.82200370601E+02  0.47000000000E+01 0.  1.
         11    1    6    6    0    0  0.45245495857E+02 -0.20346036085E+02  0.26181272870E+02  0.56094341326E+02  0.00000000000E+00 0. -1.
        -12    1    6    6    0    0  0.77018185315E+02  0.64431786060E+02  0.10227659602E+03  0.14333093880E+03  0.00000000000E+00 0.  1.
<mgrwt>
<rscale>  2 0.26534189E+03</rscale>
<asrwt>0</asrwt>
<pdfrwt beam="1">  1       21 0.39454435E-01 0.26543370E+03</pdfrwt>
<pdfrwt beam="2">  1       21 0.53826152E-01 0.26543370E+03</pdfrwt>
<totfact> 0.19451229E+04</totfact>
</mgrwt>
</event>
<event>
12    1  0.1050690E-001  0.2482357E+03  0.7546771E-02  0.1114429E+00
         21   -1    0    0  501  502  0.00000000000E+00  0.00000000000E+00  0.88882651706E+03  0.88882651706E+03  0.00000000000E+00 0.  1.
         21   -1    0    0  502  503 -0.00000000000E+00 -0.00000000000E+00 -0.86169143999E+02  0.86169143999E+02  0.00000000000E+00 0.  1.
         -6    2    1    2    0  503  0.42848986765E+02  0.17325545109E+03  0.18578784524E+03  0.31006141240E+03  0.17253251583E+03 0.  0.
        -24    2    3    3    0    0 -0.27437592398E+02  0.11617859845E+03  0.16120019721E+03  0.21612200238E+03  0.80454509629E+02 0.  0.
          6    2    1    2  501    0 -0.42848986765E+02 -0.17325545109E+03  0.61686952782E+03  0.66493424866E+03  0.17249943099E+03 0.  0.
         24    2    5    5    0    0 -0.83376433362E+02 -0.59131371394E+02  0.31006057076E+03  0.33505456511E+03  0.75338272696E+02 0.  0.
          5    1    5    5  501    0  0.40527446597E+02 -0.11412407969E+03  0.30680895705E+03  0.32987968355E+03  0.47000000000E+01 0. -1.
        -11    1    6    6    0    0 -0.80931701355E+01  0.72035003726E+01  0.11677637331E+03  0.11727792284E+03  0.00000000000E+00 0.  1.
         12    1    6    6    0    0 -0.75283263227E+02 -0.66334871767E+02  0.19328419745E+03  0.21777664227E+03  0.00000000000E+00 0. -1.
         -5    1    3    3    0  503  0.70286579163E+02  0.57076852641E+02  0.24587648033E+02  0.93939410013E+02  0.47000000000E+01 0.  1.
         11    1    4    4    0    0 -0.65726136324E+01 -0.12145600865E+02  0.18376593607E+02  0.22987258708E+02  0.00000000000E+00 0. -1.
        -12    1    4    4    0    0 -0.20864978765E+02  0.12832419931E+03  0.14282360360E+03  0.19313474367E+03  0.00000000000E+00 0.  1.
<mgrwt>
<rscale>  2 0.24822994E+03</rscale>
<asrwt>0</asrwt>
<pdfrwt beam="1">  1       21 0.13674254E+00 0.24823569E+03</pdfrwt>
<pdfrwt beam="2">  1       21 0.13256792E-01 0.24823569E+03</pdfrwt>
<totfact> 0.18036236E+04</totfact>
</mgrwt>
</event>
<event>
12    1  0.1050690E-001  0.2398225E+03  0.7546771E-02  0.1119916E+00
         21   -1    0    0  503  502  0.00000000000E+00  0.00000000000E+00  0.21556303559E+03  0.21556303559E+03  0.00000000000E+00 0. -1.
         21   -1    0    0  501  503 -0.00000000000E+00 -0.00000000000E+00 -0.27548691178E+03  0.27548691178E+03  0.00000000000E+00 0.  1.
          6    2    1    2  501    0 -0.11298268728E+03 -0.12173381123E+03 -0.73602973368E+02  0.25083764592E+03  0.17296796958E+03 0.  0.
         24    2    3    3    0    0 -0.84513838824E+02 -0.15653652008E+03 -0.55582984332E+02  0.20217026588E+03  0.78339499536E+02 0.  0.
         -6    2    1    2    0  502  0.11298268728E+03  0.12173381123E+03  0.13679097179E+02  0.24021230145E+03  0.17300469255E+03 0.  0.
        -24    2    5    5    0    0  0.99573391080E+02  0.15560530672E+03  0.31824242311E+01  0.20201076255E+03  0.81672202558E+02 0.  0.
          5    1    3    3  501    0 -0.28468848460E+02  0.34802708846E+02 -0.18019989036E+02  0.48667380045E+02  0.47000000000E+01 0. -1.
        -11    1    4    4    0    0 -0.42184947281E+02 -0.70152659603E+02 -0.66350293526E+02  0.10537232501E+03  0.00000000000E+00 0.  1.
         12    1    4    4    0    0 -0.42328891543E+02 -0.86383860475E+02  0.10767309193E+02  0.96797940872E+02  0.00000000000E+00 0. -1.
         -5    1    5    5    0  502  0.13409296204E+02 -0.33871495488E+02  0.10496672948E+02  0.38201538899E+02  0.47000000000E+01 0.  1.
         13    1    6    6    0    0  0.31460594482E+02  0.11999293627E+03  0.12085340756E+02  0.12463598687E+03  0.00000000000E+00 0. -1.
        -14    1    6    6    0    0  0.68112796599E+02  0.35612370446E+02 -0.89029165248E+01  0.77374775682E+02  0.00000000000E+00 0.  1.
<mgrwt>
<rscale>  2 0.23981588E+03</rscale>
<asrwt>0</asrwt>
<pdfrwt beam="1">  1       21 0.33163544E-01 0.23982250E+03</pdfrwt>
<pdfrwt beam="2">  1       21 0.42382601E-01 0.23982250E+03</pdfrwt>
<totfact> 0.45881384E+04</totfact>
</mgrwt>
</event>
<event>
12    1  0.1050690E-001  0.1803295E+03  0.7546771E-02  0.1167873E+00
         21   -1    0    0  501  502  0.00000000000E+00  0.00000000000E+00  0.21402186714E+03  0.21402186714E+03  0.00000000000E+00 0. -1.
         21   -1    0    0  502  503 -0.00000000000E+00 -0.00000000000E+00 -0.31839680121E+03  0.31839680121E+03  0.00000000000E+00 0. -1.
         -6    2    1    2    0  503  0.48697723758E+02  0.71179867332E+01 -0.24533523321E+03  0.30353328207E+03  0.17181659591E+03 0.  0.
        -24    2    3    3    0    0  0.68190157900E+02  0.48708719037E+02 -0.10936255292E+03  0.15993521875E+03  0.81219882235E+02 0.  0.
          6    2    1    2  501    0 -0.48697723758E+02 -0.71179867332E+01  0.14096029914E+03  0.22888538628E+03  0.17348365941E+03 0.  0.
         24    2    5    5    0    0 -0.68242178268E+02  0.35909717109E+02  0.14329457784E+03  0.18133638148E+03  0.80019026074E+02 0.  0.
          5    1    5    5  501    0  0.19544454510E+02 -0.43027703843E+02 -0.23342786968E+01  0.47549004796E+02  0.47000000000E+01 0. -1.
        -13    1    6    6    0    0  0.14994905965E+02  0.22037275827E+02  0.37545553576E+02  0.46045166132E+02  0.00000000000E+00 0.  1.
         14    1    6    6    0    0 -0.83237084233E+02  0.13872441282E+02  0.10574902426E+03  0.13529121535E+03  0.00000000000E+00 0. -1.
         -5    1    3    3    0  503 -0.19492434142E+02 -0.41590732304E+02 -0.13597268029E+03  0.14359806332E+03  0.47000000000E+01 0.  1.
         13    1    4    4    0    0  0.57988133765E+02  0.31181507580E+02 -0.12011839353E+03  0.13697933617E+03  0.00000000000E+00 0. -1.
        -14    1    4    4    0    0  0.10202024135E+02  0.17527211457E+02  0.10755840609E+02  0.22955882582E+02  0.00000000000E+00 0.  1.
<mgrwt>
<rscale>  2 0.17992732E+03</rscale>
<asrwt>0</asrwt>
<pdfrwt beam="1">  1       21 0.32926441E-01 0.18032946E+03</pdfrwt>
<pdfrwt beam="2">  1       21 0.48984123E-01 0.18032946E+03</pdfrwt>
<totfact> 0.35537882E+04</totfact>
</mgrwt>
</event>
<event>
12    1  0.1050690E-001  0.1934192E+03  0.7546771E-02  0.1155788E+00
         21   -1    0    0  501  502  0.00000000000E+00  0.00000000000E+00  0.22397502194E+04  0.22397502194E+04  0.00000000000E+00 0. -1.
         21   -1    0    0  502  503 -0.00000000000E+00 -0.00000000000E+00 -0.39297591516E+02  0.39297591516E+02  0.00000000000E+00 0. -1.
         -6    2    1    2    0  503  0.52848341858E+02  0.63506134939E+02  0.23542917831E+03  0.30469307256E+03  0.17488565993E+03 0.  0.
        -24    2    3    3    0    0 -0.34833716324E+02  0.30014356875E+02  0.86130194731E+02  0.12827845008E+03  0.83202769776E+02 0.  0.
          6    2    1    2  501    0 -0.52848341858E+02 -0.63506134939E+02  0.19650234495E+04  0.19743547383E+04  0.17301300272E+03 0.  0.
         24    2    5    5    0    0 -0.29439990377E+02  0.29633543902E+02  0.72445000309E+03  0.73006075509E+03  0.80100182181E+02 0.  0.
          5    1    5    5  501    0 -0.23408351481E+02 -0.93139678842E+02  0.12405734464E+04  0.12442939832E+04  0.47000000000E+01 0. -1.
        -13    1    6    6    0    0 -0.30450914238E+02  0.22312358435E+02  0.12525468424E+03  0.13081985874E+03  0.00000000000E+00 0.  1.
         14    1    6    6    0    0  0.10109238606E+01  0.73211854675E+01  0.59919531886E+03  0.59924089635E+03  0.00000000000E+00 0. -1.
         -5    1    3    3    0  503  0.87682058183E+02  0.33491778064E+02  0.14929898358E+03  0.17641462248E+03  0.47000000000E+01 0.  1.
         11    1    4    4    0    0  0.10690122258E+02 -0.19647086573E+02  0.51751233810E+01  0.22957975231E+02  0.00000000000E+00 0. -1.
        -12    1    4    4    0    0 -0.45523838582E+02  0.49661443449E+02  0.80955071350E+02  0.10532047485E+03  0.00000000000E+00 0.  1.
<mgrwt>
<rscale>  2 0.19299488E+03</rscale>
<asrwt>0</asrwt>
<pdfrwt beam="1">  1       21 0.34457686E+00 0.19341916E+03</pdfrwt>
<pdfrwt beam="2">  1       21 0.60457851E-02 0.19341916E+03</pdfrwt>
<totfact> 0.36592785E+03</totfact>
</mgrwt>
</event>
<event>
12    1  0.1050690E-001  0.2408564E+03  0.7546771E-02  0.1120214E+00
         21   -1    0    0  501  502  0.00000000000E+00  0.00000000000E+00  0.14719183946E+04  0.14719183946E+04  0.00000000000E+00 0.  1.
         21   -1    0    0  502  503 -0.00000000000E+00 -0.00000000000E+00 -0.47094732555E+02  0.47094732555E+02  0.00000000000E+00 0.  1.
         -6    2    1    2    0  503  0.16015467895E+03 -0.44933546706E+02  0.39430032828E+03  0.46204386528E+03  0.17419311050E+03 0.  0.
        -24    2    3    3    0    0  0.12184791190E+03  0.23445693608E+02  0.32672918072E+03  0.35845294439E+03  0.79623750372E+02 0.  0.
          6    2    1    2  501    0 -0.16015467895E+03  0.44933546706E+02  0.10305233338E+04  0.10569692619E+04  0.16594316593E+03 0.  0.
         24    2    5    5    0    0 -0.13858570312E+03  0.58997963245E+02  0.55413629016E+03  0.57986368254E+03  0.80548776966E+02 0.  0.
          5    1    5    5  501    0 -0.21568975824E+02 -0.14064416538E+02  0.47638704360E+03  0.47710557935E+03  0.47000000000E+01 0. -1.
        -13    1    6    6    0    0 -0.10256315619E+03  0.10309465689E+02  0.42359547275E+03  0.43595712016E+03  0.00000000000E+00 0.  1.
         14    1    6    6    0    0 -0.36022546936E+02  0.48688497555E+02  0.13054081742E+03  0.14390656237E+03  0.00000000000E+00 0. -1.
         -5    1    3    3    0  503  0.38306767047E+02 -0.68379240315E+02  0.67571147566E+02  0.10359092089E+03  0.47000000000E+01 0.  1.
         11    1    4    4    0    0  0.38231595733E+02 -0.87230619207E+01  0.19655229773E+03  0.20042592763E+03  0.00000000000E+00 0. -1.
        -12    1    4    4    0    0  0.83616316169E+02  0.32168755529E+02  0.13017688299E+03  0.15802701676E+03  0.00000000000E+00 0.  1.
<mgrwt>
<rscale>  2 0.23936826E+03</rscale>
<asrwt>0</asrwt>
<pdfrwt beam="1">  1       21 0.22644895E+00 0.24085636E+03</pdfrwt>
<pdfrwt beam="2">  1       21 0.72453446E-02 0.24085636E+03</pdfrwt>
<totfact> 0.12601342E+04</totfact>
</mgrwt>
</event>
<event>
12    1  0.1050690E-001  0.1826906E+03  0.7546771E-02  0.1165407E+00
         21   -1    0    0  501  502  0.00000000000E+00  0.00000000000E+00  0.21474051269E+02  0.21474051269E+02  0.00000000000E+00 0.  1.
         21   -1    0    0  502  503 -0.00000000000E+00 -0.00000000000E+00 -0.15494682296E+04  0.15494682296E+04  0.00000000000E+00 0. -1.
         -6    2    1    2    0  503  0.49130289419E+02 -0.28228729347E+02 -0.78886975511E+03  0.80957459209E+03  0.17287244762E+03 0.  0.
        -24    2    3    3    0    0 -0.59514041784E+01 -0.36381964313E+00 -0.17474791180E+03  0.19234029737E+03  0.80139913504E+02 0.  0.
          6    2    1    2  501    0 -0.49130289419E+02  0.28228729347E+02 -0.73912442324E+03  0.76136768879E+03  0.17368131162E+03 0.  0.
         24    2    5    5    0    0 -0.53118981858E+01 -0.48123237479E+02 -0.37058261687E+03  0.38242860756E+03  0.81093166783E+02 0.  0.
          5    1    5    5  501    0 -0.43818391233E+02  0.76351966826E+02 -0.36854180636E+03  0.37893908123E+03  0.47000000000E+01 0. -1.
        -13    1    6    6    0    0 -0.43053087384E+01  0.96354699194E+01 -0.39431897925E+01  0.11266175466E+02  0.00000000000E+00 0.  1.
         14    1    6    6    0    0 -0.10065894474E+01 -0.57758707398E+02 -0.36663942708E+03  0.37116243209E+03  0.00000000000E+00 0. -1.
         -5    1    3    3    0  503  0.55081693597E+02 -0.27864909704E+02 -0.61412184330E+03  0.61723429472E+03  0.47000000000E+01 0.  1.
         11    1    4    4    0    0  0.39482789101E+01  0.39264687703E+02 -0.89342171846E+02  0.97669484881E+02  0.00000000000E+00 0. -1.
        -12    1    4    4    0    0 -0.98996830884E+01 -0.39628507346E+02 -0.85405739959E+02  0.94670812491E+02  0.00000000000E+00 0.  1.
<mgrwt>
<rscale>  2 0.18249807E+03</rscale>
<asrwt>0</asrwt>
<pdfrwt beam="1">  1       21 0.33036997E-02 0.18269057E+03</pdfrwt>
<pdfrwt beam="2">  1       21 0.23837976E+00 0.18269057E+03</pdfrwt>
<totfact> 0.42327948E+04</totfact>
</mgrwt>
</event>
<event>
12    1  0.1050690E-001  0.3835882E+03  0.7546771E-02  0.1049838E+00
         21   -1    0    0  501  502  0.00000000000E+00  0.00000000000E+00  0.16179668589E+04  0.16179668589E+04  0.00000000000E+00 0. -1.
         21   -1    0    0  502  503 -0.00000000000E+00 -0.00000000000E+00 -0.14757886752E+03  0.14757886752E+03  0.00000000000E+00 0.  1.
         -6    2    1    2    0  503 -0.26781446018E+03 -0.20935637770E+03  0.18411083318E+03  0.42329059659E+03  0.17240490799E+03 0.  0.
        -24    2    3    3    0    0 -0.12702448660E+03 -0.14238702025E+03  0.16926541226E+03  0.26660879158E+03  0.77589846162E+02 0.  0.
          6    2    1    2  501    0  0.26781446018E+03  0.20935637770E+03  0.12862771582E+04  0.13422551298E+04  0.17772233367E+03 0.  0.
         24    2    5    5    0    0  0.16673916198E+03  0.66344520179E+02  0.51587365020E+03  0.55218408085E+03  0.81105441740E+02 0.  0.
          5    1    5    5  501    0  0.10107529821E+03  0.14301185752E+03  0.77040350800E+03  0.79007104898E+03  0.47000000000E+01 0. -1.
        -13    1    6    6    0    0 -0.51254753571E+01 -0.37608672596E+01  0.35676423771E+01  0.72899034500E+01  0.00000000000E+00 0.  1.
         14    1    6    6    0    0  0.17186463733E+03  0.70105387439E+02  0.51230600782E+03  0.54489417740E+03  0.00000000000E+00 0. -1.
         -5    1    3    3    0  503 -0.14078997358E+03 -0.66969357445E+02  0.14845420919E+02  0.15668180501E+03  0.47000000000E+01 0.  1.
         13    1    4    4    0    0  0.50563313751E+01  0.56526972912E+01  0.65345969860E+01  0.10011015503E+02  0.00000000000E+00 0. -1.
        -14    1    4    4    0    0 -0.13208081798E+03 -0.14803971754E+03  0.16273081528E+03  0.25659777608E+03  0.00000000000E+00 0.  1.
<mgrwt>
<rscale>  2 0.38297812E+03</rscale>
<asrwt>0</asrwt>
<pdfrwt beam="1">  1       21 0.24891797E+00 0.38358820E+03</pdfrwt>
<pdfrwt beam="2">  1       21 0.22704442E-01 0.38358820E+03</pdfrwt>
<totfact> 0.10454717E+03</totfact>
</mgrwt>
</event>
<event>
12    1  0.1050690E-001  0.2216113E+03  0.7546771E-02  0.1132850E+00
         21   -1    0    0  503  502  0.00000000000E+00  0.00000000000E+00  0.13467661282E+03  0.13467661282E+03  0.00000000000E+00 0. -1.
         21   -1    0    0  501  503 -0.00000000000E+00 -0.00000000000E+00 -0.50126292078E+03  0.50126292078E+03  0.00000000000E+00 0. -1.
          6    2    1    2  501    0  0.13468669767E+03  0.27824971267E+02 -0.35042238455E+03  0.41461720867E+03  0.17377239878E+03 0.  0.
         24    2    3    3    0    0  0.86491620573E+02  0.90761435989E+01 -0.89907415223E+02  0.14897755945E+03  0.80918434835E+02 0.  0.
         -6    2    1    2    0  502 -0.13468669767E+03 -0.27824971267E+02 -0.16163923419E+02  0.22132232493E+03  0.17264867082E+03 0.  0.
        -24    2    5    5    0    0 -0.28199860806E+01 -0.30240198703E+02 -0.23898261931E+02  0.89123334984E+02  0.80308280870E+02 0.  0.
          5    1    3    3  501    0  0.48195077099E+02  0.18748827668E+02 -0.26051496932E+03  0.26563964922E+03  0.47000000000E+01 0. -1.
        -11    1    4    4    0    0 -0.14609741840E+02 -0.42863815421E+01 -0.20840891645E+02  0.25810083066E+02  0.00000000000E+00 0.  1.
         12    1    4    4    0    0  0.10110136241E+03  0.13362525141E+02 -0.69066523578E+02  0.12316747638E+03  0.00000000000E+00 0. -1.
         -5    1    5    5    0  502 -0.13186671159E+03  0.24152274367E+01  0.77343385118E+01  0.13219898994E+03  0.47000000000E+01 0.  1.
         13    1    6    6    0    0 -0.39929603615E+02 -0.74142538198E+01 -0.27800667026E+01  0.40707163687E+02  0.00000000000E+00 0. -1.
        -14    1    6    6    0    0  0.37109617534E+02 -0.22825944883E+02 -0.21118195228E+02  0.48416171297E+02  0.00000000000E+00 0.  1.
<mgrwt>
<rscale>  2 0.22139099E+03</rscale>
<asrwt>0</asrwt>
<pdfrwt beam="1">  1       21 0.20719479E-01 0.22161133E+03</pdfrwt>
<pdfrwt beam="2">  1       21 0.77117372E-01 0.22161133E+03</pdfrwt>
<totfact> 0.31781328E+04</totfact>
</mgrwt>
</event>
<event>
12    1  0.1050690E-001  0.3790438E+03  0.7546771E-02  0.1051315E+00
         21   -1    0    0  503  502  0.00000000000E+00  0.00000000000E+00  0.17799836692E+03  0.17799836692E+03  0.00000000000E+00 0. -1.
         21   -1    0    0  501  503 -0.00000000000E+00 -0.00000000000E+00 -0.18082692408E+04  0.18082692408E+04  0.00000000000E+00 0.  1.
          6    2    1    2  501    0 -0.24882495789E+03 -0.22761972685E+03 -0.15541762261E+04  0.15996611349E+04  0.17241637162E+03 0.  0.
         24    2    3    3    0    0 -0.17763799289E+03 -0.72822930094E+02 -0.79150162216E+03  0.81817263615E+03  0.77930796234E+02 0.  0.
         -6    2    1    2    0  502  0.24882495789E+03  0.22761972685E+03 -0.76094647835E+02  0.38660647282E+03  0.17305943974E+03 0.  0.
        -24    2    5    5    0    0  0.72811533308E+02  0.15295686944E+03 -0.30056137690E+02  0.18989119044E+03  0.80361492644E+02 0.  0.
          5    1    3    3  501    0 -0.71186965003E+02 -0.15479679675E+03 -0.76267460393E+03  0.78148849879E+03  0.47000000000E+01 0. -1.
        -11    1    4    4    0    0 -0.11321306099E+03 -0.60198613924E+02 -0.64518176327E+03  0.65779980081E+03  0.00000000000E+00 0.  1.
         12    1    4    4    0    0 -0.64424931892E+02 -0.12624316170E+02 -0.14631985890E+03  0.16037283534E+03  0.00000000000E+00 0. -1.
         -5    1    5    5    0  502  0.17601342458E+03  0.74662857403E+02 -0.46038510145E+02  0.19671528239E+03  0.47000000000E+01 0.  1.
         11    1    6    6    0    0  0.71060042560E+02  0.84166993460E+02  0.94285783299E+01  0.11055546357E+03  0.00000000000E+00 0. -1.
        -12    1    6    6    0    0  0.17514907480E+01  0.68789875983E+02 -0.39484716020E+02  0.79335726862E+02  0.00000000000E+00 0.  1.
<mgrwt>
<rscale>  2 0.37897044E+03</rscale>
<asrwt>0</asrwt>
<pdfrwt beam="1">  1       21 0.27384365E-01 0.37904376E+03</pdfrwt>
<pdfrwt beam="2">  1       21 0.27819526E+00 0.37904376E+03</pdfrwt>
<totfact> 0.48544068E+02</totfact>
</mgrwt>
</event>
<event>
12    1  0.1050690E-001  0.1788184E+03  0.7546771E-02  0.1168993E+00
         21   -1    0    0  501  502  0.00000000000E+00  0.00000000000E+00  0.23309638870E+03  0.23309638870E+03  0.00000000000E+00 0.  1.
         21   -1    0    0  502  503 -0.00000000000E+00 -0.00000000000E+00 -0.15481522112E+03  0.15481522112E+03  0.00000000000E+00 0.  1.
         -6    2    1    2    0  503 -0.31590887803E+02  0.33027510531E+02 -0.26549674272E+02  0.18077862883E+03  0.17287922604E+03 0.  0.
        -24    2    3    3    0    0 -0.82138396337E+02  0.47566027420E+02 -0.29068232540E+02  0.12791226686E+03  0.80668102451E+02 0.  0.
          6    2    1    2  501    0  0.31590887803E+02 -0.33027510531E+02  0.10483084186E+03  0.20713298098E+03  0.17270137742E+03 0.  0.
         24    2    5    5    0    0 -0.47403452454E+02 -0.22916576788E+02  0.74541296802E+02  0.12179902928E+03  0.80661898122E+02 0.  0.
          5    1    5    5  501    0  0.78994340257E+02 -0.10110933743E+02  0.30289545054E+02  0.85333951703E+02  0.47000000000E+01 0. -1.
        -13    1    6    6    0    0  0.31077340552E+01 -0.34218207346E+02  0.58084138043E+02  0.67485634154E+02  0.00000000000E+00 0.  1.
         14    1    6    6    0    0 -0.50511186509E+02  0.11301630558E+02  0.16457158758E+02  0.54313395127E+02  0.00000000000E+00 0. -1.
         -5    1    3    3    0  503  0.50547508534E+02 -0.14538516889E+02  0.25185582686E+01  0.52866361972E+02  0.47000000000E+01 0.  1.
         13    1    4    4    0    0 -0.33419416109E+01 -0.20299147101E+02 -0.47438940464E+01  0.21112282622E+02  0.00000000000E+00 0. -1.
        -14    1    4    4    0    0 -0.78796454726E+02  0.67865174522E+02 -0.24324338494E+02  0.10679998424E+03  0.00000000000E+00 0.  1.
<mgrwt>
<rscale>  2 0.17877542E+03</rscale>
<asrwt>0</asrwt>
<pdfrwt beam="1">  1       21 0.35860983E-01 0.17881842E+03</pdfrwt>
<pdfrwt beam="2">  1       21 0.23817726E-01 0.17881842E+03</pdfrwt>
<totfact> 0.12514927E+05</totfact>
</mgrwt>
</event>
<event>
12    1  0.1050690E-001  0.3296651E+03  0.7546771E-02  0.1071677E+00
         21   -1    0    0  503  502  0.00000000000E+00  0.00000000000E+00  0.56429165101E+03  0.56429165101E+03  0.00000000000E+00 0.  1.
         21   -1    0    0  501  503 -0.00000000000E+00 -0.00000000000E+00 -0.22190593456E+03  0.22190593456E+03  0.00000000000E+00 0. -1.
          6    2    1    2  501    0 -0.10740645808E+03  0.25373437650E+03  0.31976688468E+03  0.45927107607E+03  0.18100215391E+03 0.  0.
         24    2    3    3    0    0 -0.10312884326E+03  0.84687444252E+02  0.18856953426E+03  0.24519165611E+03  0.82176380133E+02 0.  0.
         -6    2    1    2    0  502  0.10740645808E+03 -0.25373437650E+03  0.22618831766E+02  0.32692650949E+03  0.17450515752E+03 0.  0.
        -24    2    5    5    0    0  0.10052767586E+03 -0.84000196271E+02 -0.11238417277E+02  0.15364808355E+03  0.79495817309E+02 0.  0.
          5    1    3    3  501    0 -0.42776148236E+01  0.16904693225E+03  0.13119735043E+03  0.21407941996E+03  0.47000000000E+01 0. -1.
        -13    1    4    4    0    0 -0.98828411443E+02  0.10011902929E+03  0.16814249622E+03  0.21923223752E+03  0.00000000000E+00 0.  1.
         14    1    4    4    0    0 -0.43004318159E+01 -0.15431585038E+02  0.20427038036E+02  0.25959418590E+02  0.00000000000E+00 0. -1.
         -5    1    5    5    0  502  0.68787822236E+01 -0.16973418023E+03  0.33857249043E+02  0.17327842594E+03  0.47000000000E+01 0.  1.
         13    1    6    6    0    0  0.73371111085E+02 -0.51101166681E+02  0.30003361275E+02  0.94312517016E+02  0.00000000000E+00 0. -1.
        -14    1    6    6    0    0  0.27156564774E+02 -0.32899029590E+02 -0.41241778552E+02  0.59335566538E+02  0.00000000000E+00 0.  1.
<mgrwt>
<rscale>  2 0.32878103E+03</rscale>
<asrwt>0</asrwt>
<pdfrwt beam="1">  1       21 0.86814100E-01 0.32966507E+03</pdfrwt>
<pdfrwt beam="2">  1       21 0.34139375E-01 0.32966507E+03</pdfrwt>
<totfact> 0.87512906E+03</totfact>
</mgrwt>
</event>
<event>
12    1  0.1050690E-001  0.1942801E+03  0.7546771E-02  0.1154782E+00
         21   -1    0    0  503  502  0.00000000000E+00  0.00000000000E+00  0.64344972934E+03  0.64344972934E+03  0.00000000000E+00 0. -1.
         21   -1    0    0  501  503 -0.00000000000E+00 -0.00000000000E+00 -0.63925759747E+02  0.63925759747E+02  0.00000000000E+00 0.  1.
          6    2    1    2  501    0 -0.20107693978E+02 -0.86003818320E+02  0.18699001296E+03  0.26964797077E+03  0.17304273192E+03 0.  0.
         24    2    3    3    0    0  0.43770554765E+02 -0.18547132752E+02  0.58193956403E+02  0.11077270751E+03  0.81389179690E+02 0.  0.
         -6    2    1    2    0  502  0.20107693978E+02  0.86003818320E+02  0.39253395663E+03  0.43772751831E+03  0.17239923740E+03 0.  0.
        -24    2    5    5    0    0 -0.11020419127E+02  0.14679532542E+02  0.32004471928E+03  0.33127145837E+03  0.83517773419E+02 0.  0.
          5    1    3    3  501    0 -0.63878248743E+02 -0.67456685568E+02  0.12879605655E+03  0.15887526326E+03  0.47000000000E+01 0. -1.
        -11    1    4    4    0    0  0.10939069294E+02 -0.24573134187E+01 -0.20855055019E+02  0.23677731017E+02  0.00000000000E+00 0.  1.
         12    1    4    4    0    0  0.32831485470E+02 -0.16089819333E+02  0.79049011422E+02  0.87094976498E+02  0.00000000000E+00 0. -1.
         -5    1    5    5    0  502  0.31128113105E+02  0.71324285778E+02  0.72489237351E+02  0.10645605994E+03  0.47000000000E+01 0.  1.
         13    1    6    6    0    0  0.13142642731E+02  0.44899655771E+02  0.17043888794E+03  0.17674309794E+03  0.00000000000E+00 0. -1.
        -14    1    6    6    0    0 -0.24163061858E+02 -0.30220123230E+02  0.14960583134E+03  0.15452836043E+03  0.00000000000E+00 0.  1.
<mgrwt>
<rscale>  2 0.19413672E+03</rscale>
<asrwt>0</asrwt>
<pdfrwt beam="1">  1       21 0.98992262E-01 0.19428012E+03</pdfrwt>
<pdfrwt beam="2">  1       21 0.98347327E-02 0.19428012E+03</pdfrwt>
<totfact> 0.70219790E+04</totfact>
</mgrwt>
</event>
<event>
12    1  0.1050690E-001  0.1960703E+03  0.7546771E-02  0.1153553E+00
         21   -1    0    0  501  502  0.00000000000E+00  0.00000000000E+00  0.24714118486E+03  0.24714118486E+03  0.00000000000E+00 0. -1.
         21   -1    0    0  502  503 -0.00000000000E+00 -0.00000000000E+00 -0.16375545406E+03  0.16375545406E+03  0.00000000000E+00 0. -1.
         -6    2    1    2    0  503  0.84591283399E+02  0.26592716186E+02 -0.85015937324E+01  0.19625453493E+03  0.17487340450E+03 0.  0.
        -24    2    3    3    0    0  0.68150740249E+02  0.26199968997E+02 -0.72197079017E+02  0.13030265433E+03  0.80220955702E+02 0.  0.
          6    2    1    2  501    0 -0.84591283399E+02 -0.26592716186E+02  0.91887324531E+02  0.21464210399E+03  0.17252563466E+03 0.  0.
         24    2    5    5    0    0 -0.21397201430E+02  0.47782513952E+02  0.31543708343E+02  0.99800435292E+02  0.78893044559E+02 0.  0.
          5    1    5    5  501    0 -0.63194081969E+02 -0.74375230138E+02  0.60343616188E+02  0.11484166869E+03  0.47000000000E+01 0. -1.
        -13    1    6    6    0    0  0.24714248094E+02 -0.43151887244E+01  0.73940982777E+01  0.26155068379E+02  0.00000000000E+00 0.  1.
         14    1    6    6    0    0 -0.46111449524E+02  0.52097702677E+02  0.24149610065E+02  0.73645366912E+02  0.00000000000E+00 0. -1.
         -5    1    3    3    0  503  0.16440543150E+02  0.39274718847E+00  0.63695485285E+02  0.65951880603E+02  0.47000000000E+01 0.  1.
         11    1    4    4    0    0  0.27143639475E+02  0.69607286463E+01  0.15189728879E+02  0.31874076781E+02  0.00000000000E+00 0. -1.
        -12    1    4    4    0    0  0.41007100774E+02  0.19239240351E+02 -0.87386807896E+02  0.98428577544E+02  0.00000000000E+00 0.  1.
<mgrwt>
<rscale>  2 0.19554544E+03</rscale>
<asrwt>0</asrwt>
<pdfrwt beam="1">  1       21 0.38021721E-01 0.19607031E+03</pdfrwt>
<pdfrwt beam="2">  1       21 0.25193147E-01 0.19607031E+03</pdfrwt>
<totfact> 0.99435266E+04</totfact>
</mgrwt>
</event>
<event>
12    1  0.1050690E-001  0.2710259E+03  0.7546771E-02  0.1100760E+00
         21   -1    0    0  503  502  0.00000000000E+00  0.00000000000E+00  0.46659337220E+03  0.46659337220E+03  0.00000000000E+00 0. -1.
         21   -1    0    0  501  503 -0.00000000000E+00 -0.00000000000E+00 -0.37757994329E+03  0.37757994329E+03  0.00000000000E+00 0. -1.
          6    2    1    2  501    0  0.14511261835E+02  0.20862881574E+03 -0.27797178962E+03  0.38823106983E+03  0.17239051100E+03 0.  0.
         24    2    3    3    0    0  0.36085087717E+02  0.45877876578E+02 -0.63132517624E+02  0.11780307396E+03  0.80529102426E+02 0.  0.
         -6    2    1    2    0  502 -0.14511261835E+02 -0.20862881574E+03  0.36698521853E+03  0.45594224566E+03  0.17166426911E+03 0.  0.
        -24    2    5    5    0    0  0.33895209483E+02 -0.19609367539E+03  0.25891670273E+03  0.33677341452E+03  0.82321680140E+02 0.  0.
          5    1    3    3  501    0 -0.21573825882E+02  0.16275093916E+03 -0.21483927200E+03  0.27042799587E+03  0.47000000000E+01 0. -1.
        -13    1    4    4    0    0  0.58158450913E+02  0.49402374301E+02 -0.54802298189E+02  0.93948346904E+02  0.00000000000E+00 0.  1.
         14    1    4    4    0    0 -0.22073363196E+02 -0.35244977235E+01 -0.83302194354E+01  0.23854727054E+02  0.00000000000E+00 0. -1.
         -5    1    5    5    0  502 -0.48406471318E+02 -0.12535140343E+02  0.10806851580E+03  0.11916883115E+03  0.47000000000E+01 0.  1.
         11    1    6    6    0    0  0.26644832012E+02 -0.16725197866E+03  0.25591871641E+03  0.30688362754E+03  0.00000000000E+00 0. -1.
        -12    1    6    6    0    0  0.72503774709E+01 -0.28841696735E+02  0.29979863119E+01  0.29889786984E+02  0.00000000000E+00 0.  1.
<mgrwt>
<rscale>  2 0.27091050E+03</rscale>
<asrwt>0</asrwt>
<pdfrwt beam="1">  1       21 0.71783596E-01 0.27102592E+03</pdfrwt>
<pdfrwt beam="2">  1       21 0.58089222E-01 0.27102592E+03</pdfrwt>
<totfact> 0.46147834E+03</totfact>
</mgrwt>
</event>
<event>
12    1  0.1050690E-001  0.3567303E+03  0.7546771E-02  0.1059962E+00
         21   -1    0    0  501  502  0.00000000000E+00  0.00000000000E+00  0.25357096546E+03  0.25357096546E+03  0.00000000000E+00 0. -1.
         21   -1    0    0  502  503 -0.00000000000E+00 -0.00000000000E+00 -0.53358255794E+03  0.53358255794E+03  0.00000000000E+00 0.  1.
         -6    2    1    2    0  503  0.20337291614E+03 -0.23609335020E+03 -0.23743307861E+03  0.42789121859E+03  0.17209246091E+03 0.  0.
        -24    2    3    3    0    0  0.14094204225E+03 -0.73156744348E+02 -0.10480877601E+03  0.20867158630E+03  0.85687705556E+02 0.  0.
          6    2    1    2  501    0 -0.20337291614E+03  0.23609335020E+03 -0.42578513870E+02  0.35926230481E+03  0.17365442922E+03 0.  0.
         24    2    5    5    0    0 -0.39528993061E+02  0.65627165743E+02 -0.51936942713E+02  0.12259117991E+03  0.80384607962E+02 0.  0.
          5    1    5    5  501    0 -0.16384392308E+03  0.17046618446E+03  0.93584288428E+01  0.23667112490E+03  0.47000000000E+01 0. -1.
        -13    1    6    6    0    0 -0.58754208857E+02  0.51368189998E+02 -0.16404574195E+02  0.79748718213E+02  0.00000000000E+00 0.  1.
         14    1    6    6    0    0  0.19225215796E+02  0.14258975745E+02 -0.35532368518E+02  0.42842461696E+02  0.00000000000E+00 0. -1.
         -5    1    3    3    0  503  0.62430873892E+02 -0.16293660585E+03 -0.13262430261E+03  0.21921963230E+03  0.47000000000E+01 0.  1.
         13    1    4    4    0    0 -0.76173751603E+01 -0.20744745351E+02 -0.67296209656E+01  0.23101009985E+02  0.00000000000E+00 0. -1.
        -14    1    4    4    0    0  0.14855941741E+03 -0.52411998997E+02 -0.98079155039E+02  0.18557057631E+03  0.00000000000E+00 0.  1.
<mgrwt>
<rscale>  2 0.35654067E+03</rscale>
<asrwt>0</asrwt>
<pdfrwt beam="1">  1       21 0.39010918E-01 0.35673025E+03</pdfrwt>
<pdfrwt beam="2">  1       21 0.82089623E-01 0.35673025E+03</pdfrwt>
<totfact> 0.75247428E+03</totfact>
</mgrwt>
</event>
<event>
12    1  0.1050690E-001  0.1751522E+03  0.7546771E-02  0.1173671E+00
         21   -1    0    0  503  502  0.00000000000E+00  0.00000000000E+00  0.48426482630E+03  0.48426482630E+03  0.00000000000E+00 0.  1.
         21   -1    0    0  501  503 -0.00000000000E+00 -0.00000000000E+00 -0.11047101893E+03  0.11047101893E+03  0.00000000000E+00 0.  1.
          6    2    1    2  501    0 -0.10761817446E+02  0.36957068979E+02 -0.91654800257E+01  0.17539184575E+03  0.17087027790E+03 0.  0.
         24    2    3    3    0    0 -0.66984832642E+01 -0.32051247627E+02  0.35174983378E+02  0.93131131311E+02  0.79774532347E+02 0.  0.
         -6    2    1    2    0  502  0.10761817446E+02 -0.36957068979E+02  0.38295928740E+03  0.41934399947E+03  0.16646300618E+03 0.  0.
        -24    2    5    5    0    0 -0.39167031974E+01 -0.61737461735E+02  0.12878801596E+03  0.16350293151E+03  0.79498432763E+02 0.  0.
          5    1    3    3  501    0 -0.40633341819E+01  0.69008316606E+02 -0.44340463403E+02  0.82260714441E+02  0.47000000000E+01 0. -1.
        -11    1    4    4    0    0  0.36158932781E+02 -0.81955219657E+01  0.17449485223E+02  0.40977061079E+02  0.00000000000E+00 0.  1.
         12    1    4    4    0    0 -0.42857416045E+02 -0.23855725661E+02  0.17725498155E+02  0.52154070231E+02  0.00000000000E+00 0. -1.
         -5    1    5    5    0  502  0.14678520644E+02  0.24780392756E+02  0.25417127143E+03  0.25584106796E+03  0.47000000000E+01 0.  1.
         13    1    6    6    0    0 -0.21864151979E+01  0.39155156548E+01  0.83745303943E+02  0.83865294412E+02  0.00000000000E+00 0. -1.
        -14    1    6    6    0    0 -0.17302879995E+01 -0.65652977390E+02  0.45042712020E+02  0.79637637100E+02  0.00000000000E+00 0.  1.
<mgrwt>
<rscale>  2 0.17406798E+03</rscale>
<asrwt>0</asrwt>
<pdfrwt beam="1">  1       21 0.74502280E-01 0.17515220E+03</pdfrwt>
<pdfrwt beam="2">  1       21 0.16995542E-01 0.17515220E+03</pdfrwt>
<totfact> 0.50795734E+04</totfact>
</mgrwt>
</event>
<event>
12    1  0.1050690E-001  0.1886827E+03  0.7546771E-02  0.1160444E+00
         21   -1    0    0  503  502  0.00000000000E+00  0.00000000000E+00  0.64782108802E+03  0.64782108802E+03  0.00000000000E+00 0.  1.
         21   -1    0    0  501  503 -0.00000000000E+00 -0.00000000000E+00 -0.54159798483E+02  0.54159798483E+02  0.00000000000E+00 0.  1.
          6    2    1    2  501    0  0.23893735997E+02 -0.68010682173E+02  0.31547783497E+03  0.36584520187E+03  0.17064607779E+03 0.  0.
         24    2    3    3    0    0  0.65929637338E+02 -0.44453648429E+02  0.13111136734E+03  0.17522769159E+03  0.84803946341E+02 0.  0.
         -6    2    1    2    0  502 -0.23893735997E+02  0.68010682173E+02  0.27818345456E+03  0.33613568463E+03  0.17436972380E+03 0.  0.
        -24    2    5    5    0    0 -0.52557447582E+02  0.69102460741E+02  0.10739602278E+03  0.16289239558E+03  0.86386292053E+02 0.  0.
          5    1    3    3  501    0 -0.42035901341E+02 -0.23557033744E+02  0.18436646763E+03  0.19061751029E+03  0.47000000000E+01 0. -1.
        -13    1    4    4    0    0 -0.41681510463E+01  0.17004338442E+02  0.45128566321E+02  0.48405666064E+02  0.00000000000E+00 0.  1.
         14    1    4    4    0    0  0.70097788384E+02 -0.61457986871E+02  0.85982801021E+02  0.12682202552E+03  0.00000000000E+00 0. -1.
         -5    1    5    5    0  502  0.28663711584E+02 -0.10917785678E+01  0.17078743179E+03  0.17324328905E+03  0.47000000000E+01 0.  1.
         13    1    6    6    0    0 -0.47807812231E+00  0.45991887881E+02  0.93568162296E+02  0.10426160993E+03  0.00000000000E+00 0. -1.
        -14    1    6    6    0    0 -0.52079369459E+02  0.23110572860E+02  0.13827860479E+02  0.58630785656E+02  0.00000000000E+00 0.  1.
<mgrwt>
<rscale>  2 0.18781785E+03</rscale>
<asrwt>0</asrwt>
<pdfrwt beam="1">  1       21 0.99664777E-01 0.18868271E+03</pdfrwt>
<pdfrwt beam="2">  1       21 0.83322772E-02 0.18868271E+03</pdfrwt>
<totfact> 0.92659846E+04</totfact>
</mgrwt>
</event>
<event>
12    1  0.1050690E-001  0.2129942E+03  0.7546771E-02  0.1140289E+00
         21   -1    0    0  501  502  0.00000000000E+00  0.00000000000E+00  0.43326358201E+02  0.43326358201E+02  0.00000000000E+00 0. -1.
         21   -1    0    0  502  503 -0.00000000000E+00 -0.00000000000E+00 -0.11330077707E+04  0.11330077707E+04  0.00000000000E+00 0. -1.
         -6    2    1    2    0  503 -0.30140775424E+02 -0.11041940707E+03 -0.73652014328E+03  0.76669971878E+03  0.17962634972E+03 0.  0.
        -24    2    3    3    0    0  0.48813954703E+02 -0.74771254155E+02 -0.36066424513E+03  0.38096096470E+03  0.84136890215E+02 0.  0.
          6    2    1    2  501    0  0.30140775424E+02  0.11041940707E+03 -0.35316126926E+03  0.40963441017E+03  0.17313739077E+03 0.  0.
         24    2    5    5    0    0  0.36409977822E+02  0.11264737087E+03 -0.36875700479E+03  0.39203941975E+03  0.60811688054E+02 0.  0.
          5    1    5    5  501    0 -0.62692023980E+01 -0.22279637971E+01  0.15595735526E+02  0.17594990423E+02  0.47000000000E+01 0. -1.
        -13    1    6    6    0    0  0.34041485380E+02  0.72961593658E+02 -0.15548672879E+03  0.17509523039E+03  0.00000000000E+00 0.  1.
         14    1    6    6    0    0  0.23684924419E+01  0.39685777213E+02 -0.21327027601E+03  0.21694418936E+03  0.00000000000E+00 0. -1.
         -5    1    3    3    0  503 -0.78954730127E+02 -0.35648152919E+02 -0.37585589815E+03  0.38573875407E+03  0.47000000000E+01 0.  1.
         13    1    4    4    0    0  0.12707028264E+02 -0.50646151386E+02 -0.71403488359E+02  0.88458800395E+02  0.00000000000E+00 0. -1.
        -14    1    4    4    0    0  0.36106926439E+02 -0.24125102768E+02 -0.28926075677E+03  0.29250216431E+03  0.00000000000E+00 0.  1.
<mgrwt>
<rscale>  2 0.21162021E+03</rscale>
<asrwt>0</asrwt>
<pdfrwt beam="1">  1       21 0.66655943E-02 0.21299422E+03</pdfrwt>
<pdfrwt beam="2">  1       21 0.17430887E+00 0.21299422E+03</pdfrwt>
<totfact> 0.32344763E+04</totfact>
</mgrwt>
</event>
<event>
12    1  0.1050690E-001  0.1729497E+03  0.7546771E-02  0.1174850E+00
         21   -1    0    0  503  502  0.00000000000E+00  0.00000000000E+00  0.52208784819E+03  0.52208784819E+03  0.00000000000E+00 0.  1.
         21   -1    0    0  501  503 -0.00000000000E+00 -0.00000000000E+00 -0.11384195035E+03  0.11384195035E+03  0.00000000000E+00 0.  1.
          6    2    1    2  501    0  0.41440430725E+01  0.14887926882E+01 -0.20142483325E+02  0.17394689066E+03  0.17272061700E+03 0.  0.
         24    2    3    3    0    0  0.42122750099E+02  0.56038352827E+02 -0.14158742938E+02  0.10704448526E+03  0.79645644950E+02 0.  0.
         -6    2    1    2    0  502 -0.41440430725E+01 -0.14887926882E+01  0.42838838116E+03  0.46198290788E+03  0.17289364495E+03 0.  0.
        -24    2    5    5    0    0 -0.42865765343E+02  0.39333263681E+02  0.15268758062E+03  0.18056003482E+03  0.76836511044E+02 0.  0.
          5    1    3    3  501    0 -0.37978707026E+02 -0.54549560138E+02 -0.59837403869E+01  0.66902405395E+02  0.47000000000E+01 0. -1.
        -13    1    4    4    0    0  0.42516059662E+02  0.29736714749E+02 -0.43451053863E+02  0.67674822608E+02  0.00000000000E+00 0.  1.
         14    1    4    4    0    0 -0.39330956285E+00  0.26301638078E+02  0.29292310925E+02  0.39369662652E+02  0.00000000000E+00 0. -1.
         -5    1    5    5    0  502  0.38721722271E+02 -0.40822056370E+02  0.27570080054E+03  0.28142287306E+03  0.47000000000E+01 0.  1.
         13    1    6    6    0    0 -0.27810337645E+02  0.28205094798E+02  0.16200361923E+02  0.42794789156E+02  0.00000000000E+00 0. -1.
        -14    1    6    6    0    0 -0.15055427698E+02  0.11128168883E+02  0.13648721870E+03  0.13776524567E+03  0.00000000000E+00 0.  1.
<mgrwt>
<rscale>  2 0.17290645E+03</rscale>
<asrwt>0</asrwt>
<pdfrwt beam="1">  1       21 0.80321206E-01 0.17294971E+03</pdfrwt>
<pdfrwt beam="2">  1       21 0.17514147E-01 0.17294971E+03</pdfrwt>
<totfact> 0.40663049E+04</totfact>
</mgrwt>
</event>
<event>
12    1  0.1050690E-001  0.1961090E+03  0.7546771E-02  0.1153584E+00
         21   -1    0    0  503  502  0.00000000000E+00  0.00000000000E+00  0.37062680214E+03  0.37062680214E+03  0.00000000000E+00 0. -1.
         21   -1    0    0  501  503 -0.00000000000E+00 -0.00000000000E+00 -0.10456787507E+03  0.10456787507E+03  0.00000000000E+00 0.  1.
          6    2    1    2  501    0 -0.40175374379E+02 -0.81803999617E+02  0.10047785281E+03  0.22035092146E+03  0.17364554306E+03 0.  0.
         24    2    3    3    0    0 -0.68938269245E+02 -0.51015981050E+02  0.87993618755E+01  0.11934477359E+03  0.82526546788E+02 0.  0.
         -6    2    1    2    0  502  0.40175374379E+02  0.81803999617E+02  0.16558107425E+03  0.25484375575E+03  0.17094529134E+03 0.  0.
        -24    2    5    5    0    0  0.34407779382E+02 -0.16255939118E+02  0.11065359178E+03  0.14220213348E+03  0.80802713773E+02 0.  0.
          5    1    3    3  501    0  0.28762894866E+02 -0.30788018566E+02  0.91678490936E+02  0.10100614787E+03  0.47000000000E+01 0. -1.
        -13    1    4    4    0    0 -0.60874712686E+02  0.55984465487E+01 -0.19257830667E+01  0.61161931696E+02  0.00000000000E+00 0.  1.
         14    1    4    4    0    0 -0.80635565587E+01 -0.56614427599E+02  0.10725144942E+02  0.58182841893E+02  0.00000000000E+00 0. -1.
         -5    1    5    5    0  502  0.57675949969E+01  0.98059938734E+02  0.54927482474E+02  0.11264162227E+03  0.47000000000E+01 0.  1.
         13    1    6    6    0    0 -0.23158534081E+01  0.82950457513E+01  0.94919344911E+02  0.95309249286E+02  0.00000000000E+00 0. -1.
        -14    1    6    6    0    0  0.36723632790E+02 -0.24550984869E+02  0.15734246870E+02  0.46892884192E+02  0.00000000000E+00 0.  1.
<mgrwt>
<rscale>  2 0.19550951E+03</rscale>
<asrwt>0</asrwt>
<pdfrwt beam="1">  1       21 0.57019507E-01 0.19610897E+03</pdfrwt>
<pdfrwt beam="2">  1       21 0.16087366E-01 0.19610897E+03</pdfrwt>
<totfact> 0.99612813E+04</totfact>
</mgrwt>
</event>
<event>
12    1  0.1050690E-001  0.2460398E+03  0.7546771E-02  0.1116099E+00
         21   -1    0    0  503  502  0.00000000000E+00  0.00000000000E+00  0.24546083557E+03  0.24546083557E+03  0.00000000000E+00 0.  1.
         21   -1    0    0  501  503 -0.00000000000E+00 -0.00000000000E+00 -0.33276631299E+03  0.33276631299E+03  0.00000000000E+00 0.  1.
          6    2    1    2  501    0  0.17268239927E+03  0.17038104350E+02 -0.19225617766E+03  0.31224676967E+03  0.17443078658E+03 0.  0.
         24    2    3    3    0    0  0.81237884985E+02  0.68316308146E+02 -0.67485061537E+02  0.14920850792E+03  0.80263524653E+02 0.  0.
         -6    2    1    2    0  502 -0.17268239927E+03 -0.17038104350E+02  0.10495070023E+03  0.26598037889E+03  0.17210869954E+03 0.  0.
        -24    2    5    5    0    0 -0.10474957036E+03 -0.57127363316E+02  0.13951020695E+02  0.14546046517E+03  0.82025043844E+02 0.  0.
          5    1    3    3  501    0  0.91444514282E+02 -0.51278203796E+02 -0.12477111612E+03  0.16303826175E+03  0.47000000000E+01 0. -1.
        -13    1    4    4    0    0  0.81097219387E+02  0.43645598864E+02 -0.79595159020E+02  0.12172545597E+03  0.00000000000E+00 0.  1.
         14    1    4    4    0    0  0.14066559813E+00  0.24670709282E+02  0.12110097483E+02  0.27483051947E+02  0.00000000000E+00 0. -1.
         -5    1    5    5    0  502 -0.67932828906E+02  0.40089258966E+02  0.90999679536E+02  0.12051991372E+03  0.47000000000E+01 0.  1.
         13    1    6    6    0    0 -0.90496752154E+02 -0.21085195116E+02 -0.18698489650E+02  0.94783337769E+02  0.00000000000E+00 0. -1.
        -14    1    6    6    0    0 -0.14252818207E+02 -0.36042168200E+02  0.32649510345E+02  0.50677127396E+02  0.00000000000E+00 0.  1.
<mgrwt>
<rscale>  2 0.24562863E+03</rscale>
<asrwt>0</asrwt>
<pdfrwt beam="1">  1       21 0.37763206E-01 0.24603985E+03</pdfrwt>
<pdfrwt beam="2">  1       21 0.51194817E-01 0.24603985E+03</pdfrwt>
<totfact> 0.23844368E+04</totfact>
</mgrwt>
</event>
<event>
12    1  0.1050690E-001  0.2939321E+03  0.7546771E-02  0.1088319E+00
         21   -1    0    0  503  502  0.00000000000E+00  0.00000000000E+00  0.26145461676E+03  0.26145461676E+03  0.00000000000E+00 0. -1.
         21   -1    0    0  501  503 -0.00000000000E+00 -0.00000000000E+00 -0.40199247534E+03  0.40199247534E+03  0.00000000000E+00 0.  1.
          6    2    1    2  501    0  0.22950987738E+03  0.61407014220E+02 -0.21026697725E+03  0.36139764132E+03  0.17306197796E+03 0.  0.
         24    2    3    3    0    0  0.20930079213E+03 -0.28599718502E+01 -0.16604305119E+03  0.28067281080E+03  0.85976338907E+02 0.  0.
         -6    2    1    2    0  502 -0.22950987738E+03 -0.61407014220E+02  0.69729118665E+02  0.30204945078E+03  0.17299166314E+03 0.  0.
        -24    2    5    5    0    0 -0.21990969676E+03 -0.19571794753E+02  0.19126174527E+02  0.23552804813E+03  0.79776694725E+02 0.  0.
          5    1    3    3  501    0  0.20209085255E+02  0.64266986071E+02 -0.44223926058E+02  0.80724830514E+02  0.47000000000E+01 0. -1.
        -13    1    4    4    0    0  0.48818427709E+02 -0.20078841637E+02 -0.85020885676E+02  0.10007472092E+03  0.00000000000E+00 0.  1.
         14    1    4    4    0    0  0.16048236442E+03  0.17218869787E+02 -0.81022165512E+02  0.18059808989E+03  0.00000000000E+00 0. -1.
         -5    1    5    5    0  502 -0.96001806198E+01 -0.41835219468E+02  0.50602944138E+02  0.66521402656E+02  0.47000000000E+01 0.  1.
         13    1    6    6    0    0 -0.55569872167E+02  0.61079436345E+01  0.38777942492E+02  0.68037096440E+02  0.00000000000E+00 0. -1.
        -14    1    6    6    0    0 -0.16433982460E+03 -0.25679738387E+02 -0.19651767966E+02  0.16749095169E+03  0.00000000000E+00 0.  1.
<mgrwt>
<rscale>  2 0.29392171E+03</rscale>
<asrwt>0</asrwt>
<pdfrwt beam="1">  1       21 0.40223787E-01 0.29393206E+03</pdfrwt>
<pdfrwt beam="2">  1       21 0.61844996E-01 0.29393206E+03</pdfrwt>
<totfact> 0.13692937E+04</totfact>
</mgrwt>
</event>
<event>
12    1  0.1050690E-001  0.2616206E+03  0.7546771E-02  0.1106981E+00
         21   -1    0    0  503  502  0.00000000000E+00  0.00000000000E+00  0.41906026009E+03  0.41906026009E+03  0.00000000000E+00 0. -1.
         21   -1    0    0  501  503 -0.00000000000E+00 -0.00000000000E+00 -0.16462445686E+03  0.16462445686E+03  0.00000000000E+00 0.  1.
          6    2    1    2  501    0  0.98332766999E+02 -0.17030464888E+03  0.77038873771E+02  0.26759136743E+03  0.16430808062E+03 0.  0.
         24    2    3    3    0    0  0.31173661185E+02 -0.15399325540E+03  0.90502662466E+02  0.19702387734E+03  0.77084087008E+02 0.  0.
         -6    2    1    2    0  502 -0.98332766999E+02  0.17030464888E+03  0.17739692946E+03  0.31609334952E+03  0.17254659815E+03 0.  0.
        -24    2    5    5    0    0 -0.60259249317E+02  0.11780043459E+03  0.33323838373E+02  0.15802554495E+03  0.79708689203E+02 0.  0.
          5    1    3    3  501    0  0.67159105814E+02 -0.16311393478E+02 -0.13463788695E+02  0.70567490085E+02  0.47000000000E+01 0. -1.
        -11    1    4    4    0    0 -0.25159774772E+02 -0.42906314216E+02  0.34024072995E+02  0.60262787932E+02  0.00000000000E+00 0.  1.
         12    1    4    4    0    0  0.56333435958E+02 -0.11108694118E+03  0.56478589471E+02  0.13676108941E+03  0.00000000000E+00 0. -1.
         -5    1    5    5    0  502 -0.38073517683E+02  0.52504214289E+02  0.14407309109E+03  0.15806780457E+03  0.47000000000E+01 0.  1.
         11    1    6    6    0    0  0.77953145320E+01  0.29447809604E+02  0.35115690228E+02  0.46487117778E+02  0.00000000000E+00 0. -1.
        -12    1    6    6    0    0 -0.68054563849E+02  0.88352624985E+02 -0.17918518553E+01  0.11153842717E+03  0.00000000000E+00 0.  1.
<mgrwt>
<rscale>  2 0.26027050E+03</rscale>
<asrwt>0</asrwt>
<pdfrwt beam="1">  1       21 0.64470809E-01 0.26162059E+03</pdfrwt>
<pdfrwt beam="2">  1       21 0.25326840E-01 0.26162059E+03</pdfrwt>
<totfact> 0.31701220E+04</totfact>
</mgrwt>
</event>
<event>
12    1  0.1050690E-001  0.3026877E+03  0.7546771E-02  0.1084593E+00
         21   -1    0    0  503  502  0.00000000000E+00  0.00000000000E+00  0.52641937919E+03  0.52641937919E+03  0.00000000000E+00 0.  1.
         21   -1    0    0  501  503 -0.00000000000E+00 -0.00000000000E+00 -0.66242779351E+03  0.66242779351E+03  0.00000000000E+00 0. -1.
          6    2    1    2  501    0 -0.10156403527E+03  0.21913143430E+03 -0.58020232688E+03  0.65441163184E+03  0.18244452582E+03 0.  0.
         24    2    3    3    0    0 -0.35470105367E+02  0.29942868108E+02 -0.12185880374E+03  0.15415010388E+03  0.82206950748E+02 0.  0.
         -6    2    1    2    0  502  0.10156403527E+03 -0.21913143430E+03  0.44419391256E+03  0.53443554086E+03  0.17314524719E+03 0.  0.
        -24    2    5    5    0    0 -0.27674755493E+02 -0.78487543716E+02  0.14910354285E+03  0.18289068556E+03  0.65505341491E+02 0.  0.
          5    1    3    3  501    0 -0.66093929899E+02  0.18918856619E+03 -0.45834352315E+03  0.50026152796E+03  0.47000000000E+01 0. -1.
        -11    1    4    4    0    0 -0.36499507010E+02  0.33112778001E+02 -0.21552244091E+02  0.53788189263E+02  0.00000000000E+00 0.  1.
         12    1    4    4    0    0  0.10294016433E+01 -0.31699098927E+01 -0.10030655965E+03  0.10036191461E+03  0.00000000000E+00 0. -1.
         -5    1    5    5    0  502  0.12923879076E+03 -0.14064389058E+03  0.29509036971E+03  0.35154485530E+03  0.47000000000E+01 0.  1.
         11    1    6    6    0    0 -0.93418502849E+01 -0.46415105734E+02  0.25276846000E+02  0.53670766258E+02  0.00000000000E+00 0. -1.
        -12    1    6    6    0    0 -0.18332905208E+02 -0.32072437982E+02  0.12382669685E+03  0.12921991930E+03  0.00000000000E+00 0.  1.
<mgrwt>
<rscale>  2 0.30130007E+03</rscale>
<asrwt>0</asrwt>
<pdfrwt beam="1">  1       21 0.80987597E-01 0.30268770E+03</pdfrwt>
<pdfrwt beam="2">  1       21 0.10191197E+00 0.30268770E+03</pdfrwt>
<totfact> 0.96037310E+02</totfact>
</mgrwt>
</event>
<event>
12    1  0.1050690E-001  0.2005323E+03  0.7546771E-02  0.1149448E+00
         21   -1    0    0  503  502  0.00000000000E+00  0.00000000000E+00  0.11882399158E+03  0.11882399158E+03  0.00000000000E+00 0. -1.
         21   -1    0    0  501  503 -0.00000000000E+00 -0.00000000000E+00 -0.69727657397E+03  0.69727657397E+03  0.00000000000E+00 0.  1.
          6    2    1    2  501    0  0.63406637030E+02 -0.79838844881E+02 -0.58220927234E+03  0.61553309081E+03  0.17181008793E+03 0.  0.
         24    2    3    3    0    0  0.67249506041E+02  0.15136203469E+02 -0.32259126396E+03  0.33902155809E+03  0.78223350421E+02 0.  0.
         -6    2    1    2    0  502 -0.63406637030E+02  0.79838844881E+02  0.37566899432E+01  0.20056747474E+03  0.17268050391E+03 0.  0.
        -24    2    5    5    0    0  0.25630579990E+02  0.54794378170E+02 -0.24643502554E+02  0.10369894393E+03  0.80540786214E+02 0.  0.
          5    1    3    3  501    0 -0.38428690106E+01 -0.94975048350E+02 -0.25961800838E+03  0.27651153272E+03  0.47000000000E+01 0. -1.
        -11    1    4    4    0    0  0.20691191747E+02 -0.31771743495E+02 -0.10639996424E+03  0.11295362540E+03  0.00000000000E+00 0.  1.
         12    1    4    4    0    0  0.46558314294E+02  0.46907946963E+02 -0.21619129972E+03  0.22606793270E+03  0.00000000000E+00 0. -1.
         -5    1    5    5    0  502 -0.89037217020E+02  0.25044466711E+02  0.28400192497E+02  0.96868530811E+02  0.47000000000E+01 0.  1.
         11    1    6    6    0    0  0.93442797855E+01  0.35063046393E+02  0.27557889557E+02  0.45565009206E+02  0.00000000000E+00 0. -1.
        -12    1    6    6    0    0  0.16286300204E+02  0.19731331776E+02 -0.52201392111E+02  0.58133934722E+02  0.00000000000E+00 0.  1.
<mgrwt>
<rscale>  2 0.20034477E+03</rscale>
<asrwt>0</asrwt>
<pdfrwt beam="1">  1       21 0.18280614E-01 0.20053229E+03</pdfrwt>
<pdfrwt beam="2">  1       21 0.10727332E+00 0.20053229E+03</pdfrwt>
<totfact> 0.18837982E+04</totfact>
</mgrwt>
</event>
<event>
12    1  0.1050690E-001  0.2204464E+03  0.7546771E-02  0.1135608E+00
         21   -1    0    0  503  502  0.00000000000E+00  0.00000000000E+00  0.20504992869E+03  0.20504992869E+03  0.00000000000E+00 0. -1.
         21   -1    0    0  501  503 -0.00000000000E+00 -0.00000000000E+00 -0.22898669362E+03  0.22898669362E+03  0.00000000000E+00 0. -1.
          6    2    1    2  501    0 -0.10115649782E+03 -0.60799439093E+02 -0.38229972368E+02  0.21312729091E+03  0.17329888199E+03 0.  0.
         24    2    3    3    0    0 -0.90655537009E+02 -0.16725411394E+02 -0.72780442977E+02  0.15595548741E+03  0.10260095223E+03 0.  0.
         -6    2    1    2    0  502  0.10115649782E+03  0.60799439093E+02  0.14293207443E+02  0.22090933140E+03  0.18619191195E+03 0.  0.
        -24    2    5    5    0    0  0.11007266213E+03  0.83995650040E+02  0.55587243051E+02  0.17248568465E+03  0.86545419538E+02 0.  0.
          5    1    3    3  501    0 -0.10500960807E+02 -0.44074027700E+02  0.34550470609E+02  0.57171803495E+02  0.47000000000E+01 0. -1.
        -13    1    4    4    0    0 -0.82567645182E+02 -0.29787677996E+00 -0.17329226216E+01  0.82586365596E+02  0.00000000000E+00 0.  1.
         14    1    4    4    0    0 -0.80878918265E+01 -0.16427534614E+02 -0.71047520355E+02  0.73369121818E+02  0.00000000000E+00 0. -1.
         -5    1    5    5    0  502 -0.89161643175E+01 -0.23196210947E+02 -0.41294035608E+02  0.48423646757E+02  0.47000000000E+01 0.  1.
         11    1    6    6    0    0  0.32264254496E+01  0.51460396490E+02  0.15982415658E+02  0.53981662057E+02  0.00000000000E+00 0. -1.
        -12    1    6    6    0    0  0.10684623668E+03  0.32535253550E+02  0.39604827393E+02  0.11850402259E+03  0.00000000000E+00 0.  1.
<mgrwt>
<rscale>  2 0.21770162E+03</rscale>
<asrwt>0</asrwt>
<pdfrwt beam="1">  1       21 0.31546143E-01 0.22044645E+03</pdfrwt>
<pdfrwt beam="2">  1       21 0.35228722E-01 0.22044645E+03</pdfrwt>
<totfact> 0.74151830E+04</totfact>
</mgrwt>
</event>
<event>
12    1  0.1050690E-001  0.2006523E+03  0.7546771E-02  0.1149593E+00
         21   -1    0    0  503  502  0.00000000000E+00  0.00000000000E+00  0.10831304665E+03  0.10831304665E+03  0.00000000000E+00 0.  1.
         21   -1    0    0  501  503 -0.00000000000E+00 -0.00000000000E+00 -0.97790280349E+03  0.97790280349E+03  0.00000000000E+00 0. -1.
          6    2    1    2  501    0 -0.64113902737E+02 -0.78912267153E+02 -0.86285838184E+03  0.88545062593E+03  0.17076441494E+03 0.  0.
         24    2    3    3    0    0  0.10954853909E+02 -0.15195116707E+02 -0.58174426884E+03  0.58755395254E+03  0.80264266169E+02 0.  0.
         -6    2    1    2    0  502  0.64113902737E+02  0.78912267153E+02 -0.67313749989E+01  0.20076522421E+03  0.17298446581E+03 0.  0.
        -24    2    5    5    0    0 -0.16033188285E+01  0.71464386463E+01 -0.49541415678E+02  0.94351517694E+02  0.79963834371E+02 0.  0.
          5    1    3    3  501    0 -0.75068756646E+02 -0.63717150446E+02 -0.28111411300E+03  0.29789667338E+03  0.47000000000E+01 0. -1.
        -13    1    4    4    0    0  0.25897288282E+02  0.16702396026E+02 -0.10288541076E+03  0.10740133762E+03  0.00000000000E+00 0.  1.
         14    1    4    4    0    0 -0.14942434373E+02 -0.31897512733E+02 -0.47885885808E+03  0.48015261493E+03  0.00000000000E+00 0. -1.
         -5    1    5    5    0  502  0.65717221566E+02  0.71765828506E+02  0.42810040679E+02  0.10641370652E+03  0.47000000000E+01 0.  1.
         13    1    6    6    0    0  0.10842498913E+02 -0.15764755669E+02 -0.62408795659E+02  0.65275915004E+02  0.00000000000E+00 0. -1.
        -14    1    6    6    0    0 -0.12445817741E+02  0.22911194316E+02  0.12867379981E+02  0.29075602690E+02  0.00000000000E+00 0.  1.
<mgrwt>
<rscale>  2 0.20017294E+03</rscale>
<asrwt>0</asrwt>
<pdfrwt beam="1">  1       21 0.16663545E-01 0.20065235E+03</pdfrwt>
<pdfrwt beam="2">  1       21 0.15044659E+00 0.20065235E+03</pdfrwt>
<totfact> 0.95399665E+03</totfact>
</mgrwt>
</event>
<event>
12    1  0.1050690E-001  0.2550321E+03  0.7546771E-02  0.1110179E+00
         21   -1    0    0  503  502  0.00000000000E+00  0.00000000000E+00  0.13117873730E+03  0.13117873730E+03  0.00000000000E+00 0.  1.
         21   -1    0    0  501  503 -0.00000000000E+00 -0.00000000000E+00 -0.81475187863E+03  0.81475187863E+03  0.00000000000E+00 0. -1.
          6    2    1    2  501    0 -0.48377917639E+02 -0.18097487252E+03 -0.63781238519E+03  0.68691046589E+03  0.17305785750E+03 0.  0.
         24    2    3    3    0    0 -0.54226200474E+00 -0.90003763476E+02 -0.17318535181E+03  0.21102774633E+03  0.80240713787E+02 0.  0.
         -6    2    1    2    0  502  0.48377917639E+02  0.18097487252E+03 -0.45760756130E+02  0.25902015004E+03  0.17293080677E+03 0.  0.
        -24    2    5    5    0    0  0.18581952442E+02  0.12118327705E+02 -0.64996003334E+01  0.83054640294E+02  0.79772712420E+02 0.  0.
          5    1    3    3  501    0 -0.47835655634E+02 -0.90971109039E+02 -0.46462703338E+03  0.47588271956E+03  0.47000000000E+01 0. -1.
        -11    1    4    4    0    0 -0.25969566815E+02 -0.50464206133E+02 -0.39043801013E+02  0.68887392887E+02  0.00000000000E+00 0.  1.
         12    1    4    4    0    0  0.25427304810E+02 -0.39539557343E+02 -0.13414155080E+03  0.14214035344E+03  0.00000000000E+00 0. -1.
         -5    1    5    5    0  502  0.29795965197E+02  0.16885654481E+03 -0.39261155796E+02  0.17596550975E+03  0.47000000000E+01 0.  1.
         13    1    6    6    0    0 -0.99310329686E+01  0.41017292019E+02 -0.32168705300E+01  0.42324838055E+02  0.00000000000E+00 0. -1.
        -14    1    6    6    0    0  0.28512985410E+02 -0.28898964314E+02 -0.32827298034E+01  0.40729802239E+02  0.00000000000E+00 0.  1.
<mgrwt>
<rscale>  2 0.25501050E+03</rscale>
<asrwt>0</asrwt>
<pdfrwt beam="1">  1       21 0.20181344E-01 0.25503206E+03</pdfrwt>
<pdfrwt beam="2">  1       21 0.12534644E+00 0.25503206E+03</pdfrwt>
<totfact> 0.10327218E+04</totfact>
</mgrwt>
</event>
<event>
12    1  0.1050690E-001  0.2115367E+03  0.7546771E-02  0.1140383E+00
         21   -1    0    0  501  502  0.00000000000E+00  0.00000000000E+00  0.59861919453E+03  0.59861919453E+03  0.00000000000E+00 0.  1.
         21   -1    0    0  502  503 -0.00000000000E+00 -0.00000000000E+00 -0.17488722360E+03  0.17488722360E+03  0.00000000000E+00 0.  1.
         -6    2    1    2    0  503  0.12016863004E+03 -0.19164404305E+02 -0.80827566874E+02  0.22645277452E+03  0.17303175860E+03 0.  0.
        -24    2    3    3    0    0  0.14221360273E+03 -0.50581375234E+02 -0.73547774078E+02  0.18710697086E+03  0.82562456046E+02 0.  0.
          6    2    1    2  501    0 -0.12016863004E+03  0.19164404305E+02  0.50455953781E+03  0.54705364361E+03  0.17285713105E+03 0.  0.
         24    2    5    5    0    0  0.61629926970E+01  0.13357891338E+02  0.24875148412E+03  0.26165349500E+03  0.79804980116E+02 0.  0.
          5    1    5    5  501    0 -0.12633162274E+03  0.58065129674E+01  0.25580805369E+03  0.28540014861E+03  0.47000000000E+01 0. -1.
        -13    1    6    6    0    0 -0.17742044502E+02  0.24202965473E+02  0.22255160424E+03  0.22456575926E+03  0.00000000000E+00 0.  1.
         14    1    6    6    0    0  0.23905037199E+02 -0.10845074135E+02  0.26199879881E+02  0.37087735739E+02  0.00000000000E+00 0. -1.
         -5    1    3    3    0  503 -0.22044972690E+02  0.31416970928E+02 -0.72797927964E+01  0.39345803669E+02  0.47000000000E+01 0.  1.
         13    1    4    4    0    0  0.76029613712E+01  0.11957247150E+02 -0.28771414402E+02  0.32071405765E+02  0.00000000000E+00 0. -1.
        -14    1    4    4    0    0  0.13461064136E+03 -0.62538622384E+02 -0.44776359676E+02  0.15503556509E+03  0.00000000000E+00 0.  1.
<mgrwt>
<rscale>  2 0.21150096E+03</rscale>
<asrwt>0</asrwt>
<pdfrwt beam="1">  1       21 0.92095260E-01 0.21153667E+03</pdfrwt>
<pdfrwt beam="2">  1       21 0.26905727E-01 0.21153667E+03</pdfrwt>
<totfact> 0.12942396E+04</totfact>
</mgrwt>
</event>
<event>
12    1  0.1050690E-001  0.2148839E+03  0.7546771E-02  0.1138334E+00
         21   -1    0    0  501  502  0.00000000000E+00  0.00000000000E+00  0.16716375194E+03  0.16716375194E+03  0.00000000000E+00 0.  1.
         21   -1    0    0  502  503 -0.00000000000E+00 -0.00000000000E+00 -0.27626960593E+03  0.27626960593E+03  0.00000000000E+00 0.  1.
         -6    2    1    2    0  503  0.69806831325E+02 -0.10531686906E+03 -0.80412697235E+02  0.22664223216E+03  0.17010544646E+03 0.  0.
        -24    2    3    3    0    0  0.30483970011E+02 -0.10853485524E+02 -0.96453274555E+02  0.12296480757E+03  0.69065470040E+02 0.  0.
          6    2    1    2  501    0 -0.69806831325E+02  0.10531686906E+03 -0.28693156758E+02  0.21679112571E+03  0.17381155983E+03 0.  0.
         24    2    5    5    0    0 -0.49208675264E+02  0.14226599290E+03 -0.11364446788E+02  0.17083575632E+03  0.79966233694E+02 0.  0.
          5    1    5    5  501    0 -0.20598156061E+02 -0.36949123842E+02 -0.17328709971E+02  0.45955369382E+02  0.47000000000E+01 0. -1.
        -11    1    6    6    0    0  0.75307596632E+00  0.48260399785E+02  0.29768490379E+02  0.56707991767E+02  0.00000000000E+00 0.  1.
         12    1    6    6    0    0 -0.49961751230E+02  0.94005593114E+02 -0.41132937167E+02  0.11412776456E+03  0.00000000000E+00 0. -1.
         -5    1    3    3    0  503  0.39322861314E+02 -0.94463383533E+02  0.16040577320E+02  0.10367742460E+03  0.47000000000E+01 0.  1.
         11    1    4    4    0    0 -0.12899797826E+02  0.16831128070E+02 -0.12863349569E+02  0.24802367190E+02  0.00000000000E+00 0. -1.
        -12    1    4    4    0    0  0.43383767838E+02 -0.27684613594E+02 -0.83589924986E+02  0.98162440377E+02  0.00000000000E+00 0.  1.
<mgrwt>
<rscale>  2 0.21413335E+03</rscale>
<asrwt>0</asrwt>
<pdfrwt beam="1">  1       21 0.25717501E-01 0.21488391E+03</pdfrwt>
<pdfrwt beam="2">  1       21 0.42503016E-01 0.21488391E+03</pdfrwt>
<totfact> 0.75691475E+04</totfact>
</mgrwt>
</event>
<event>
12    1  0.1050690E-001  0.2002504E+03  0.7546771E-02  0.1149839E+00
         21   -1    0    0  503  502  0.00000000000E+00  0.00000000000E+00  0.55280905781E+02  0.55280905781E+02  0.00000000000E+00 0.  1.
         21   -1    0    0  501  503 -0.00000000000E+00 -0.00000000000E+00 -0.73879229628E+03  0.73879229628E+03  0.00000000000E+00 0. -1.
          6    2    1    2  501    0  0.17233905157E+02 -0.96973409836E+02 -0.27733861118E+03  0.34121943648E+03  0.17266484552E+03 0.  0.
         24    2    3    3    0    0 -0.55105782695E+02 -0.68253080365E+02 -0.18410040161E+03  0.21967380107E+03  0.81660827435E+02 0.  0.
         -6    2    1    2    0  502 -0.17233905157E+02  0.96973409836E+02 -0.40617277933E+03  0.45285376559E+03  0.17435411277E+03 0.  0.
        -24    2    5    5    0    0  0.61870202716E+02  0.63712272767E+02 -0.20170650891E+03  0.23106037331E+03  0.69398881051E+02 0.  0.
          5    1    3    3  501    0  0.72339687852E+02 -0.28720329471E+02 -0.93238209568E+02  0.12154563541E+03  0.47000000000E+01 0. -1.
        -11    1    4    4    0    0 -0.24950666224E+02 -0.10719421588E+02 -0.13641705166E+03  0.13909368687E+03  0.00000000000E+00 0.  1.
         12    1    4    4    0    0 -0.30155116471E+02 -0.57533658777E+02 -0.47683349952E+02  0.80580114198E+02  0.00000000000E+00 0. -1.
         -5    1    5    5    0  502 -0.79104107873E+02  0.33261137069E+02 -0.20446627041E+03  0.22179339228E+03  0.47000000000E+01 0.  1.
         13    1    6    6    0    0  0.29606515248E+02  0.22117795728E+02 -0.15910577866E+03  0.16334133413E+03  0.00000000000E+00 0. -1.
        -14    1    6    6    0    0  0.32263687469E+02  0.41594477039E+02 -0.42600730255E+02  0.67719039180E+02  0.00000000000E+00 0.  1.
<mgrwt>
<rscale>  2 0.19988208E+03</rscale>
<asrwt>0</asrwt>
<pdfrwt beam="1">  1       21 0.85047551E-02 0.20025036E+03</pdfrwt>
<pdfrwt beam="2">  1       21 0.11366035E+00 0.20025036E+03</pdfrwt>
<totfact> 0.64818059E+04</totfact>
</mgrwt>
</event>
<event>
12    1  0.1050690E-001  0.1954397E+03  0.7546771E-02  0.1153969E+00
         21   -1    0    0  503  502  0.00000000000E+00  0.00000000000E+00  0.34283571405E+03  0.34283571405E+03  0.00000000000E+00 0. -1.
         21   -1    0    0  501  503 -0.00000000000E+00 -0.00000000000E+00 -0.11273741086E+03  0.11273741086E+03  0.00000000000E+00 0. -1.
          6    2    1    2  501    0 -0.48367398336E+02 -0.74064853708E+02  0.83021775369E+02  0.21097509282E+03  0.17260610310E+03 0.  0.
         24    2    3    3    0    0  0.22144399316E+02 -0.46121046853E+02 -0.43403740418E+01  0.95186470322E+02  0.80150482854E+02 0.  0.
         -6    2    1    2    0  502  0.48367398336E+02  0.74064853708E+02  0.14707652782E+03  0.24459803209E+03  0.17427473853E+03 0.  0.
        -24    2    5    5    0    0  0.60692502968E+02  0.66061794546E+02  0.17561929166E+03  0.21215213053E+03  0.78221801765E+02 0.  0.
          5    1    3    3  501    0 -0.70511797652E+02 -0.27943806855E+02  0.87362149410E+02  0.11578862249E+03  0.47000000000E+01 0. -1.
        -11    1    4    4    0    0 -0.16732521602E+02  0.82104728679E+00  0.22942776366E+02  0.28408139418E+02  0.00000000000E+00 0.  1.
         12    1    4    4    0    0  0.38876920918E+02 -0.46942094140E+02 -0.27283150408E+02  0.66778330905E+02  0.00000000000E+00 0. -1.
         -5    1    5    5    0  502 -0.12325104632E+02  0.80030591613E+01 -0.28542763838E+02  0.32445901554E+02  0.47000000000E+01 0.  1.
         13    1    6    6    0    0  0.19859152015E+02  0.71023774943E+02  0.13770907133E+03  0.15621315839E+03  0.00000000000E+00 0. -1.
        -14    1    6    6    0    0  0.40833350953E+02 -0.49619803968E+01  0.37910220328E+02  0.55938972147E+02  0.00000000000E+00 0.  1.
<mgrwt>
<rscale>  2 0.19506706E+03</rscale>
<asrwt>0</asrwt>
<pdfrwt beam="1">  1       21 0.52743955E-01 0.19543974E+03</pdfrwt>
<pdfrwt beam="2">  1       21 0.17344217E-01 0.19543974E+03</pdfrwt>
<totfact> 0.10233196E+05</totfact>
</mgrwt>
</event>
<event>
12    1  0.1050690E-001  0.1921260E+03  0.7546771E-02  0.1156996E+00
         21   -1    0    0  501  502  0.00000000000E+00  0.00000000000E+00  0.60660304640E+03  0.60660304640E+03  0.00000000000E+00 0. -1.
         21   -1    0    0  502  503 -0.00000000000E+00 -0.00000000000E+00 -0.60914201792E+02  0.60914201792E+02  0.00000000000E+00 0. -1.
         -6    2    1    2    0  503 -0.64306396180E+02 -0.50628229451E+02  0.23889748225E+03  0.30656875604E+03  0.17382135929E+03 0.  0.
        -24    2    3    3    0    0 -0.19143330455E+02  0.26126629063E+02  0.54699288909E+02  0.10191764991E+03  0.79662584116E+02 0.  0.
          6    2    1    2  501    0  0.64306396180E+02  0.50628229451E+02  0.30679136235E+03  0.36094849215E+03  0.17165180967E+03 0.  0.
         24    2    5    5    0    0  0.26838705790E+02 -0.24983105180E+02  0.14469002266E+03  0.17813756228E+03  0.97228168584E+02 0.  0.
          5    1    5    5  501    0  0.37467690390E+02  0.75611334632E+02  0.16210133969E+03  0.18281092987E+03  0.47000000000E+01 0. -1.
        -13    1    6    6    0    0  0.52257399601E+02  0.13152389933E+02  0.52751350479E+02  0.75409058815E+02  0.00000000000E+00 0.  1.
         14    1    6    6    0    0 -0.25418693811E+02 -0.38135495114E+02  0.91938672180E+02  0.10272850347E+03  0.00000000000E+00 0. -1.
         -5    1    3    3    0  503 -0.45163065725E+02 -0.76754858514E+02  0.18419819334E+03  0.20465110614E+03  0.47000000000E+01 0.  1.
         11    1    4    4    0    0 -0.64143909401E+01 -0.14905975331E+02  0.56633487310E+02  0.58912514770E+02  0.00000000000E+00 0. -1.
        -12    1    4    4    0    0 -0.12728939515E+02  0.41032604394E+02 -0.19341984006E+01  0.43005135135E+02  0.00000000000E+00 0.  1.
<mgrwt>
<rscale>  2 0.19163395E+03</rscale>
<asrwt>0</asrwt>
<pdfrwt beam="1">  1       21 0.93323541E-01 0.19212599E+03</pdfrwt>
<pdfrwt beam="2">  1       21 0.93714161E-02 0.19212599E+03</pdfrwt>
<totfact> 0.87886594E+04</totfact>
</mgrwt>
</event>
<event>
12    1  0.1050690E-001  0.2092281E+03  0.7546771E-02  0.1142293E+00
         21   -1    0    0  503  502  0.00000000000E+00  0.00000000000E+00  0.11184322584E+04  0.11184322584E+04  0.00000000000E+00 0.  1.
         21   -1    0    0  501  503 -0.00000000000E+00 -0.00000000000E+00 -0.90997968769E+02  0.90997968769E+02  0.00000000000E+00 0.  1.
          6    2    1    2  501    0  0.38057258603E+02 -0.10993238368E+03  0.56442776706E+02  0.21615235655E+03  0.17321250038E+03 0.  0.
         24    2    3    3    0    0  0.90473705756E+02 -0.10000873102E+03  0.25810519831E+02  0.15445642495E+03  0.70734479306E+02 0.  0.
         -6    2    1    2    0  502 -0.38057258603E+02  0.10993238368E+03  0.97099151290E+03  0.99327787060E+03  0.17390493430E+03 0.  0.
        -24    2    5    5    0    0 -0.32936677044E+02  0.84099615974E+02  0.31144046160E+03  0.33318451999E+03  0.76545366523E+02 0.  0.
          5    1    3    3  501    0 -0.52416447153E+02 -0.99236526619E+01  0.30632256875E+02  0.61695931597E+02  0.47000000000E+01 0. -1.
        -13    1    4    4    0    0 -0.77018636260E+01 -0.24816668414E+02 -0.62099109963E+01  0.26716076229E+02  0.00000000000E+00 0.  1.
         14    1    4    4    0    0  0.98175569382E+02 -0.75192062603E+02  0.32020430827E+02  0.12774034872E+03  0.00000000000E+00 0. -1.
         -5    1    5    5    0  502 -0.51205815589E+01  0.25832767705E+02  0.65955105130E+03  0.66009335061E+03  0.47000000000E+01 0.  1.
         11    1    6    6    0    0 -0.47749699303E+02  0.82728763421E+02  0.29868972238E+03  0.31359150552E+03  0.00000000000E+00 0. -1.
        -12    1    6    6    0    0  0.14813022260E+02  0.13708525528E+01  0.12750739223E+02  0.19593014467E+02  0.00000000000E+00 0.  1.
<mgrwt>
<rscale>  2 0.20908419E+03</rscale>
<asrwt>0</asrwt>
<pdfrwt beam="1">  1       21 0.17206649E+00 0.20922813E+03</pdfrwt>
<pdfrwt beam="2">  1       21 0.13999688E-01 0.20922813E+03</pdfrwt>
<totfact> 0.90578234E+03</totfact>
</mgrwt>
</event>
<event>
12    1  0.1050690E-001  0.2397011E+03  0.7546771E-02  0.1120254E+00
         21   -1    0    0  503  502  0.00000000000E+00  0.00000000000E+00  0.20499571743E+03  0.20499571743E+03  0.00000000000E+00 0. -1.
         21   -1    0    0  501  503 -0.00000000000E+00 -0.00000000000E+00 -0.27851585546E+03  0.27851585546E+03  0.00000000000E+00 0. -1.
          6    2    1    2  501    0 -0.15185583194E+03  0.71515407226E+02 -0.40294654762E+02  0.24151866664E+03  0.16891702096E+03 0.  0.
         24    2    3    3    0    0 -0.17881423849E+02  0.37284324070E+02 -0.48012038385E+02  0.10294537525E+03  0.81134014538E+02 0.  0.
         -6    2    1    2    0  502  0.15185583194E+03 -0.71515407226E+02 -0.33225483273E+02  0.24199290625E+03  0.17111980240E+03 0.  0.
        -24    2    5    5    0    0  0.12312634759E+03 -0.11548007868E+03 -0.33568028341E+02  0.18926262137E+03  0.78725988581E+02 0.  0.
          5    1    3    3  501    0 -0.13397440809E+03  0.34231083156E+02  0.77173836228E+01  0.13857329139E+03  0.47000000000E+01 0. -1.
        -13    1    4    4    0    0  0.24591748875E+02 -0.10501759644E+02 -0.18587052186E+02  0.32565619560E+02  0.00000000000E+00 0.  1.
         14    1    4    4    0    0 -0.42473172724E+02  0.47786083714E+02 -0.29424986198E+02  0.70379755689E+02  0.00000000000E+00 0. -1.
         -5    1    5    5    0  502  0.28729484345E+02  0.43964671454E+02  0.34254506773E+00  0.52730284883E+02  0.47000000000E+01 0.  1.
         11    1    6    6    0    0  0.43063157262E+02 -0.40401054435E+02 -0.51128966413E+02  0.78107950423E+02  0.00000000000E+00 0. -1.
        -12    1    6    6    0    0  0.80063190331E+02 -0.75079024245E+02  0.17560938072E+02  0.11115467095E+03  0.00000000000E+00 0.  1.
<mgrwt>
<rscale>  2 0.23930828E+03</rscale>
<asrwt>0</asrwt>
<pdfrwt beam="1">  1       21 0.31537803E-01 0.23970113E+03</pdfrwt>
<pdfrwt beam="2">  1       21 0.42848593E-01 0.23970113E+03</pdfrwt>
<totfact> 0.49553341E+04</totfact>
</mgrwt>
</event>
<event>
12    1  0.1050690E-001  0.1878974E+03  0.7546771E-02  0.1160596E+00
         21   -1    0    0  503  502  0.00000000000E+00  0.00000000000E+00  0.46521826991E+03  0.46521826991E+03  0.00000000000E+00 0. -1.
         21   -1    0    0  501  503 -0.00000000000E+00 -0.00000000000E+00 -0.80493662002E+02  0.80493662002E+02  0.00000000000E+00 0. -1.
          6    2    1    2  501    0  0.61204294729E+02 -0.39636525866E+02  0.12390548547E+03  0.22425891723E+03  0.17211180305E+03 0.  0.
         24    2    3    3    0    0 -0.31306439060E+02 -0.11116398871E+02  0.80506816742E+02  0.11806490630E+03  0.79713907862E+02 0.  0.
         -6    2    1    2    0  502 -0.61204294729E+02  0.39636525866E+02  0.26081912245E+03  0.32145301469E+03  0.17317160894E+03 0.  0.
        -24    2    5    5    0    0  0.11464944096E+02  0.61162296917E+02  0.19972385880E+03  0.22399072285E+03  0.80062179841E+02 0.  0.
          5    1    3    3  501    0  0.92510733789E+02 -0.28520126994E+02  0.43398668725E+02  0.10619401093E+03  0.47000000000E+01 0. -1.
        -13    1    4    4    0    0 -0.32042274554E+01  0.10358371834E+02 -0.13680385813E+02  0.17456113446E+02  0.00000000000E+00 0.  1.
         14    1    4    4    0    0 -0.28102211604E+02 -0.21474770706E+02  0.94187202556E+02  0.10060879285E+03  0.00000000000E+00 0. -1.
         -5    1    5    5    0  502 -0.72669238825E+02 -0.21525771052E+02  0.61095263641E+02  0.97462291837E+02  0.47000000000E+01 0.  1.
         11    1    6    6    0    0 -0.28802904799E+02  0.22054034509E+02  0.12725406888E+03  0.13232379155E+03  0.00000000000E+00 0. -1.
        -12    1    6    6    0    0  0.40267848895E+02  0.39108262408E+02  0.72469789924E+02  0.91666931304E+02  0.00000000000E+00 0.  1.
<mgrwt>
<rscale>  2 0.18765283E+03</rscale>
<asrwt>0</asrwt>
<pdfrwt beam="1">  1       21 0.71572040E-01 0.18789738E+03</pdfrwt>
<pdfrwt beam="2">  1       21 0.12383641E-01 0.18789738E+03</pdfrwt>
<totfact> 0.98034654E+04</totfact>
</mgrwt>
</event>
<event>
12    1  0.1050690E-001  0.2017792E+03  0.7546771E-02  0.1149555E+00
         21   -1    0    0  501  502  0.00000000000E+00  0.00000000000E+00  0.33964897459E+03  0.33964897459E+03  0.00000000000E+00 0.  1.
         21   -1    0    0  502  503 -0.00000000000E+00 -0.00000000000E+00 -0.11653725898E+03  0.11653725898E+03  0.00000000000E+00 0.  1.
         -6    2    1    2    0  503 -0.50883945389E+02  0.75390056384E+02  0.12487964739E+03  0.23729682363E+03  0.18011668350E+03 0.  0.
        -24    2    3    3    0    0  0.33374491851E+02  0.38316142912E+02  0.10779273214E+03  0.14355242658E+03  0.80037757088E+02 0.  0.
          6    2    1    2  501    0  0.50883945389E+02 -0.75390056384E+02  0.98232068222E+02  0.21888940993E+03  0.17317678266E+03 0.  0.
         24    2    5    5    0    0 -0.39178770457E+02 -0.46185441905E+02  0.60825496959E+02  0.11697992134E+03  0.79476347531E+02 0.  0.
          5    1    5    5  501    0  0.90062715845E+02 -0.29204614478E+02  0.37406571263E+02  0.10190948860E+03  0.47000000000E+01 0. -1.
        -13    1    6    6    0    0  0.24596867677E+02 -0.13862707033E+02  0.14024129794E+02  0.31525493847E+02  0.00000000000E+00 0.  1.
         14    1    6    6    0    0 -0.63775638133E+02 -0.32322734872E+02  0.46801367165E+02  0.85454427489E+02  0.00000000000E+00 0. -1.
         -5    1    3    3    0  503 -0.84258437240E+02  0.37073913471E+02  0.17086915246E+02  0.93744397053E+02  0.47000000000E+01 0.  1.
         13    1    4    4    0    0  0.40875446427E+01 -0.20155777083E+02  0.57458873711E+02  0.61028563306E+02  0.00000000000E+00 0. -1.
        -14    1    4    4    0    0  0.29286947208E+02  0.58471919996E+02  0.50333858431E+02  0.82523863272E+02  0.00000000000E+00 0.  1.
<mgrwt>
<rscale>  2 0.20021876E+03</rscale>
<asrwt>0</asrwt>
<pdfrwt beam="1">  1       21 0.52253688E-01 0.20177923E+03</pdfrwt>
<pdfrwt beam="2">  1       21 0.17928809E-01 0.20177923E+03</pdfrwt>
<totfact> 0.97905978E+04</totfact>
</mgrwt>
</event>
<event>
12    1  0.1050690E-001  0.2203820E+03  0.7546771E-02  0.1133926E+00
         21   -1    0    0  503  502  0.00000000000E+00  0.00000000000E+00  0.70055413403E+02  0.70055413403E+02  0.00000000000E+00 0.  1.
         21   -1    0    0  501  503 -0.00000000000E+00 -0.00000000000E+00 -0.69972411876E+03  0.69972411876E+03  0.00000000000E+00 0.  1.
          6    2    1    2  501    0  0.13516852078E+03 -0.70882488307E+01 -0.36387519253E+03  0.42450514269E+03  0.17169358796E+03 0.  0.
         24    2    3    3    0    0  0.78576987032E+02 -0.23693910528E+02 -0.34375120428E+03  0.36201182628E+03  0.78434224920E+02 0.  0.
         -6    2    1    2    0  502 -0.13516852078E+03  0.70882488307E+01 -0.26579351282E+03  0.34527438947E+03  0.17391791250E+03 0.  0.
        -24    2    5    5    0    0 -0.42384279194E+01 -0.18239712314E+02 -0.13053151736E+03  0.15526888364E+03  0.81971323190E+02 0.  0.
          5    1    3    3  501    0  0.56591533744E+02  0.16605661698E+02 -0.20123988255E+02  0.62493316405E+02  0.47000000000E+01 0. -1.
        -11    1    4    4    0    0  0.45995144915E+02  0.26861779050E+02 -0.15337045968E+03  0.16235641789E+03  0.00000000000E+00 0.  1.
         12    1    4    4    0    0  0.32581842117E+02 -0.50555689578E+02 -0.19038074460E+03  0.19965540839E+03  0.00000000000E+00 0. -1.
         -5    1    5    5    0  502 -0.13093009286E+03  0.25327961145E+02 -0.13526199546E+03  0.19000550583E+03  0.47000000000E+01 0.  1.
         11    1    6    6    0    0  0.26369204934E+02  0.13662462210E+02 -0.18902197309E+02  0.35203563820E+02  0.00000000000E+00 0. -1.
        -12    1    6    6    0    0 -0.30607632853E+02 -0.31902174525E+02 -0.11162932005E+03  0.12006531982E+03  0.00000000000E+00 0.  1.
<mgrwt>
<rscale>  2 0.21994289E+03</rscale>
<asrwt>0</asrwt>
<pdfrwt beam="1">  1       21 0.10777756E-01 0.22038197E+03</pdfrwt>
<pdfrwt beam="2">  1       21 0.10764986E+00 0.22038197E+03</pdfrwt>
<totfact> 0.48213333E+04</totfact>
</mgrwt>
</event>
<event>
12    1  0.1050690E-001  0.3114718E+03  0.7546771E-02  0.1080118E+00
         21   -1    0    0  501  502  0.00000000000E+00  0.00000000000E+00  0.15444526470E+03  0.15444526470E+03  0.00000000000E+00 0. -1.
         21   -1    0    0  502  503 -0.00000000000E+00 -0.00000000000E+00 -0.11777595319E+04  0.11777595319E+04  0.00000000000E+00 0. -1.
         -6    2    1    2    0  503 -0.23591442700E+03  0.10718904783E+03 -0.51620733025E+02  0.31181123937E+03  0.16557910521E+03 0.  0.
        -24    2    3    3    0    0 -0.23533560832E+03  0.11283394311E+03 -0.79196944873E+02  0.28326763529E+03  0.76511762936E+02 0.  0.
          6    2    1    2  501    0  0.23591442700E+03 -0.10718904783E+03 -0.97169353413E+03  0.10203935572E+04  0.17282817605E+03 0.  0.
         24    2    5    5    0    0  0.15110721302E+03 -0.17992430382E+00 -0.46718569913E+03  0.49771443799E+03  0.81386498387E+02 0.  0.
          5    1    5    5  501    0  0.84807213978E+02 -0.10700912353E+03 -0.50450783500E+03  0.52267911919E+03  0.47000000000E+01 0. -1.
        -11    1    6    6    0    0  0.13290749113E+02  0.23923335941E+02 -0.12636792667E+03  0.12929742034E+03  0.00000000000E+00 0.  1.
         12    1    6    6    0    0  0.13781646390E+03 -0.24103260245E+02 -0.34081777245E+03  0.36841701766E+03  0.00000000000E+00 0. -1.
         -5    1    3    3    0  503 -0.57881867879E+00 -0.56448952831E+01  0.27576211848E+02  0.28543604077E+02  0.47000000000E+01 0.  1.
         11    1    4    4    0    0 -0.10546490005E+03  0.30068432087E+02 -0.67603647587E+02  0.12883015531E+03  0.00000000000E+00 0. -1.
        -12    1    4    4    0    0 -0.12987070827E+03  0.82765511025E+02 -0.11593297286E+02  0.15443747998E+03  0.00000000000E+00 0.  1.
<mgrwt>
<rscale>  2 0.31047625E+03</rscale>
<asrwt>0</asrwt>
<pdfrwt beam="1">  1       21 0.23760810E-01 0.31147181E+03</pdfrwt>
<pdfrwt beam="2">  1       21 0.18119377E+00 0.31147181E+03</pdfrwt>
<totfact> 0.27224740E+03</totfact>
</mgrwt>
</event>
<event>
12    1  0.1050690E-001  0.2401725E+03  0.7546771E-02  0.1119876E+00
         21   -1    0    0  501  502  0.00000000000E+00  0.00000000000E+00  0.54574730020E+03  0.54574730020E+03  0.00000000000E+00 0.  1.
         21   -1    0    0  502  503 -0.00000000000E+00 -0.00000000000E+00 -0.11347231471E+03  0.11347231471E+03  0.00000000000E+00 0. -1.
         -6    2    1    2    0  503 -0.52614947749E+02 -0.15625919190E+03  0.30477865729E+03  0.38730394051E+03  0.17300012895E+03 0.  0.
        -24    2    3    3    0    0 -0.58725018897E+02 -0.25426040637E+02  0.98820359137E+02  0.14318192795E+03  0.81489200053E+02 0.  0.
          6    2    1    2  501    0  0.52614947749E+02  0.15625919190E+03  0.12749632820E+03  0.27191567440E+03  0.17463548466E+03 0.  0.
         24    2    5    5    0    0 -0.22606447317E+02  0.55777938914E+02  0.10377486435E+03  0.14408947081E+03  0.79814304470E+02 0.  0.
          5    1    5    5  501    0  0.75221395066E+02  0.10048125299E+03  0.23721463850E+02  0.12782620359E+03  0.47000000000E+01 0. -1.
        -13    1    6    6    0    0 -0.34528211435E+01 -0.14304678860E+02  0.54130741162E+02  0.56095302387E+02  0.00000000000E+00 0.  1.
         14    1    6    6    0    0 -0.19153626174E+02  0.70082617773E+02  0.49644123189E+02  0.87994168425E+02  0.00000000000E+00 0. -1.
         -5    1    3    3    0  503  0.61100711478E+01 -0.13083315126E+03  0.20595829815E+03  0.24412201256E+03  0.47000000000E+01 0.  1.
         11    1    4    4    0    0  0.12953634021E+02  0.43178348308E+01 -0.41236080477E+01  0.14263396345E+02  0.00000000000E+00 0. -1.
        -12    1    4    4    0    0 -0.71678652918E+02 -0.29743875467E+02  0.10294396718E+03  0.12891853161E+03  0.00000000000E+00 0.  1.
<mgrwt>
<rscale>  2 0.23987531E+03</rscale>
<asrwt>0</asrwt>
<pdfrwt beam="1">  1       21 0.83961122E-01 0.24017248E+03</pdfrwt>
<pdfrwt beam="2">  1       21 0.17457280E-01 0.24017248E+03</pdfrwt>
<totfact> 0.35747414E+04</totfact>
</mgrwt>
</event>
<event>
12    1  0.1050690E-001  0.1906194E+03  0.7546771E-02  0.1158102E+00
         21   -1    0    0  503  502  0.00000000000E+00  0.00000000000E+00  0.21623451957E+03  0.21623451957E+03  0.00000000000E+00 0. -1.
         21   -1    0    0  501  503 -0.00000000000E+00 -0.00000000000E+00 -0.23284048290E+03  0.23284048290E+03  0.00000000000E+00 0. -1.
          6    2    1    2  501    0  0.31619251817E+02 -0.63347568702E+02 -0.12745128052E+03  0.22857006487E+03  0.17603338917E+03 0.  0.
         24    2    3    3    0    0  0.84013067437E+02 -0.13015586198E+02 -0.71667024546E+02  0.13685096330E+03  0.79777332406E+02 0.  0.
         -6    2    1    2    0  502 -0.31619251817E+02  0.63347568702E+02  0.11084531719E+03  0.22050493761E+03  0.17698319587E+03 0.  0.
        -24    2    5    5    0    0 -0.83198926600E+02  0.90707709398E+01  0.74599627057E+02  0.13718462988E+03  0.79058067562E+02 0.  0.
          5    1    3    3  501    0 -0.52393815620E+02 -0.50331982504E+02 -0.55784255972E+02  0.91719101567E+02  0.47000000000E+01 0. -1.
        -13    1    4    4    0    0  0.18922222521E+02 -0.11561569231E+02  0.16221003811E+02  0.27474376296E+02  0.00000000000E+00 0.  1.
         14    1    4    4    0    0  0.65090844916E+02 -0.14540169662E+01 -0.87888028357E+02  0.10937658701E+03  0.00000000000E+00 0. -1.
         -5    1    5    5    0  502  0.51579674783E+02  0.54276797762E+02  0.36245690130E+02  0.83320307723E+02  0.47000000000E+01 0.  1.
         13    1    6    6    0    0 -0.43073548250E+02  0.30236260245E+02  0.75235508451E+02  0.91814724987E+02  0.00000000000E+00 0. -1.
        -14    1    6    6    0    0 -0.40125378350E+02 -0.21165489306E+02 -0.63588139420E+00  0.45369904897E+02  0.00000000000E+00 0.  1.
<mgrwt>
<rscale>  2 0.19039860E+03</rscale>
<asrwt>0</asrwt>
<pdfrwt beam="1">  1       21 0.33266849E-01 0.19061937E+03</pdfrwt>
<pdfrwt beam="2">  1       21 0.35821613E-01 0.19061937E+03</pdfrwt>
<totfact> 0.65447188E+04</totfact>
</mgrwt>
</event>
<event>
12    1  0.1050690E-001  0.2073789E+03  0.7546771E-02  0.1144502E+00
         21   -1    0    0  503  502  0.00000000000E+00  0.00000000000E+00  0.56845196804E+03  0.56845196804E+03  0.00000000000E+00 0. -1.
         21   -1    0    0  501  503 -0.00000000000E+00 -0.00000000000E+00 -0.75770613544E+02  0.75770613544E+02  0.00000000000E+00 0. -1.
          6    2    1    2  501    0  0.23992754579E+02 -0.10993301005E+03  0.20165965854E+03  0.28926224457E+03  0.17419847669E+03 0.  0.
         24    2    3    3    0    0  0.22657891278E+02 -0.14677961403E+03  0.15025076502E+03  0.22582394054E+03  0.79771703017E+02 0.  0.
         -6    2    1    2    0  502 -0.23992754579E+02  0.10993301005E+03  0.29102169596E+03  0.35496033702E+03  0.16924034497E+03 0.  0.
        -24    2    5    5    0    0 -0.42199749191E+02  0.14051831954E+03  0.24584534404E+03  0.29725463034E+03  0.79963523683E+02 0.  0.
          5    1    3    3  501    0  0.13348633005E+01  0.36846603979E+02  0.51408893516E+02  0.63438304024E+02  0.47000000000E+01 0. -1.
        -13    1    4    4    0    0  0.30935979297E+02 -0.56842183925E+02  0.10847508498E+03  0.12631275766E+03  0.00000000000E+00 0.  1.
         14    1    4    4    0    0 -0.82780880192E+01 -0.89937430102E+02  0.41775680044E+02  0.99511182878E+02  0.00000000000E+00 0. -1.
         -5    1    5    5    0  502  0.18206994612E+02 -0.30585309489E+02  0.45176351928E+02  0.57705706675E+02  0.47000000000E+01 0.  1.
         11    1    6    6    0    0  0.13712055507E+02  0.67673405100E+02  0.66999336093E+02  0.96211336447E+02  0.00000000000E+00 0. -1.
        -12    1    6    6    0    0 -0.55911804698E+02  0.72844914437E+02  0.17884600794E+03  0.20104329390E+03  0.00000000000E+00 0.  1.
<mgrwt>
<rscale>  2 0.20633432E+03</rscale>
<asrwt>0</asrwt>
<pdfrwt beam="1">  1       21 0.87454146E-01 0.20737895E+03</pdfrwt>
<pdfrwt beam="2">  1       21 0.11657018E-01 0.20737895E+03</pdfrwt>
<totfact> 0.68901988E+04</totfact>
</mgrwt>
</event>
<event>
12    1  0.1050690E-001  0.2156456E+03  0.7546771E-02  0.1137236E+00
         21   -1    0    0  501  502  0.00000000000E+00  0.00000000000E+00  0.13782050739E+03  0.13782050739E+03  0.00000000000E+00 0.  1.
         21   -1    0    0  502  503 -0.00000000000E+00 -0.00000000000E+00 -0.44810986581E+03  0.44810986581E+03  0.00000000000E+00 0. -1.
         -6    2    1    2    0  503 -0.11601792518E+03  0.55332089221E+02 -0.30100697806E+03  0.37008504835E+03  0.17273084007E+03 0.  0.
        -24    2    3    3    0    0 -0.12073570288E+03  0.98319411941E+02 -0.22697846329E+03  0.28422191109E+03  0.70845290819E+02 0.  0.
          6    2    1    2  501    0  0.11601792518E+03 -0.55332089221E+02 -0.92823803642E+01  0.21584532485E+03  0.17315092438E+03 0.  0.
         24    2    5    5    0    0  0.11431990323E+03 -0.97298385413E+02  0.63707809555E+01  0.17077687964E+03  0.81167356062E+02 0.  0.
          5    1    5    5  501    0  0.16980219455E+01  0.41966296192E+02 -0.15653161320E+02  0.45068445213E+02  0.47000000000E+01 0. -1.
        -13    1    6    6    0    0  0.73813124475E+02 -0.15282289388E+02  0.20744042632E+02  0.78180822575E+02  0.00000000000E+00 0.  1.
         14    1    6    6    0    0  0.40506778756E+02 -0.82016096025E+02 -0.14373261676E+02  0.92596057063E+02  0.00000000000E+00 0. -1.
         -5    1    3    3    0  503  0.47177776987E+01 -0.42987322721E+02 -0.74028514770E+02  0.85863137261E+02  0.47000000000E+01 0.  1.
         11    1    4    4    0    0  0.41941671010E+01  0.12131214622E+02 -0.22346101432E+01  0.13028848313E+02  0.00000000000E+00 0. -1.
        -12    1    4    4    0    0 -0.12492986998E+03  0.86188197319E+02 -0.22474385315E+03  0.27119306277E+03  0.00000000000E+00 0.  1.
<mgrwt>
<rscale>  2 0.21556130E+03</rscale>
<asrwt>0</asrwt>
<pdfrwt beam="1">  1       21 0.21203155E-01 0.21564564E+03</pdfrwt>
<pdfrwt beam="2">  1       21 0.68939979E-01 0.21564564E+03</pdfrwt>
<totfact> 0.39183215E+04</totfact>
</mgrwt>
</event>
<event>
12    1  0.1050690E-001  0.2374058E+03  0.7546771E-02  0.1121623E+00
         21   -1    0    0  503  502  0.00000000000E+00  0.00000000000E+00  0.48724988798E+03  0.48724988798E+03  0.00000000000E+00 0.  1.
         21   -1    0    0  501  503 -0.00000000000E+00 -0.00000000000E+00 -0.28013043206E+03  0.28013043206E+03  0.00000000000E+00 0.  1.
          6    2    1    2  501    0  0.12721739221E+03 -0.10009457094E+03 -0.19061110237E+03  0.30445705833E+03  0.17366150987E+03 0.  0.
         24    2    3    3    0    0  0.11745540374E+03 -0.54928324143E+01 -0.11587204571E+03  0.18340829981E+03  0.79914519245E+02 0.  0.
         -6    2    1    2    0  502 -0.12721739221E+03  0.10009457094E+03  0.39773055828E+03  0.46292326171E+03  0.17293108809E+03 0.  0.
        -24    2    5    5    0    0 -0.32955704663E+02  0.81261316848E+02  0.31176784966E+03  0.33388204941E+03  0.81169888194E+02 0.  0.
          5    1    3    3  501    0  0.97619884728E+01 -0.94601738523E+02 -0.74739056652E+02  0.12104875852E+03  0.47000000000E+01 0. -1.
        -11    1    4    4    0    0  0.91620930131E+02 -0.25898185106E+02 -0.11653028731E+03  0.15048062563E+03  0.00000000000E+00 0.  1.
         12    1    4    4    0    0  0.25834473607E+02  0.20405352692E+02  0.65824159204E+00  0.32927674182E+02  0.00000000000E+00 0. -1.
         -5    1    5    5    0  502 -0.94261687548E+02  0.18833254089E+02  0.85962708624E+02  0.12904121230E+03  0.47000000000E+01 0.  1.
         11    1    6    6    0    0 -0.31041430459E+02  0.96603357123E+02  0.24181307984E+03  0.26223909814E+03  0.00000000000E+00 0. -1.
        -12    1    6    6    0    0 -0.19142742039E+01 -0.15342040275E+02  0.69954769823E+02  0.71642951269E+02  0.00000000000E+00 0.  1.
<mgrwt>
<rscale>  2 0.23727223E+03</rscale>
<asrwt>0</asrwt>
<pdfrwt beam="1">  1       21 0.74961521E-01 0.23740579E+03</pdfrwt>
<pdfrwt beam="2">  1       21 0.43096990E-01 0.23740579E+03</pdfrwt>
<totfact> 0.79969790E+03</totfact>
</mgrwt>
</event>
<event>
12    1  0.1050690E-001  0.1761984E+03  0.7546771E-02  0.1171716E+00
         21   -1    0    0  503  502  0.00000000000E+00  0.00000000000E+00  0.16642072585E+03  0.16642072585E+03  0.00000000000E+00 0.  1.
         21   -1    0    0  501  503 -0.00000000000E+00 -0.00000000000E+00 -0.19372014477E+03  0.19372014477E+03  0.00000000000E+00 0.  1.
          6    2    1    2  501    0  0.25953746388E+02  0.22657384283E+02 -0.50139973052E+02  0.18319358365E+03  0.17279733267E+03 0.  0.
         24    2    3    3    0    0 -0.89602401059E+01 -0.46514370864E+02 -0.43053179141E+02  0.10524468493E+03  0.83540378693E+02 0.  0.
         -6    2    1    2    0  502 -0.25953746388E+02 -0.22657384283E+02  0.22840554130E+02  0.17694728697E+03  0.17205143835E+03 0.  0.
        -24    2    5    5    0    0  0.20183137635E+02  0.20071697395E+02  0.60561621691E+02  0.10346698059E+03  0.78914345775E+02 0.  0.
          5    1    3    3  501    0  0.34913986494E+02  0.69171755147E+02 -0.70867939109E+01  0.77948898715E+02  0.47000000000E+01 0. -1.
        -13    1    4    4    0    0  0.34719572323E+02 -0.23564910500E+02 -0.36863132720E+01  0.42122946415E+02  0.00000000000E+00 0.  1.
         14    1    4    4    0    0 -0.43679812429E+02 -0.22949460364E+02 -0.39366865869E+02  0.63121738515E+02  0.00000000000E+00 0. -1.
         -5    1    5    5    0  502 -0.46136884023E+02 -0.42729081678E+02 -0.37721067561E+02  0.73480306384E+02  0.47000000000E+01 0.  1.
         11    1    6    6    0    0  0.94735923547E+01 -0.29534063942E+02  0.12090396115E+02  0.33289451231E+02  0.00000000000E+00 0. -1.
        -12    1    6    6    0    0  0.10709545280E+02  0.49605761337E+02  0.48471225575E+02  0.70177529357E+02  0.00000000000E+00 0.  1.
<mgrwt>
<rscale>  2 0.17601524E+03</rscale>
<asrwt>0</asrwt>
<pdfrwt beam="1">  1       21 0.25603189E-01 0.17619839E+03</pdfrwt>
<pdfrwt beam="2">  1       21 0.29803099E-01 0.17619839E+03</pdfrwt>
<totfact> 0.15702320E+05</totfact>
</mgrwt>
</event>
<event>
12    1  0.1050690E-001  0.2420270E+03  0.7546771E-02  0.1118921E+00
         21   -1    0    0  503  502  0.00000000000E+00  0.00000000000E+00  0.10811662779E+03  0.10811662779E+03  0.00000000000E+00 0. -1.
         21   -1    0    0  501  503 -0.00000000000E+00 -0.00000000000E+00 -0.59273127687E+03  0.59273127687E+03  0.00000000000E+00 0.  1.
          6    2    1    2  501    0 -0.12435718418E+03  0.10852233840E+03 -0.34994263051E+03  0.42387563928E+03  0.17311529607E+03 0.  0.
         24    2    3    3    0    0 -0.75267548768E+02 -0.78318407978E+01 -0.19904192952E+03  0.22704779856E+03  0.78781162062E+02 0.  0.
         -6    2    1    2    0  502  0.12435718418E+03 -0.10852233840E+03 -0.13467201857E+03  0.27697226538E+03  0.17701772797E+03 0.  0.
        -24    2    5    5    0    0  0.12340235569E+03 -0.10011506894E+03 -0.16633176687E+03  0.24386601915E+03  0.80951900560E+02 0.  0.
          5    1    3    3  501    0 -0.49089635407E+02  0.11635417920E+03 -0.15090070099E+03  0.19682784072E+03  0.47000000000E+01 0. -1.
        -13    1    4    4    0    0  0.23289625360E+01 -0.12502464846E+02 -0.10161701690E+03  0.10240973497E+03  0.00000000000E+00 0.  1.
         14    1    4    4    0    0 -0.77596511304E+02  0.46706240480E+01 -0.97424912624E+02  0.12463806359E+03  0.00000000000E+00 0. -1.
         -5    1    5    5    0  502  0.95482848361E+00 -0.84072694571E+01  0.31659748302E+02  0.33106246234E+02  0.47000000000E+01 0.  1.
         11    1    6    6    0    0  0.70164822765E+01 -0.20261846347E+02  0.48641403432E+01  0.21987116733E+02  0.00000000000E+00 0. -1.
        -12    1    6    6    0    0  0.11638587342E+03 -0.79853222597E+02 -0.17119590722E+03  0.22187890242E+03  0.00000000000E+00 0.  1.
<mgrwt>
<rscale>  2 0.24131403E+03</rscale>
<asrwt>0</asrwt>
<pdfrwt beam="1">  1       21 0.16633327E-01 0.24202703E+03</pdfrwt>
<pdfrwt beam="2">  1       21 0.91189427E-01 0.24202703E+03</pdfrwt>
<totfact> 0.32259462E+04</totfact>
</mgrwt>
</event>
<event>
12    1  0.1050690E-001  0.1755240E+03  0.7546771E-02  0.1175449E+00
         21   -1    0    0  503  502  0.00000000000E+00  0.00000000000E+00  0.63959248857E+02  0.63959248857E+02  0.00000000000E+00 0. -1.
         21   -1    0    0  501  503 -0.00000000000E+00 -0.00000000000E+00 -0.15261434073E+04  0.15261434073E+04  0.00000000000E+00 0.  1.
          6    2    1    2  501    0 -0.40915214625E+01  0.37482768696E+02 -0.13912730153E+04  0.14007958317E+04  0.15864003412E+03 0.  0.
         24    2    3    3    0    0  0.57855362423E+01  0.61122401238E+02 -0.13339740485E+04  0.13378541913E+04  0.81225948809E+02 0.  0.
         -6    2    1    2    0  502  0.40915214625E+01 -0.37482768696E+02 -0.70911143133E+02  0.18930682448E+03  0.17142632551E+03 0.  0.
        -24    2    5    5    0    0 -0.38622169393E+02 -0.70201977485E+02 -0.19082194395E+02  0.11445139089E+03  0.79466981334E+02 0.  0.
          5    1    3    3  501    0 -0.98770577048E+01 -0.23639632542E+02 -0.57298966820E+02  0.62941640384E+02  0.47000000000E+01 0. -1.
        -11    1    4    4    0    0 -0.15368019152E+02  0.70610799300E+02 -0.76431718487E+03  0.76772574535E+03  0.00000000000E+00 0.  1.
         12    1    4    4    0    0  0.21153555394E+02 -0.94883980613E+01 -0.56965686359E+03  0.57012844591E+03  0.00000000000E+00 0. -1.
         -5    1    5    5    0  502  0.42713690855E+02  0.32719208789E+02 -0.51828948738E+02  0.74855433588E+02  0.47000000000E+01 0.  1.
         11    1    6    6    0    0  0.11731880994E+02 -0.24098698888E+02 -0.35258479421E+02  0.44289329311E+02  0.00000000000E+00 0. -1.
        -12    1    6    6    0    0 -0.50354050387E+02 -0.46103278597E+02  0.16176285026E+02  0.70162061579E+02  0.00000000000E+00 0.  1.
<mgrwt>
<rscale>  2 0.17232126E+03</rscale>
<asrwt>0</asrwt>
<pdfrwt beam="1">  1       21 0.98398843E-02 0.17552403E+03</pdfrwt>
<pdfrwt beam="2">  1       21 0.23479130E+00 0.17552403E+03</pdfrwt>
<totfact> 0.69507241E+03</totfact>
</mgrwt>
</event>
<event>
12    1  0.1050690E-001  0.2332109E+03  0.7546771E-02  0.1126530E+00
         21   -1    0    0  501  502  0.00000000000E+00  0.00000000000E+00  0.86643081860E+02  0.86643081860E+02  0.00000000000E+00 0. -1.
         21   -1    0    0  502  503 -0.00000000000E+00 -0.00000000000E+00 -0.10135582625E+04  0.10135582625E+04  0.00000000000E+00 0.  1.
         -6    2    1    2    0  503 -0.12919984374E+03 -0.37777733920E+02 -0.82370545222E+03  0.85608293271E+03  0.19044043385E+03 0.  0.
        -24    2    3    3    0    0 -0.49177747831E+02 -0.28573689801E+02 -0.16670033502E+03  0.19414179915E+03  0.81652494455E+02 0.  0.
          6    2    1    2  501    0  0.12919984374E+03  0.37777733920E+02 -0.10320972840E+03  0.24411841164E+03  0.17556136836E+03 0.  0.
         24    2    5    5    0    0  0.13187888614E+02 -0.12236778402E+02 -0.84167381566E+02  0.11627113499E+03  0.78173969832E+02 0.  0.
          5    1    5    5  501    0  0.11601195513E+03  0.50014512322E+02 -0.19042346834E+02  0.12784727665E+03  0.47000000000E+01 0. -1.
        -11    1    6    6    0    0  0.42976978262E+02 -0.31565658707E+00 -0.67742214332E+02  0.80225481626E+02  0.00000000000E+00 0.  1.
         12    1    6    6    0    0 -0.29789089648E+02 -0.11921121815E+02 -0.16425167235E+02  0.36045653359E+02  0.00000000000E+00 0. -1.
         -5    1    3    3    0  503 -0.80022095910E+02 -0.92040441187E+01 -0.65700511720E+03  0.66194113355E+03  0.47000000000E+01 0.  1.
         13    1    4    4    0    0 -0.33897976229E+02 -0.76197104833E+01 -0.11215649236E+02  0.36509225794E+02  0.00000000000E+00 0. -1.
        -14    1    4    4    0    0 -0.15279771602E+02 -0.20953979318E+02 -0.15548468579E+03  0.15763257336E+03  0.00000000000E+00 0.  1.
<mgrwt>
<rscale>  2 0.23015548E+03</rscale>
<asrwt>0</asrwt>
<pdfrwt beam="1">  1       21 0.13329705E-01 0.23321088E+03</pdfrwt>
<pdfrwt beam="2">  1       21 0.15593204E+00 0.23321088E+03</pdfrwt>
<totfact> 0.12741912E+04</totfact>
</mgrwt>
</event>
<event>
12    1  0.1050690E-001  0.2464827E+03  0.7546771E-02  0.1115726E+00
         21   -1    0    0  503  502  0.00000000000E+00  0.00000000000E+00  0.24694268101E+03  0.24694268101E+03  0.00000000000E+00 0. -1.
         21   -1    0    0  501  503 -0.00000000000E+00 -0.00000000000E+00 -0.42124904835E+03  0.42124904835E+03  0.00000000000E+00 0. -1.
          6    2    1    2  501    0  0.11263563753E+03 -0.13344476672E+03 -0.30341963497E+03  0.39091840720E+03  0.17395238886E+03 0.  0.
         24    2    3    3    0    0  0.20187375404E+02 -0.28593113954E+02 -0.19545332149E+03  0.21422838171E+03  0.80415809125E+02 0.  0.
         -6    2    1    2    0  502 -0.11263563753E+03  0.13344476672E+03  0.12911326763E+03  0.27727332217E+03  0.17238319727E+03 0.  0.
        -24    2    5    5    0    0 -0.45035020964E+02  0.90417038131E+01  0.93962165239E+02  0.13131560425E+03  0.79403991718E+02 0.  0.
          5    1    3    3  501    0  0.92448262127E+02 -0.10485165277E+03 -0.10796631348E+03  0.17669002548E+03  0.47000000000E+01 0. -1.
        -13    1    4    4    0    0  0.30820910178E+01  0.21349421121E+02 -0.15159629394E+02  0.26364965971E+02  0.00000000000E+00 0.  1.
         14    1    4    4    0    0  0.17105284386E+02 -0.49942535075E+02 -0.18029369210E+03  0.18786341574E+03  0.00000000000E+00 0. -1.
         -5    1    5    5    0  502 -0.67600616566E+02  0.12440306291E+03  0.35151102388E+02  0.14595771792E+03  0.47000000000E+01 0.  1.
         13    1    6    6    0    0 -0.10035307865E+02  0.41536815800E+02  0.33689896544E+02  0.54415288292E+02  0.00000000000E+00 0. -1.
        -14    1    6    6    0    0 -0.34999713099E+02 -0.32495111987E+02  0.60272268694E+02  0.76900315953E+02  0.00000000000E+00 0.  1.
<mgrwt>
<rscale>  2 0.24620601E+03</rscale>
<asrwt>0</asrwt>
<pdfrwt beam="1">  1       21 0.37991182E-01 0.24648271E+03</pdfrwt>
<pdfrwt beam="2">  1       21 0.64807545E-01 0.24648271E+03</pdfrwt>
<totfact> 0.14199323E+04</totfact>
</mgrwt>
</event>
<event>
12    1  0.1050690E-001  0.2235697E+03  0.7546771E-02  0.1131385E+00
         21   -1    0    0  503  502  0.00000000000E+00  0.00000000000E+00  0.49349454670E+02  0.49349454670E+02  0.00000000000E+00 0.  1.
         21   -1    0    0  501  503 -0.00000000000E+00 -0.00000000000E+00 -0.10529877076E+04  0.10529877076E+04  0.00000000000E+00 0.  1.
          6    2    1    2  501    0 -0.10575463231E+03 -0.94738474620E+02 -0.61464539063E+03  0.65404310809E+03  0.17269629468E+03 0.  0.
         24    2    3    3    0    0 -0.11791386670E+03 -0.57294762755E+02 -0.58235225762E+03  0.60290784649E+03  0.84719239913E+02 0.  0.
         -6    2    1    2    0  502  0.10575463231E+03  0.94738474620E+02 -0.38899286235E+03  0.44829405423E+03  0.17173436251E+03 0.  0.
        -24    2    5    5    0    0 -0.36529918488E+01  0.23670771010E+02 -0.21461923045E+03  0.23046636953E+03  0.80496482241E+02 0.  0.
          5    1    3    3  501    0  0.12159234391E+02 -0.37443711865E+02 -0.32293133010E+02  0.51135261599E+02  0.47000000000E+01 0. -1.
        -11    1    4    4    0    0 -0.10683781126E+03 -0.15668914191E+02 -0.33928804215E+03  0.35605646790E+03  0.00000000000E+00 0.  1.
         12    1    4    4    0    0 -0.11076055439E+02 -0.41625848564E+02 -0.24306421547E+03  0.24685137859E+03  0.00000000000E+00 0. -1.
         -5    1    5    5    0  502  0.10940762416E+03  0.71067703610E+02 -0.17437363190E+03  0.21782768470E+03  0.47000000000E+01 0.  1.
         11    1    6    6    0    0  0.20412558375E+02  0.46510952396E+02 -0.13174331399E+03  0.14119575778E+03  0.00000000000E+00 0. -1.
        -12    1    6    6    0    0 -0.24065550224E+02 -0.22840181385E+02 -0.82875916459E+02  0.89270611750E+02  0.00000000000E+00 0.  1.
<mgrwt>
<rscale>  2 0.22338396E+03</rscale>
<asrwt>0</asrwt>
<pdfrwt beam="1">  1       21 0.75922233E-02 0.22356975E+03</pdfrwt>
<pdfrwt beam="2">  1       21 0.16199812E+00 0.22356975E+03</pdfrwt>
<totfact> 0.31384468E+04</totfact>
</mgrwt>
</event>
<event>
12    1  0.1050690E-001  0.1879764E+03  0.7546771E-02  0.1161429E+00
         21   -1    0    0  503  502  0.00000000000E+00  0.00000000000E+00  0.16744924486E+03  0.16744924486E+03  0.00000000000E+00 0.  1.
         21   -1    0    0  501  503 -0.00000000000E+00 -0.00000000000E+00 -0.53989258803E+03  0.53989258803E+03  0.00000000000E+00 0.  1.
          6    2    1    2  501    0  0.41626682066E+02  0.45120616179E+02 -0.46358406822E+03  0.49843573520E+03  0.17250896544E+03 0.  0.
         24    2    3    3    0    0  0.60786207031E+02  0.54067714911E+02 -0.46256020568E+03  0.47674988113E+03  0.81915960068E+02 0.  0.
         -6    2    1    2    0  502 -0.41626682066E+02 -0.45120616179E+02  0.91140725051E+02  0.20890609768E+03  0.17766956752E+03 0.  0.
        -24    2    5    5    0    0 -0.30916446153E+02  0.11818563912E+02  0.12154544991E+03  0.14330642790E+03  0.68322256900E+02 0.  0.
          5    1    3    3  501    0 -0.19159524965E+02 -0.89470987319E+01 -0.10238625393E+01  0.21685854078E+02  0.47000000000E+01 0. -1.
        -13    1    4    4    0    0  0.69258764666E+01  0.49931993394E+02 -0.12315224546E+03  0.13307008414E+03  0.00000000000E+00 0.  1.
         14    1    4    4    0    0  0.53860330564E+02  0.41357215169E+01 -0.33940796022E+03  0.34367979699E+03  0.00000000000E+00 0. -1.
         -5    1    5    5    0  502 -0.10710235913E+02 -0.56939180090E+02 -0.30404724855E+02  0.65599669787E+02  0.47000000000E+01 0.  1.
         11    1    6    6    0    0 -0.12129406851E+02  0.23015821721E+02  0.73488444832E+01  0.27034349914E+02  0.00000000000E+00 0. -1.
        -12    1    6    6    0    0 -0.18787039302E+02 -0.11197257809E+02  0.11419660542E+03  0.11627207798E+03  0.00000000000E+00 0.  1.
<mgrwt>
<rscale>  2 0.18674692E+03</rscale>
<asrwt>0</asrwt>
<pdfrwt beam="1">  1       21 0.25761423E-01 0.18797640E+03</pdfrwt>
<pdfrwt beam="2">  1       21 0.83060397E-01 0.18797640E+03</pdfrwt>
<totfact> 0.18117012E+04</totfact>
</mgrwt>
</event>
<event>
12    1  0.1050690E-001  0.2183804E+03  0.7546771E-02  0.1135106E+00
         21   -1    0    0  503  502  0.00000000000E+00  0.00000000000E+00  0.67982592068E+03  0.67982592068E+03  0.00000000000E+00 0. -1.
         21   -1    0    0  501  503 -0.00000000000E+00 -0.00000000000E+00 -0.72400385762E+02  0.72400385762E+02  0.00000000000E+00 0.  1.
          6    2    1    2  501    0  0.13290407284E+03  0.98325178486E+01  0.37023549887E+03  0.42981487328E+03  0.17293446644E+03 0.  0.
         24    2    3    3    0    0  0.10970792980E+03  0.38123928602E+02  0.14863471930E+03  0.20516523389E+03  0.80692190579E+02 0.  0.
         -6    2    1    2    0  502 -0.13290407284E+03 -0.98325178486E+01  0.23719003605E+03  0.32241143316E+03  0.17300245100E+03 0.  0.
        -24    2    5    5    0    0 -0.22680533158E+02 -0.45705758555E+02  0.11530889245E+03  0.15414610322E+03  0.88664860625E+02 0.  0.
          5    1    3    3  501    0  0.23196143040E+02 -0.28291410753E+02  0.22160077957E+03  0.22464963939E+03  0.47000000000E+01 0. -1.
        -11    1    4    4    0    0  0.15937940956E+02  0.43886148790E+02  0.39445167120E+02  0.61122280935E+02  0.00000000000E+00 0.  1.
         12    1    4    4    0    0  0.93769988839E+02 -0.57622201887E+01  0.10918955218E+03  0.14404295295E+03  0.00000000000E+00 0. -1.
         -5    1    5    5    0  502 -0.11022353968E+03  0.35873240706E+02  0.12188114359E+03  0.16826532994E+03  0.47000000000E+01 0.  1.
         13    1    6    6    0    0 -0.96236812955E+01  0.25694912908E+02  0.18270396052E+02  0.32964392348E+02  0.00000000000E+00 0. -1.
        -14    1    6    6    0    0 -0.13056851863E+02 -0.71400671462E+02  0.97038496402E+02  0.12118171087E+03  0.00000000000E+00 0.  1.
<mgrwt>
<rscale>  2 0.21836698E+03</rscale>
<asrwt>0</asrwt>
<pdfrwt beam="1">  1       21 0.10458860E+00 0.21838045E+03</pdfrwt>
<pdfrwt beam="2">  1       21 0.11138521E-01 0.21838045E+03</pdfrwt>
<totfact> 0.48792270E+04</totfact>
</mgrwt>
</event>
<event>
12    1  0.1050690E-001  0.2016656E+03  0.7546771E-02  0.1149469E+00
         21   -1    0    0  503  502  0.00000000000E+00  0.00000000000E+00  0.22604990795E+04  0.22604990795E+04  0.00000000000E+00 0.  1.
         21   -1    0    0  501  503 -0.00000000000E+00 -0.00000000000E+00 -0.18066047865E+02  0.18066047865E+02  0.00000000000E+00 0.  1.
          6    2    1    2  501    0 -0.55422195123E+01 -0.82327295112E+02  0.90844039803E+03  0.92941526302E+03  0.17815800474E+03 0.  0.
         24    2    3    3    0    0 -0.35355532056E+02 -0.78238926547E+02  0.33767290076E+03  0.35783571974E+03  0.81560230135E+02 0.  0.
         -6    2    1    2    0  502  0.55422195123E+01  0.82327295112E+02  0.13339926336E+04  0.13491498644E+04  0.18401225562E+03 0.  0.
        -24    2    5    5    0    0  0.56082729956E+02  0.81643157389E+02  0.59217360092E+03  0.60559598029E+03  0.79158322128E+02 0.  0.
          5    1    3    3  501    0  0.29813312543E+02 -0.40883685650E+01  0.57076749726E+03  0.57157954328E+03  0.47000000000E+01 0. -1.
        -11    1    4    4    0    0  0.13202205950E+02 -0.28326221990E+02  0.21084317091E+03  0.21314670022E+03  0.00000000000E+00 0.  1.
         12    1    4    4    0    0 -0.48557738005E+02 -0.49912704557E+02  0.12682972985E+03  0.14468901952E+03  0.00000000000E+00 0. -1.
         -5    1    5    5    0  502 -0.50540510443E+02  0.68413772333E+00  0.74181903272E+03  0.74355388409E+03  0.47000000000E+01 0.  1.
         11    1    6    6    0    0  0.33482410978E+02  0.94641069823E+02  0.48697145670E+03  0.49721142744E+03  0.00000000000E+00 0. -1.
        -12    1    6    6    0    0  0.22600318978E+02 -0.12997912434E+02  0.10520214423E+03  0.10838455285E+03  0.00000000000E+00 0.  1.
<mgrwt>
<rscale>  2 0.20032040E+03</rscale>
<asrwt>0</asrwt>
<pdfrwt beam="1">  1       21 0.34776887E+00 0.20166559E+03</pdfrwt>
<pdfrwt beam="2">  1       21 0.27793938E-02 0.20166559E+03</pdfrwt>
<totfact> 0.12807271E+04</totfact>
</mgrwt>
</event>
<event>
12    1  0.1050690E-001  0.3631485E+03  0.7546771E-02  0.1057426E+00
         21   -1    0    0  503  502  0.00000000000E+00  0.00000000000E+00  0.12126678190E+03  0.12126678190E+03  0.00000000000E+00 0. -1.
         21   -1    0    0  501  503 -0.00000000000E+00 -0.00000000000E+00 -0.13149074266E+04  0.13149074266E+04  0.00000000000E+00 0.  1.
          6    2    1    2  501    0 -0.15728743365E+03 -0.27674907678E+03 -0.29598881037E+03  0.46784800118E+03  0.17304042321E+03 0.  0.
         24    2    3    3    0    0 -0.45669324376E+02 -0.43979144084E+02 -0.61293762518E+02  0.11892924363E+03  0.79795910695E+02 0.  0.
         -6    2    1    2    0  502  0.15728743365E+03  0.27674907678E+03 -0.89765183429E+03  0.96832620727E+03  0.17477825893E+03 0.  0.
        -24    2    5    5    0    0  0.14534845311E+03  0.19047104570E+03 -0.79217798088E+03  0.83145670133E+03  0.79805392788E+02 0.  0.
          5    1    3    3  501    0 -0.11161810927E+03 -0.23276993270E+03 -0.23469504785E+03  0.34891875755E+03  0.47000000000E+01 0. -1.
        -11    1    4    4    0    0 -0.51567505418E+02 -0.37639960335E+02 -0.77587417848E+02  0.10047776688E+03  0.00000000000E+00 0.  1.
         12    1    4    4    0    0  0.58981810421E+01 -0.63391837490E+01  0.16293655331E+02  0.18451476750E+02  0.00000000000E+00 0. -1.
         -5    1    5    5    0  502  0.11938980532E+02  0.86278031079E+02 -0.10547385341E+03  0.13686950594E+03  0.47000000000E+01 0.  1.
         13    1    6    6    0    0  0.87781096124E+02  0.77050834994E+02 -0.48745926287E+03  0.50125730416E+03  0.00000000000E+00 0. -1.
        -14    1    6    6    0    0  0.57567356991E+02  0.11342021071E+03 -0.30471871800E+03  0.33019939717E+03  0.00000000000E+00 0.  1.
<mgrwt>
<rscale>  2 0.36294002E+03</rscale>
<asrwt>0</asrwt>
<pdfrwt beam="1">  1       21 0.18656428E-01 0.36314849E+03</pdfrwt>
<pdfrwt beam="2">  1       21 0.20229346E+00 0.36314849E+03</pdfrwt>
<totfact> 0.30205898E+03</totfact>
</mgrwt>
</event>
<event>
12    1  0.1050690E-001  0.3787039E+03  0.7546771E-02  0.1051517E+00
         21   -1    0    0  503  502  0.00000000000E+00  0.00000000000E+00  0.93565941430E+02  0.93565941430E+02  0.00000000000E+00 0.  1.
         21   -1    0    0  501  503 -0.00000000000E+00 -0.00000000000E+00 -0.29111374103E+04  0.29111374103E+04  0.00000000000E+00 0.  1.
          6    2    1    2  501    0  0.11399409488E+03 -0.31559386779E+03 -0.24453243883E+04  0.24744752949E+04  0.17556331646E+03 0.  0.
         24    2    3    3    0    0  0.56681197268E+02 -0.30166930229E+03 -0.21485821159E+04  0.21718918718E+04  0.80573368202E+02 0.  0.
         -6    2    1    2    0  502 -0.11399409488E+03  0.31559386779E+03 -0.37224708054E+03  0.53022805678E+03  0.17314664356E+03 0.  0.
        -24    2    5    5    0    0 -0.97173309568E+02  0.11197420341E+03 -0.21241292854E+03  0.27078065810E+03  0.78879897728E+02 0.  0.
          5    1    3    3  501    0  0.57312897611E+02 -0.13924565501E+02 -0.29674227238E+03  0.30258342317E+03  0.47000000000E+01 0. -1.
        -13    1    4    4    0    0 -0.20507945477E+02 -0.52465925214E+02 -0.35822595050E+03  0.36262801981E+03  0.00000000000E+00 0.  1.
         14    1    4    4    0    0  0.77189142746E+02 -0.24920337707E+03 -0.17903561654E+04  0.18092638520E+04  0.00000000000E+00 0. -1.
         -5    1    5    5    0  502 -0.16820785311E+02  0.20361966438E+03 -0.15983415200E+03  0.25944739868E+03  0.47000000000E+01 0.  1.
         11    1    6    6    0    0  0.89652374769E+01  0.10076012539E+02 -0.49300542963E+02  0.51112083191E+02  0.00000000000E+00 0. -1.
        -12    1    6    6    0    0 -0.10613854705E+03  0.10189819087E+03 -0.16311238558E+03  0.21966857491E+03  0.00000000000E+00 0.  1.
<mgrwt>
<rscale>  2 0.37842499E+03</rscale>
<asrwt>0</asrwt>
<pdfrwt beam="1">  1       21 0.14394761E-01 0.37870387E+03</pdfrwt>
<pdfrwt beam="2">  1       21 0.44786728E+00 0.37870387E+03</pdfrwt>
<totfact> 0.14468571E+02</totfact>
</mgrwt>
</event>
<event>
12    1  0.1050690E-001  0.3180536E+03  0.7546771E-02  0.1076608E+00
         21   -1    0    0  501  502  0.00000000000E+00  0.00000000000E+00  0.10871437532E+03  0.10871437532E+03  0.00000000000E+00 0.  1.
         21   -1    0    0  502  503 -0.00000000000E+00 -0.00000000000E+00 -0.93239753309E+03  0.93239753309E+03  0.00000000000E+00 0. -1.
         -6    2    1    2    0  503 -0.26561524755E+03 -0.24541946278E+02 -0.44358837296E+03  0.54582850593E+03  0.17321762730E+03 0.  0.
        -24    2    3    3    0    0 -0.12077862692E+03 -0.39851183585E+02 -0.32454533632E+03  0.35766540117E+03  0.80120348933E+02 0.  0.
          6    2    1    2  501    0  0.26561524755E+03  0.24541946278E+02 -0.38009478481E+03  0.49528340247E+03  0.17227836912E+03 0.  0.
         24    2    5    5    0    0  0.13736709660E+03 -0.43943010562E+02 -0.24355518498E+03  0.29577668616E+03  0.85813824853E+02 0.  0.
          5    1    5    5  501    0  0.12824815094E+03  0.68484956840E+02 -0.13653959983E+03  0.19950671632E+03  0.47000000000E+01 0. -1.
        -13    1    6    6    0    0  0.12726391943E+03 -0.23564106689E+02 -0.24011013049E+03  0.27277141910E+03  0.00000000000E+00 0.  1.
         14    1    6    6    0    0  0.10103177170E+02 -0.20378903873E+02 -0.34450544934E+01  0.23005267059E+02  0.00000000000E+00 0. -1.
         -5    1    3    3    0  503 -0.14483662062E+03  0.15309237307E+02 -0.11904303664E+03  0.18816310476E+03  0.47000000000E+01 0.  1.
         13    1    4    4    0    0 -0.10133014711E+03  0.18337165306E+00 -0.18168089874E+03  0.20802831852E+03  0.00000000000E+00 0. -1.
        -14    1    4    4    0    0 -0.19448479816E+02 -0.40034555238E+02 -0.14286443758E+03  0.14963708266E+03  0.00000000000E+00 0.  1.
<mgrwt>
<rscale>  2 0.31792592E+03</rscale>
<asrwt>0</asrwt>
<pdfrwt beam="1">  1       21 0.16725289E-01 0.31805363E+03</pdfrwt>
<pdfrwt beam="2">  1       21 0.14344577E+00 0.31805363E+03</pdfrwt>
<totfact> 0.10029857E+04</totfact>
</mgrwt>
</event>
<event>
12    1  0.1050690E-001  0.3244855E+03  0.7546771E-02  0.1073697E+00
         21   -1    0    0  503  502  0.00000000000E+00  0.00000000000E+00  0.14541637487E+04  0.14541637487E+04  0.00000000000E+00 0. -1.
         21   -1    0    0  501  503 -0.00000000000E+00 -0.00000000000E+00 -0.85813036356E+02  0.85813036356E+02  0.00000000000E+00 0.  1.
          6    2    1    2  501    0 -0.11033476390E+03 -0.25178188793E+03  0.37847325231E+03  0.49853067180E+03  0.17240344774E+03 0.  0.
         24    2    3    3    0    0 -0.71868460467E+02 -0.17355319853E+03  0.14801221752E+03  0.25208846173E+03  0.79719430961E+02 0.  0.
         -6    2    1    2    0  502  0.11033476390E+03  0.25178188793E+03  0.98987746003E+03  0.10414461133E+04  0.17083542291E+03 0.  0.
        -24    2    5    5    0    0  0.14546475129E+03  0.20032040894E+03  0.81522532407E+03  0.85595255964E+03  0.82305499554E+02 0.  0.
          5    1    3    3  501    0 -0.38466303437E+02 -0.78228689404E+02  0.23046103479E+03  0.24644221007E+03  0.47000000000E+01 0. -1.
        -13    1    4    4    0    0 -0.20357496404E+02 -0.14019273331E+03  0.91362689935E+02  0.16856918830E+03  0.00000000000E+00 0.  1.
         14    1    4    4    0    0 -0.51510964063E+02 -0.33360465219E+02  0.56649527582E+02  0.83519273426E+02  0.00000000000E+00 0. -1.
         -5    1    5    5    0  502 -0.35129987390E+02  0.51461478993E+02  0.17465213597E+03  0.18549355361E+03  0.47000000000E+01 0.  1.
         13    1    6    6    0    0  0.11339427276E+03  0.14472448672E+03  0.46751300012E+03  0.50236624432E+03  0.00000000000E+00 0. -1.
        -14    1    6    6    0    0  0.32070478533E+02  0.55595922222E+02  0.34771232395E+03  0.35358631532E+03  0.00000000000E+00 0.  1.
<mgrwt>
<rscale>  2 0.32427769E+03</rscale>
<asrwt>0</asrwt>
<pdfrwt beam="1">  1       21 0.22371748E+00 0.32448548E+03</pdfrwt>
<pdfrwt beam="2">  1       21 0.13202007E-01 0.32448548E+03</pdfrwt>
<totfact> 0.42678434E+03</totfact>
</mgrwt>
</event>
<event>
12    1  0.1050690E-001  0.1945068E+03  0.7546771E-02  0.1154507E+00
         21   -1    0    0  503  502  0.00000000000E+00  0.00000000000E+00  0.10858691918E+03  0.10858691918E+03  0.00000000000E+00 0. -1.
         21   -1    0    0  501  503 -0.00000000000E+00 -0.00000000000E+00 -0.37310475426E+03  0.37310475426E+03  0.00000000000E+00 0. -1.
          6    2    1    2  501    0 -0.79897570437E+02 -0.37786726201E+02 -0.19464522418E+03  0.27501543332E+03  0.17301811128E+03 0.  0.
         24    2    3    3    0    0 -0.69253356004E+02  0.39670617792E+02 -0.14707539514E+03  0.18337527796E+03  0.75003569782E+02 0.  0.
         -6    2    1    2    0  502  0.79897570437E+02  0.37786726201E+02 -0.69872610902E+02  0.20667624012E+03  0.17326692713E+03 0.  0.
        -24    2    5    5    0    0 -0.41427921028E+01  0.44920481444E+02  0.53114392290E+01  0.93590412567E+02  0.81828733084E+02 0.  0.
          5    1    3    3  501    0 -0.10644214433E+02 -0.77457343993E+02 -0.47569829040E+02  0.91640155359E+02  0.47000000000E+01 0. -1.
        -13    1    4    4    0    0 -0.16131522085E+02 -0.21913120241E+02 -0.48183198162E+02  0.55335625312E+02  0.00000000000E+00 0.  1.
         14    1    4    4    0    0 -0.53121833919E+02  0.61583738033E+02 -0.98892196975E+02  0.12803965265E+03  0.00000000000E+00 0. -1.
         -5    1    5    5    0  502  0.84040362540E+02 -0.71337552425E+01 -0.75184050131E+02  0.11308582755E+03  0.47000000000E+01 0.  1.
         11    1    6    6    0    0 -0.23019993712E+02  0.23223705118E+02 -0.32487555326E+02  0.46094488184E+02  0.00000000000E+00 0. -1.
        -12    1    6    6    0    0  0.18877201609E+02  0.21696776326E+02  0.37798994555E+02  0.47495924382E+02  0.00000000000E+00 0.  1.
<mgrwt>
<rscale>  2 0.19445135E+03</rscale>
<asrwt>0</asrwt>
<pdfrwt beam="1">  1       21 0.16705680E-01 0.19450678E+03</pdfrwt>
<pdfrwt beam="2">  1       21 0.57400731E-01 0.19450678E+03</pdfrwt>
<totfact> 0.91705487E+04</totfact>
</mgrwt>
</event>
<event>
12    1  0.1050690E-001  0.3071970E+03  0.7546771E-02  0.1081737E+00
         21   -1    0    0  501  502  0.00000000000E+00  0.00000000000E+00  0.49095853925E+03  0.49095853925E+03  0.00000000000E+00 0. -1.
         21   -1    0    0  502  503 -0.00000000000E+00 -0.00000000000E+00 -0.35974920341E+03  0.35974920341E+03  0.00000000000E+00 0.  1.
         -6    2    1    2    0  503 -0.25276386769E+03 -0.35499366129E+01 -0.22482256235E+03  0.38067724362E+03  0.17455029191E+03 0.  0.
        -24    2    3    3    0    0 -0.15621046368E+03 -0.17355062354E+02 -0.55472457114E+02  0.18519146545E+03  0.80720370560E+02 0.  0.
          6    2    1    2  501    0  0.25276386769E+03  0.35499366129E+01  0.35603189820E+03  0.47003049904E+03  0.17397638528E+03 0.  0.
         24    2    5    5    0    0  0.19783808476E+03  0.66134503757E+02  0.24964485926E+03  0.33484928094E+03  0.79295679691E+02 0.  0.
          5    1    5    5  501    0  0.54925782934E+02 -0.62584567144E+02  0.10638703893E+03  0.13518121811E+03  0.47000000000E+01 0. -1.
        -11    1    6    6    0    0  0.11449811755E+03  0.21909400001E+02  0.19098694391E+03  0.22375400214E+03  0.00000000000E+00 0.  1.
         12    1    6    6    0    0  0.83339967210E+02  0.44225103756E+02  0.58657915359E+02  0.11109527880E+03  0.00000000000E+00 0. -1.
         -5    1    3    3    0  503 -0.96553404012E+02  0.13805125741E+02 -0.16935010524E+03  0.19548577817E+03  0.47000000000E+01 0.  1.
         11    1    4    4    0    0 -0.12517829660E+02  0.23467200135E+02 -0.25673909760E+01  0.26720723007E+02  0.00000000000E+00 0. -1.
        -12    1    4    4    0    0 -0.14369263402E+03 -0.40822262489E+02 -0.52905066138E+02  0.15847074244E+03  0.00000000000E+00 0.  1.
<mgrwt>
<rscale>  2 0.30711551E+03</rscale>
<asrwt>0</asrwt>
<pdfrwt beam="1">  1       21 0.75532083E-01 0.30719697E+03</pdfrwt>
<pdfrwt beam="2">  1       21 0.55346031E-01 0.30719697E+03</pdfrwt>
<totfact> 0.44786153E+03</totfact>
</mgrwt>
</event>
<event>
12    1  0.1050690E-001  0.1754287E+03  0.7546771E-02  0.1172670E+00
         21   -1    0    0  501  502  0.00000000000E+00  0.00000000000E+00  0.10109150045E+03  0.10109150045E+03  0.00000000000E+00 0. -1.
         21   -1    0    0  502  503 -0.00000000000E+00 -0.00000000000E+00 -0.85756076401E+03  0.85756076401E+03  0.00000000000E+00 0. -1.
         -6    2    1    2    0  503  0.34546504031E+01 -0.96334761750E+01 -0.76463189716E+03  0.78449803968E+03  0.17512994499E+03 0.  0.
        -24    2    3    3    0    0 -0.51420204413E+02  0.33757664939E+02 -0.36855029027E+03  0.38225834728E+03  0.80675338540E+02 0.  0.
          6    2    1    2  501    0 -0.34546504031E+01  0.96334761750E+01  0.81626336006E+01  0.17415422478E+03  0.17366152985E+03 0.  0.
         24    2    5    5    0    0 -0.13335915552E+02 -0.45728415640E+02 -0.38292400129E+02  0.10106018518E+03  0.80485517207E+02 0.  0.
          5    1    5    5  501    0  0.98812651488E+01  0.55361891815E+02  0.46455033729E+02  0.73094039600E+02  0.47000000000E+01 0. -1.
        -11    1    6    6    0    0 -0.40958597611E+02 -0.45794202362E+02 -0.11358734200E+02  0.62479889011E+02  0.00000000000E+00 0.  1.
         12    1    6    6    0    0  0.27622682059E+02  0.65786721868E-01 -0.26933665929E+02  0.38580296168E+02  0.00000000000E+00 0. -1.
         -5    1    3    3    0  503  0.54874854816E+02 -0.43391141114E+02 -0.39608160689E+03  0.40223969239E+03  0.47000000000E+01 0.  1.
         11    1    4    4    0    0 -0.47729342597E+02  0.28563533294E+02 -0.37120951157E+03  0.37535378919E+03  0.00000000000E+00 0. -1.
        -12    1    4    4    0    0 -0.36908618159E+01  0.51941316447E+01  0.26592213060E+01  0.69045580917E+01  0.00000000000E+00 0.  1.
<mgrwt>
<rscale>  2 0.17506109E+03</rscale>
<asrwt>0</asrwt>
<pdfrwt beam="1">  1       21 0.15552539E-01 0.17542872E+03</pdfrwt>
<pdfrwt beam="2">  1       21 0.13193243E+00 0.17542872E+03</pdfrwt>
<totfact> 0.15476631E+04</totfact>
</mgrwt>
</event>
<event>
12    1  0.1050690E-001  0.1788377E+03  0.7546771E-02  0.1169779E+00
         21   -1    0    0  503  502  0.00000000000E+00  0.00000000000E+00  0.18511994625E+03  0.18511994625E+03  0.00000000000E+00 0. -1.
         21   -1    0    0  501  503 -0.00000000000E+00 -0.00000000000E+00 -0.20966990077E+03  0.20966990077E+03  0.00000000000E+00 0. -1.
          6    2    1    2  501    0  0.15817161483E+02 -0.26567107928E+02 -0.98801480535E+02  0.20431508893E+03  0.17614462576E+03 0.  0.
         24    2    3    3    0    0  0.14642602137E+00 -0.52278442804E+02  0.39638961226E+01  0.97126202699E+02  0.81760196646E+02 0.  0.
         -6    2    1    2    0  502 -0.15817161483E+02  0.26567107928E+02  0.74251526022E+02  0.19047475809E+03  0.17265963782E+03 0.  0.
        -24    2    5    5    0    0  0.34207600743E+02  0.47760589844E+02  0.91131002005E+02  0.13339019607E+03  0.77697174924E+02 0.  0.
          5    1    3    3  501    0  0.15670735462E+02  0.25711334876E+02 -0.10276537666E+03  0.10718888623E+03  0.47000000000E+01 0. -1.
        -11    1    4    4    0    0  0.33785790584E+02 -0.36180533559E+02 -0.19345044590E+02  0.53148296344E+02  0.00000000000E+00 0.  1.
         12    1    4    4    0    0 -0.33639364563E+02 -0.16097909245E+02  0.23308940712E+02  0.43977906355E+02  0.00000000000E+00 0. -1.
         -5    1    5    5    0  502 -0.50024762226E+02 -0.21193481915E+02 -0.16879475982E+02  0.57084562019E+02  0.47000000000E+01 0.  1.
         11    1    6    6    0    0  0.14342523343E+02  0.28029865343E+02  0.99342045973E+02  0.10421239574E+03  0.00000000000E+00 0. -1.
        -12    1    6    6    0    0  0.19865077400E+02  0.19730724501E+02 -0.82110439681E+01  0.29177800337E+02  0.00000000000E+00 0.  1.
<mgrwt>
<rscale>  2 0.17797359E+03</rscale>
<asrwt>0</asrwt>
<pdfrwt beam="1">  1       21 0.28479992E-01 0.17883770E+03</pdfrwt>
<pdfrwt beam="2">  1       21 0.32256908E-01 0.17883770E+03</pdfrwt>
<totfact> 0.10955044E+05</totfact>
</mgrwt>
</event>
<event>
12    1  0.1050690E-001  0.2041528E+03  0.7546771E-02  0.1146582E+00
         21   -1    0    0  501  502  0.00000000000E+00  0.00000000000E+00  0.64725660026E+03  0.64725660026E+03  0.00000000000E+00 0.  1.
         21   -1    0    0  502  503 -0.00000000000E+00 -0.00000000000E+00 -0.64586503445E+02  0.64586503445E+02  0.00000000000E+00 0.  1.
         -6    2    1    2    0  503  0.10447239797E+03  0.13368039759E+02  0.32816341883E+03  0.38648362816E+03  0.17488618859E+03 0.  0.
        -24    2    3    3    0    0  0.32010349956E+02 -0.54808734502E+02  0.23000802387E+03  0.24664303138E+03  0.62453454671E+02 0.  0.
          6    2    1    2  501    0 -0.10447239797E+03 -0.13368039759E+02  0.25450667799E+03  0.32535947554E+03  0.17318184882E+03 0.  0.
         24    2    5    5    0    0 -0.11143470367E+03  0.32453141423E+02  0.23568083693E+03  0.27511450925E+03  0.81680087741E+02 0.  0.
          5    1    5    5  501    0  0.69623057073E+01 -0.45821181183E+02  0.18825841057E+02  0.50244966288E+02  0.47000000000E+01 0. -1.
        -13    1    6    6    0    0 -0.61005865567E+02 -0.12553554588E+02  0.16923320195E+03  0.18033076279E+03  0.00000000000E+00 0.  1.
         14    1    6    6    0    0 -0.50428838107E+02  0.45006696011E+02  0.66447634980E+02  0.94783746461E+02  0.00000000000E+00 0. -1.
         -5    1    3    3    0  503  0.72462048011E+02  0.68176774262E+02  0.98155394955E+02  0.13984059679E+03  0.47000000000E+01 0.  1.
         11    1    4    4    0    0 -0.18946791111E+02 -0.18018350710E+02  0.63914713488E+02  0.69056009558E+02  0.00000000000E+00 0. -1.
        -12    1    4    4    0    0  0.50957141067E+02 -0.36790383792E+02  0.16609331038E+03  0.17758702182E+03  0.00000000000E+00 0.  1.
<mgrwt>
<rscale>  2 0.20378729E+03</rscale>
<asrwt>0</asrwt>
<pdfrwt beam="1">  1       21 0.99577934E-01 0.20415280E+03</pdfrwt>
<pdfrwt beam="2">  1       21 0.99363856E-02 0.20415280E+03</pdfrwt>
<totfact> 0.67678168E+04</totfact>
</mgrwt>
</event>
<event>
12    1  0.1050690E-001  0.2758743E+03  0.7546771E-02  0.1098076E+00
         21   -1    0    0  501  502  0.00000000000E+00  0.00000000000E+00  0.12687158918E+03  0.12687158918E+03  0.00000000000E+00 0. -1.
         21   -1    0    0  502  503 -0.00000000000E+00 -0.00000000000E+00 -0.86827547650E+03  0.86827547650E+03  0.00000000000E+00 0.  1.
         -6    2    1    2    0  503 -0.40270526313E+02 -0.21066500804E+03 -0.64861607482E+03  0.70484711963E+03  0.17350846848E+03 0.  0.
        -24    2    3    3    0    0 -0.91457546848E+02 -0.13573612219E+03 -0.38359957318E+03  0.42468594254E+03  0.80129517072E+02 0.  0.
          6    2    1    2  501    0  0.40270526313E+02  0.21066500804E+03 -0.92787812497E+02  0.29029994605E+03  0.17222955502E+03 0.  0.
         24    2    5    5    0    0  0.36053587847E+02  0.13732938385E+03 -0.12750631526E+03  0.20891591334E+03  0.85022217989E+02 0.  0.
          5    1    5    5  501    0  0.42169384660E+01  0.73335624192E+02  0.34718502759E+02  0.81384032706E+02  0.47000000000E+01 0. -1.
        -13    1    6    6    0    0  0.29320719335E+02  0.58242669241E+01 -0.43297912993E+02  0.52614978258E+02  0.00000000000E+00 0.  1.
         14    1    6    6    0    0  0.67328685118E+01  0.13150511693E+03 -0.84208402263E+02  0.15630093508E+03  0.00000000000E+00 0. -1.
         -5    1    3    3    0  503  0.51187020535E+02 -0.74928885855E+02 -0.26501650164E+03  0.28016117709E+03  0.47000000000E+01 0.  1.
         11    1    4    4    0    0 -0.37229612621E+02 -0.36085774350E+02 -0.48856420883E+02  0.71240276725E+02  0.00000000000E+00 0. -1.
        -12    1    4    4    0    0 -0.54227934228E+02 -0.99650347838E+02 -0.33474315229E+03  0.35344566581E+03  0.00000000000E+00 0.  1.
<mgrwt>
<rscale>  2 0.27567348E+03</rscale>
<asrwt>0</asrwt>
<pdfrwt beam="1">  1       21 0.19518705E-01 0.27587434E+03</pdfrwt>
<pdfrwt beam="2">  1       21 0.13358085E+00 0.27587434E+03</pdfrwt>
<totfact> 0.92435341E+03</totfact>
</mgrwt>
</event>
<event>
12    1  0.1050690E-001  0.2142893E+03  0.7546771E-02  0.1138462E+00
         21   -1    0    0  501  502  0.00000000000E+00  0.00000000000E+00  0.86393904618E+02  0.86393904618E+02  0.00000000000E+00 0. -1.
         21   -1    0    0  502  503 -0.00000000000E+00 -0.00000000000E+00 -0.85397259271E+03  0.85397259271E+03  0.00000000000E+00 0.  1.
         -6    2    1    2    0  503  0.26909417198E+02  0.12071781532E+03 -0.67341692610E+03  0.70630169257E+03  0.17342092405E+03 0.  0.
        -24    2    3    3    0    0 -0.74837645549E+01  0.43352955007E+02 -0.53948377881E+03  0.54778232307E+03  0.84185749584E+02 0.  0.
          6    2    1    2  501    0 -0.26909417198E+02 -0.12071781532E+03 -0.94161761992E+02  0.23406480476E+03  0.17499425058E+03 0.  0.
         24    2    5    5    0    0 -0.93500253247E+01 -0.99926273838E+02 -0.13386266182E+03  0.18570292011E+03  0.80583367574E+02 0.  0.
          5    1    5    5  501    0 -0.17559391873E+02 -0.20791541480E+02  0.39700899828E+02  0.48361884653E+02  0.47000000000E+01 0. -1.
        -11    1    6    6    0    0 -0.26745145174E+02 -0.48200685320E+02 -0.11574628122E+03  0.12820222491E+03  0.00000000000E+00 0.  1.
         12    1    6    6    0    0  0.17395119850E+02 -0.51725588518E+02 -0.18116380603E+02  0.57500695198E+02  0.00000000000E+00 0. -1.
         -5    1    3    3    0  503  0.34393181753E+02  0.77364860310E+02 -0.13393314729E+03  0.15851936949E+03  0.47000000000E+01 0.  1.
         11    1    4    4    0    0 -0.43073872186E+02  0.26654265517E+02 -0.21300103935E+03  0.21894120466E+03  0.00000000000E+00 0. -1.
        -12    1    4    4    0    0  0.35590107631E+02  0.16698689490E+02 -0.32648273946E+03  0.32884111841E+03  0.00000000000E+00 0.  1.
<mgrwt>
<rscale>  2 0.21396784E+03</rscale>
<asrwt>0</asrwt>
<pdfrwt beam="1">  1       21 0.13291370E-01 0.21428928E+03</pdfrwt>
<pdfrwt beam="2">  1       21 0.13138040E+00 0.21428928E+03</pdfrwt>
<totfact> 0.20274698E+04</totfact>
</mgrwt>
</event>
<event>
12    1  0.1050690E-001  0.1961645E+03  0.7546771E-02  0.1155056E+00
         21   -1    0    0  503  502  0.00000000000E+00  0.00000000000E+00  0.50074095113E+02  0.50074095113E+02  0.00000000000E+00 0.  1.
         21   -1    0    0  501  503 -0.00000000000E+00 -0.00000000000E+00 -0.89582560527E+03  0.89582560527E+03  0.00000000000E+00 0.  1.
          6    2    1    2  501    0  0.59574970279E+02 -0.46429636475E+02 -0.63283474470E+03  0.66254081028E+03  0.18104039042E+03 0.  0.
         24    2    3    3    0    0  0.87567118164E+02  0.17516481436E+02 -0.46282344007E+03  0.47869685460E+03  0.83488410086E+02 0.  0.
         -6    2    1    2    0  502 -0.59574970279E+02  0.46429636475E+02 -0.21291676545E+03  0.28335889010E+03  0.17103749109E+03 0.  0.
        -24    2    5    5    0    0 -0.28817443761E+01  0.43942393010E+02 -0.41175466918E+02  0.10242389662E+03  0.82800949079E+02 0.  0.
          5    1    3    3  501    0 -0.27992147886E+02 -0.63946117912E+02 -0.17001130463E+03  0.18384395568E+03  0.47000000000E+01 0. -1.
        -11    1    4    4    0    0  0.58568084265E+02 -0.59289413671E+01 -0.40901458018E+03  0.41322911277E+03  0.00000000000E+00 0.  1.
         12    1    4    4    0    0  0.28999033900E+02  0.23445422803E+02 -0.53808859889E+02  0.65467741828E+02  0.00000000000E+00 0. -1.
         -5    1    5    5    0  502 -0.56693225903E+02  0.24872434659E+01 -0.17174129853E+03  0.18093499348E+03  0.47000000000E+01 0.  1.
         13    1    6    6    0    0  0.28440319747E+02  0.24401150448E+02 -0.51868000419E+02  0.63988728679E+02  0.00000000000E+00 0. -1.
        -14    1    6    6    0    0 -0.31322064123E+02  0.19541242562E+02  0.10692533501E+02  0.38435167938E+02  0.00000000000E+00 0.  1.
<mgrwt>
<rscale>  2 0.19382498E+03</rscale>
<asrwt>0</asrwt>
<pdfrwt beam="1">  1       21 0.77037071E-02 0.19616450E+03</pdfrwt>
<pdfrwt beam="2">  1       21 0.13781932E+00 0.19616450E+03</pdfrwt>
<totfact> 0.47654596E+04</totfact>
</mgrwt>
</event>
<event>
12    1  0.1050690E-001  0.1872707E+03  0.7546771E-02  0.1161139E+00
         21   -1    0    0  503  502  0.00000000000E+00  0.00000000000E+00  0.18045124368E+03  0.18045124368E+03  0.00000000000E+00 0.  1.
         21   -1    0    0  501  503 -0.00000000000E+00 -0.00000000000E+00 -0.21491864816E+03  0.21491864816E+03  0.00000000000E+00 0.  1.
          6    2    1    2  501    0 -0.71225955692E+02 -0.72809501971E+01 -0.79702658746E+02  0.20352599858E+03  0.17304383631E+03 0.  0.
         24    2    3    3    0    0  0.93332824543E+01 -0.11060602880E+02 -0.89724301258E+02  0.12212206782E+03  0.81571454038E+02 0.  0.
         -6    2    1    2    0  502  0.71225955692E+02  0.72809501971E+01  0.45235254264E+02  0.19184389326E+03  0.17213861319E+03 0.  0.
        -24    2    5    5    0    0 -0.17489346289E+02 -0.33675491770E+02  0.19309647654E+02  0.90640820071E+02  0.80018621527E+02 0.  0.
          5    1    3    3  501    0 -0.80559238146E+02  0.37796526828E+01  0.10021642511E+02  0.81403930763E+02  0.47000000000E+01 0. -1.
        -13    1    4    4    0    0 -0.32890150370E+02  0.51057502713E+01 -0.19421975892E+02  0.38536266357E+02  0.00000000000E+00 0.  1.
         14    1    4    4    0    0  0.42223432824E+02 -0.16166353151E+02 -0.70302325365E+02  0.83585801458E+02  0.00000000000E+00 0. -1.
         -5    1    5    5    0  502  0.88715301980E+02  0.40956441968E+02  0.25925606611E+02  0.10120307319E+03  0.47000000000E+01 0.  1.
         11    1    6    6    0    0 -0.25648996687E+02  0.45573936054E+01  0.38974910118E+02  0.46879467640E+02  0.00000000000E+00 0. -1.
        -12    1    6    6    0    0  0.81596503982E+01 -0.38232885376E+02 -0.19665262465E+02  0.43761352431E+02  0.00000000000E+00 0.  1.
<mgrwt>
<rscale>  2 0.18706132E+03</rscale>
<asrwt>0</asrwt>
<pdfrwt beam="1">  1       21 0.27761730E-01 0.18727071E+03</pdfrwt>
<pdfrwt beam="2">  1       21 0.33064407E-01 0.18727071E+03</pdfrwt>
<totfact> 0.10929700E+05</totfact>
</mgrwt>
</event>
<event>
12    1  0.1050690E-001  0.1784494E+03  0.7546771E-02  0.1169636E+00
         21   -1    0    0  503  502  0.00000000000E+00  0.00000000000E+00  0.40698536823E+03  0.40698536823E+03  0.00000000000E+00 0.  1.
         21   -1    0    0  501  503 -0.00000000000E+00 -0.00000000000E+00 -0.19640066467E+03  0.19640066467E+03  0.00000000000E+00 0.  1.
          6    2    1    2  501    0 -0.38693907928E+02 -0.24764084769E+01 -0.12912687410E+03  0.22026789947E+03  0.17418624175E+03 0.  0.
         24    2    3    3    0    0 -0.33020643385E+02 -0.52768525838E+02 -0.13430038294E+03  0.16917643059E+03  0.81909655099E+02 0.  0.
         -6    2    1    2    0  502  0.38693907928E+02  0.24764084769E+01  0.33971157766E+03  0.38311813343E+03  0.17283575168E+03 0.  0.
        -24    2    5    5    0    0 -0.18383591023E+02 -0.27582586726E+02  0.74705686896E+02  0.11033324342E+03  0.74119696706E+02 0.  0.
          5    1    3    3  501    0 -0.56732645438E+01  0.50292117361E+02  0.51735088466E+01  0.51091468887E+02  0.47000000000E+01 0. -1.
        -13    1    4    4    0    0 -0.44321338786E+02  0.43848034125E+01 -0.54867113111E+02  0.70668293271E+02  0.00000000000E+00 0.  1.
         14    1    4    4    0    0  0.11300695401E+02 -0.57153329251E+02 -0.79433269831E+02  0.98508137314E+02  0.00000000000E+00 0. -1.
         -5    1    5    5    0  502  0.57077498951E+02  0.30058995203E+02  0.26500589076E+03  0.27278489001E+03  0.47000000000E+01 0.  1.
         11    1    6    6    0    0 -0.28415708814E+02  0.68661433906E+01  0.20550388449E+01  0.29305624326E+02  0.00000000000E+00 0. -1.
        -12    1    6    6    0    0  0.10032117791E+02 -0.34448730116E+02  0.72650648051E+02  0.81027619095E+02  0.00000000000E+00 0.  1.
<mgrwt>
<rscale>  2 0.17811901E+03</rscale>
<asrwt>0</asrwt>
<pdfrwt beam="1">  1       21 0.62613134E-01 0.17844943E+03</pdfrwt>
<pdfrwt beam="2">  1       21 0.30215487E-01 0.17844943E+03</pdfrwt>
<totfact> 0.25041597E+04</totfact>
</mgrwt>
</event>
<event>
12    1  0.1050690E-001  0.1946184E+03  0.7546771E-02  0.1154439E+00
         21   -1    0    0  501  502  0.00000000000E+00  0.00000000000E+00  0.94464723324E+03  0.94464723324E+03  0.00000000000E+00 0. -1.
         21   -1    0    0  502  503 -0.00000000000E+00 -0.00000000000E+00 -0.40024060479E+02  0.40024060479E+02  0.00000000000E+00 0.  1.
         -6    2    1    2    0  503  0.85237647285E+02 -0.21125842786E+02  0.45641265210E+03  0.49617417428E+03  0.17367943022E+03 0.  0.
        -24    2    3    3    0    0  0.77659607793E+02 -0.55343588667E+01  0.46365326123E+03  0.47680829000E+03  0.79436483767E+02 0.  0.
          6    2    1    2  501    0 -0.85237647285E+02  0.21125842786E+02  0.44821052066E+03  0.48849711943E+03  0.17327725504E+03 0.  0.
         24    2    5    5    0    0 -0.10717045156E+03 -0.92453467199E+01  0.22664571032E+03  0.26373833265E+03  0.81355073474E+02 0.  0.
          5    1    5    5  501    0  0.21932804271E+02  0.30371189506E+02  0.22156481034E+03  0.22475878678E+03  0.47000000000E+01 0. -1.
        -11    1    6    6    0    0 -0.69957863606E+02 -0.43845413981E+02  0.12068177392E+03  0.14622111189E+03  0.00000000000E+00 0.  1.
         12    1    6    6    0    0 -0.37212587950E+02  0.34600067262E+02  0.10596393640E+03  0.11751722076E+03  0.00000000000E+00 0. -1.
         -5    1    3    3    0  503  0.75780394915E+01 -0.15591483919E+02 -0.72406091335E+01  0.19365884281E+02  0.47000000000E+01 0.  1.
         11    1    4    4    0    0  0.23201931888E+02  0.32937705004E+02  0.24244095080E+03  0.24576581674E+03  0.00000000000E+00 0. -1.
        -12    1    4    4    0    0  0.54457675905E+02 -0.38472063871E+02  0.22121231044E+03  0.23104247326E+03  0.00000000000E+00 0.  1.
<mgrwt>
<rscale>  2 0.19452858E+03</rscale>
<asrwt>0</asrwt>
<pdfrwt beam="1">  1       21 0.14533033E+00 0.19461835E+03</pdfrwt>
<pdfrwt beam="2">  1       21 0.61575485E-02 0.19461835E+03</pdfrwt>
<totfact> 0.61187028E+04</totfact>
</mgrwt>
</event>
<event>
12    1  0.1050690E-001  0.2079381E+03  0.7546771E-02  0.1145207E+00
         21   -1    0    0  503  502  0.00000000000E+00  0.00000000000E+00  0.53163627191E+02  0.53163627191E+02  0.00000000000E+00 0.  1.
         21   -1    0    0  501  503 -0.00000000000E+00 -0.00000000000E+00 -0.78047992066E+03  0.78047992066E+03  0.00000000000E+00 0.  1.
          6    2    1    2  501    0 -0.58445924299E+01 -0.99437395718E+02 -0.32260722721E+03  0.37864058548E+03  0.17138061441E+03 0.  0.
         24    2    3    3    0    0 -0.47015113648E+02 -0.79564821471E+02 -0.30532122392E+03  0.32954041303E+03  0.82673165646E+02 0.  0.
         -6    2    1    2    0  502  0.58445924299E+01  0.99437395718E+02 -0.40470906626E+03  0.45500296237E+03  0.18252756649E+03 0.  0.
        -24    2    5    5    0    0  0.44657320989E+02  0.82391350731E+02 -0.39127392339E+03  0.41028620252E+03  0.80354675387E+02 0.  0.
          5    1    3    3  501    0  0.41170521218E+02 -0.19872574247E+02 -0.17286003290E+02  0.49100172447E+02  0.47000000000E+01 0. -1.
        -13    1    4    4    0    0  0.13178498029E+01 -0.27037135938E+02 -0.15785900535E+02  0.31335891619E+02  0.00000000000E+00 0.  1.
         14    1    4    4    0    0 -0.48332963451E+02 -0.52527685533E+02 -0.28953532338E+03  0.29820452141E+03  0.00000000000E+00 0. -1.
         -5    1    5    5    0  502 -0.38812728559E+02  0.17046044987E+02 -0.13435142864E+02  0.44716759853E+02  0.47000000000E+01 0.  1.
         11    1    6    6    0    0  0.63612495407E+02  0.35782468130E+02 -0.24134525430E+03  0.25213977546E+03  0.00000000000E+00 0. -1.
        -12    1    6    6    0    0 -0.18955174417E+02  0.46608882601E+02 -0.14992866910E+03  0.15814642706E+03  0.00000000000E+00 0.  1.
<mgrwt>
<rscale>  2 0.20546619E+03</rscale>
<asrwt>0</asrwt>
<pdfrwt beam="1">  1       21 0.81790197E-02 0.20793813E+03</pdfrwt>
<pdfrwt beam="2">  1       21 0.12007383E+00 0.20793813E+03</pdfrwt>
<totfact> 0.60414145E+04</totfact>
</mgrwt>
</event>
<event>
12    1  0.1050690E-001  0.2259998E+03  0.7546771E-02  0.1129630E+00
         21   -1    0    0  503  502  0.00000000000E+00  0.00000000000E+00  0.16429387365E+03  0.16429387365E+03  0.00000000000E+00 0. -1.
         21   -1    0    0  501  503 -0.00000000000E+00 -0.00000000000E+00 -0.50226009241E+03  0.50226009241E+03  0.00000000000E+00 0. -1.
          6    2    1    2  501    0 -0.85422621794E+02 -0.11675918178E+03 -0.37547393903E+03  0.43824263659E+03  0.17362660737E+03 0.  0.
         24    2    3    3    0    0  0.82989354619E+01 -0.60184883852E+01 -0.16329267926E+03  0.18116247697E+03  0.77783349325E+02 0.  0.
         -6    2    1    2    0  502  0.85422621794E+02  0.11675918178E+03  0.37507720272E+02  0.22831132947E+03  0.17259635929E+03 0.  0.
        -24    2    5    5    0    0  0.91448291981E+02  0.21614646120E+02  0.46728640226E+02  0.13241603901E+03  0.80749356266E+02 0.  0.
          5    1    3    3  501    0 -0.93721557256E+02 -0.11074069339E+03 -0.21218125978E+03  0.25708015961E+03  0.47000000000E+01 0. -1.
        -13    1    4    4    0    0  0.20783333689E+02 -0.22724766591E+02 -0.20823754945E+02  0.37175136124E+02  0.00000000000E+00 0.  1.
         14    1    4    4    0    0 -0.12484398227E+02  0.16706278206E+02 -0.14246892431E+03  0.14398734085E+03  0.00000000000E+00 0. -1.
         -5    1    5    5    0  502 -0.60256701876E+01  0.95144535656E+02 -0.92209199544E+01  0.95895290454E+02  0.47000000000E+01 0.  1.
         13    1    6    6    0    0 -0.63304341832E+01  0.23908141271E+02  0.18373038631E+01  0.24800187528E+02  0.00000000000E+00 0. -1.
        -14    1    6    6    0    0  0.97778726164E+02 -0.22934951503E+01  0.44891336363E+02  0.10761585148E+03  0.00000000000E+00 0.  1.
<mgrwt>
<rscale>  2 0.22580195E+03</rscale>
<asrwt>0</asrwt>
<pdfrwt beam="1">  1       21 0.25275981E-01 0.22599984E+03</pdfrwt>
<pdfrwt beam="2">  1       21 0.77270783E-01 0.22599984E+03</pdfrwt>
<totfact> 0.21641523E+04</totfact>
</mgrwt>
</event>
<event>
12    1  0.1050690E-001  0.1891511E+03  0.7546771E-02  0.1159605E+00
         21   -1    0    0  503  502  0.00000000000E+00  0.00000000000E+00  0.47212638677E+03  0.47212638677E+03  0.00000000000E+00 0. -1.
         21   -1    0    0  501  503 -0.00000000000E+00 -0.00000000000E+00 -0.11202989006E+03  0.11202989006E+03  0.00000000000E+00 0. -1.
          6    2    1    2  501    0 -0.62333512821E+02 -0.34695520830E+02  0.12932794162E+02  0.18959272575E+03  0.17518247203E+03 0.  0.
         24    2    3    3    0    0 -0.24526462752E+02 -0.51245418496E+02  0.68295464566E+02  0.12038010102E+03  0.81237047892E+02 0.  0.
         -6    2    1    2    0  502  0.62333512821E+02  0.34695520830E+02  0.34716370254E+03  0.39456355108E+03  0.17340274938E+03 0.  0.
        -24    2    5    5    0    0  0.70497442173E+02  0.14636126212E+02  0.10466006596E+03  0.15104941841E+03  0.81719592826E+02 0.  0.
          5    1    3    3  501    0 -0.37807050069E+02  0.16549897666E+02 -0.55362670404E+02  0.69212624729E+02  0.47000000000E+01 0. -1.
        -11    1    4    4    0    0  0.26160356267E+02 -0.27222295923E+02  0.91113722971E+01  0.38838572843E+02  0.00000000000E+00 0.  1.
         12    1    4    4    0    0 -0.50686819019E+02 -0.24023122573E+02  0.59184092269E+02  0.81541528181E+02  0.00000000000E+00 0. -1.
         -5    1    5    5    0  502 -0.81639293523E+01  0.20059394618E+02  0.24250363658E+03  0.24351413267E+03  0.47000000000E+01 0.  1.
         11    1    6    6    0    0  0.80990828872E+02 -0.10192687607E+02  0.73448159742E+02  0.10980909530E+03  0.00000000000E+00 0. -1.
        -12    1    6    6    0    0 -0.10493386699E+02  0.24828813819E+02  0.31211906219E+02  0.41240323106E+02  0.00000000000E+00 0.  1.
<mgrwt>
<rscale>  2 0.18873799E+03</rscale>
<asrwt>0</asrwt>
<pdfrwt beam="1">  1       21 0.72634828E-01 0.18915112E+03</pdfrwt>
<pdfrwt beam="2">  1       21 0.17235368E-01 0.18915112E+03</pdfrwt>
<totfact> 0.52023540E+04</totfact>
</mgrwt>
</event>
<event>
12    1  0.1050690E-001  0.1971461E+03  0.7546771E-02  0.1152509E+00
         21   -1    0    0  501  502  0.00000000000E+00  0.00000000000E+00  0.43604474154E+02  0.43604474154E+02  0.00000000000E+00 0. -1.
         21   -1    0    0  502  503 -0.00000000000E+00 -0.00000000000E+00 -0.10228503512E+04  0.10228503512E+04  0.00000000000E+00 0.  1.
         -6    2    1    2    0  503  0.38063197899E+02  0.88235534154E+02 -0.68421934945E+03  0.71162070987E+03  0.17033379005E+03 0.  0.
        -24    2    3    3    0    0  0.20417885188E+02  0.45460452893E+02 -0.16545304395E+03  0.19077367440E+03  0.80847648562E+02 0.  0.
          6    2    1    2  501    0 -0.38063197899E+02 -0.88235534154E+02 -0.29502652756E+03  0.35483411545E+03  0.17214029453E+03 0.  0.
         24    2    5    5    0    0  0.62269258479E+01 -0.99403972337E+02 -0.27958060626E+03  0.30638810883E+03  0.76081755453E+02 0.  0.
          5    1    5    5  501    0 -0.44290123746E+02  0.11168438183E+02 -0.15445921304E+02  0.48446006625E+02  0.47000000000E+01 0. -1.
        -11    1    6    6    0    0 -0.13631416439E+02 -0.12518193803E+02 -0.13699121160E+03  0.13823571444E+03  0.00000000000E+00 0.  1.
         12    1    6    6    0    0  0.19858342287E+02 -0.86885778535E+02 -0.14258939466E+03  0.16815239439E+03  0.00000000000E+00 0. -1.
         -5    1    3    3    0  503  0.17645312711E+02  0.42775081262E+02 -0.51876630550E+03  0.52084703547E+03  0.47000000000E+01 0.  1.
         11    1    4    4    0    0 -0.29184621668E+02  0.85110275218E+01 -0.77504337749E+02  0.83253240785E+02  0.00000000000E+00 0. -1.
        -12    1    4    4    0    0  0.49602506856E+02  0.36949425371E+02 -0.87948706200E+02  0.10752043361E+03  0.00000000000E+00 0.  1.
<mgrwt>
<rscale>  2 0.19675110E+03</rscale>
<asrwt>0</asrwt>
<pdfrwt beam="1">  1       21 0.67083809E-02 0.19714613E+03</pdfrwt>
<pdfrwt beam="2">  1       21 0.15736159E+00 0.19714613E+03</pdfrwt>
<totfact> 0.42732219E+04</totfact>
</mgrwt>
</event>
<event>
12    1  0.1050690E-001  0.2951439E+03  0.7546771E-02  0.1088294E+00
         21   -1    0    0  501  502  0.00000000000E+00  0.00000000000E+00  0.12988667895E+03  0.12988667895E+03  0.00000000000E+00 0. -1.
         21   -1    0    0  502  503 -0.00000000000E+00 -0.00000000000E+00 -0.66073784132E+03  0.66073784132E+03  0.00000000000E+00 0.  1.
         -6    2    1    2    0  503 -0.52725418703E+00 -0.23119424926E+03 -0.25104127008E+03  0.38392626191E+03  0.17585959289E+03 0.  0.
        -24    2    3    3    0    0 -0.27693825813E+02 -0.17738193745E+03 -0.25652308676E+03  0.32321441932E+03  0.80200792374E+02 0.  0.
          6    2    1    2  501    0  0.52725418703E+00  0.23119424926E+03 -0.27980989228E+03  0.40669825837E+03  0.18346345319E+03 0.  0.
         24    2    5    5    0    0  0.60912372117E+02  0.10839059618E+03 -0.20014697472E+03  0.24828307567E+03  0.78274106547E+02 0.  0.
          5    1    5    5  501    0 -0.60385117930E+02  0.12280365307E+03 -0.79662917565E+02  0.15841518270E+03  0.47000000000E+01 0. -1.
        -13    1    6    6    0    0  0.67492183916E+02  0.10963087614E+03 -0.20349315382E+03  0.24079781466E+03  0.00000000000E+00 0.  1.
         14    1    6    6    0    0 -0.65798117991E+01 -0.12402799613E+01  0.33461791041E+01  0.74852610035E+01  0.00000000000E+00 0. -1.
         -5    1    3    3    0  503  0.27166571626E+02 -0.53812311807E+02  0.54818166726E+01  0.60711842584E+02  0.47000000000E+01 0.  1.
         11    1    4    4    0    0  0.26636715986E+02 -0.84697877238E+02 -0.10576167751E+03  0.13808974429E+03  0.00000000000E+00 0. -1.
        -12    1    4    4    0    0 -0.54330541799E+02 -0.92684060210E+02 -0.15076140925E+03  0.18512467503E+03  0.00000000000E+00 0.  1.
<mgrwt>
<rscale>  2 0.29397050E+03</rscale>
<asrwt>0</asrwt>
<pdfrwt beam="1">  1       21 0.19982566E-01 0.29514386E+03</pdfrwt>
<pdfrwt beam="2">  1       21 0.10165198E+00 0.29514386E+03</pdfrwt>
<totfact> 0.17290194E+04</totfact>
</mgrwt>
</event>
<event>
12    1  0.1050690E-001  0.1872699E+03  0.7546771E-02  0.1161196E+00
         21   -1    0    0  501  502  0.00000000000E+00  0.00000000000E+00  0.72389863424E+02  0.72389863424E+02  0.00000000000E+00 0. -1.
         21   -1    0    0  502  503 -0.00000000000E+00 -0.00000000000E+00 -0.53407707127E+03  0.53407707127E+03  0.00000000000E+00 0. -1.
         -6    2    1    2    0  503  0.66775132349E+02  0.21949456848E+02 -0.32643421539E+03  0.37633670231E+03  0.17357799277E+03 0.  0.
        -24    2    3    3    0    0  0.97926393885E+02 -0.12120052379E+02 -0.16381847701E+03  0.20722992857E+03  0.79820270605E+02 0.  0.
          6    2    1    2  501    0 -0.66775132349E+02 -0.21949456848E+02 -0.13525299246E+03  0.23013023239E+03  0.17241187584E+03 0.  0.
         24    2    5    5    0    0 -0.34186653636E+02 -0.70531645487E+02 -0.41311771629E+02  0.11936344599E+03  0.79984557638E+02 0.  0.
          5    1    5    5  501    0 -0.32588478713E+02  0.48582188640E+02 -0.93941220834E+02  0.11076678640E+03  0.47000000000E+01 0. -1.
        -13    1    6    6    0    0  0.32618334746E+01 -0.24388441431E+02 -0.53330527589E+02  0.58733132098E+02  0.00000000000E+00 0.  1.
         14    1    6    6    0    0 -0.37448487111E+02 -0.46143204056E+02  0.12018755960E+02  0.60630313889E+02  0.00000000000E+00 0. -1.
         -5    1    3    3    0  503 -0.31151261535E+02  0.34069509227E+02 -0.16261573838E+03  0.16910677374E+03  0.47000000000E+01 0.  1.
         11    1    4    4    0    0  0.60556425137E+02  0.20116873597E+02 -0.13683456723E+03  0.15098168107E+03  0.00000000000E+00 0. -1.
        -12    1    4    4    0    0  0.37369968747E+02 -0.32236925977E+02 -0.26983909770E+02  0.56248247502E+02  0.00000000000E+00 0.  1.
<mgrwt>
<rscale>  2 0.18699923E+03</rscale>
<asrwt>0</asrwt>
<pdfrwt beam="1">  1       21 0.11136902E-01 0.18726990E+03</pdfrwt>
<pdfrwt beam="2">  1       21 0.82165704E-01 0.18726990E+03</pdfrwt>
<totfact> 0.86983613E+04</totfact>
</mgrwt>
</event>
<event>
12    1  0.1050690E-001  0.1822211E+03  0.7546771E-02  0.1165856E+00
         21   -1    0    0  503  502  0.00000000000E+00  0.00000000000E+00  0.30593799111E+03  0.30593799111E+03  0.00000000000E+00 0.  1.
         21   -1    0    0  501  503 -0.00000000000E+00 -0.00000000000E+00 -0.11437569822E+03  0.11437569822E+03  0.00000000000E+00 0. -1.
          6    2    1    2  501    0  0.21235028262E+02 -0.52264942730E+02  0.46252932862E+02  0.18724859051E+03  0.17245332755E+03 0.  0.
         24    2    3    3    0    0  0.20569856967E+02 -0.94014164490E+02  0.65322619426E+02  0.14110552043E+03  0.79887052435E+02 0.  0.
         -6    2    1    2    0  502 -0.21235028262E+02  0.52264942730E+02  0.14530936003E+03  0.23306509883E+03  0.17326851854E+03 0.  0.
        -24    2    5    5    0    0 -0.70378600258E+02  0.44670625753E+02  0.53278478481E+02  0.12835341143E+03  0.81776462248E+02 0.  0.
          5    1    3    3  501    0  0.66517129477E+00  0.41749221760E+02 -0.19069686564E+02  0.46143070076E+02  0.47000000000E+01 0. -1.
        -13    1    4    4    0    0  0.38679065970E+02 -0.93227802031E+02  0.69445849374E+02  0.12251619979E+03  0.00000000000E+00 0.  1.
         14    1    4    4    0    0 -0.18109209003E+02 -0.78636245892E+00 -0.41232299481E+01  0.18589320639E+02  0.00000000000E+00 0. -1.
         -5    1    5    5    0  502  0.49143571996E+02  0.75943169774E+01  0.92030881545E+02  0.10471168739E+03  0.47000000000E+01 0.  1.
         13    1    6    6    0    0 -0.65906836012E+02  0.58433132168E+02  0.65214599554E+02  0.10959510009E+03  0.00000000000E+00 0. -1.
        -14    1    6    6    0    0 -0.44717642455E+01 -0.13762506415E+02 -0.11936121073E+02  0.18758311346E+02  0.00000000000E+00 0.  1.
<mgrwt>
<rscale>  2 0.18202705E+03</rscale>
<asrwt>0</asrwt>
<pdfrwt beam="1">  1       21 0.47067383E-01 0.18222110E+03</pdfrwt>
<pdfrwt beam="2">  1       21 0.17596261E-01 0.18222110E+03</pdfrwt>
<totfact> 0.12692835E+05</totfact>
</mgrwt>
</event>
<event>
12    1  0.1050690E-001  0.1916698E+03  0.7546771E-02  0.1157075E+00
         21   -1    0    0  503  502  0.00000000000E+00  0.00000000000E+00  0.14485166202E+03  0.14485166202E+03  0.00000000000E+00 0. -1.
         21   -1    0    0  501  503 -0.00000000000E+00 -0.00000000000E+00 -0.25706696820E+03  0.25706696820E+03  0.00000000000E+00 0. -1.
          6    2    1    2  501    0 -0.24449740484E+02  0.78751170201E+02 -0.81577409578E+02  0.20830790190E+03  0.17302534966E+03 0.  0.
         24    2    3    3    0    0  0.89200954843E+01  0.69186296284E+01 -0.98000178456E+02  0.12728162731E+03  0.80430977446E+02 0.  0.
         -6    2    1    2    0  502  0.24449740484E+02 -0.78751170201E+02 -0.30637896609E+02  0.19361072831E+03  0.17247288712E+03 0.  0.
        -24    2    5    5    0    0  0.80749152089E+02 -0.41740064071E+02 -0.56854806529E+01  0.12160962564E+03  0.80584848741E+02 0.  0.
          5    1    3    3  501    0 -0.33369835968E+02  0.71832540573E+02  0.16422768878E+02  0.81026274598E+02  0.47000000000E+01 0. -1.
        -11    1    4    4    0    0 -0.17030560605E+02 -0.23000660947E+02 -0.92201052903E+01  0.30067935414E+02  0.00000000000E+00 0.  1.
         12    1    4    4    0    0  0.25950656089E+02  0.29919290576E+02 -0.88780073166E+02  0.97213691892E+02  0.00000000000E+00 0. -1.
         -5    1    5    5    0  502 -0.56299411605E+02 -0.37011106130E+02 -0.24952415956E+02  0.72001102673E+02  0.47000000000E+01 0.  1.
         13    1    6    6    0    0  0.57793648444E+02 -0.51810354395E+02 -0.33172555224E+02  0.84408749801E+02  0.00000000000E+00 0. -1.
        -14    1    6    6    0    0  0.22955503645E+02  0.10070290323E+02  0.27487074571E+02  0.37200875840E+02  0.00000000000E+00 0.  1.
<mgrwt>
<rscale>  2 0.19154502E+03</rscale>
<asrwt>0</asrwt>
<pdfrwt beam="1">  1       21 0.22284871E-01 0.19166979E+03</pdfrwt>
<pdfrwt beam="2">  1       21 0.39548764E-01 0.19166979E+03</pdfrwt>
<totfact> 0.11616132E+05</totfact>
</mgrwt>
</event>
<event>
12    1  0.1050690E-001  0.1955550E+03  0.7546771E-02  0.1153563E+00
         21   -1    0    0  501  502  0.00000000000E+00  0.00000000000E+00  0.93591025943E+02  0.93591025943E+02  0.00000000000E+00 0. -1.
         21   -1    0    0  502  503 -0.00000000000E+00 -0.00000000000E+00 -0.62947609915E+03  0.62947609915E+03  0.00000000000E+00 0. -1.
         -6    2    1    2    0  503 -0.79951015151E+02 -0.44832611467E+02 -0.48214541519E+03  0.52026255475E+03  0.17264644973E+03 0.  0.
        -24    2    3    3    0    0  0.78558830228E+01 -0.59729883564E+02 -0.20581748915E+03  0.22989865755E+03  0.82844311903E+02 0.  0.
          6    2    1    2  501    0  0.79951015151E+02  0.44832611467E+02 -0.53739658018E+02  0.20280457035E+03  0.17274146878E+03 0.  0.
         24    2    5    5    0    0 -0.22470952705E+02  0.21362011458E+02 -0.46311952316E+02  0.97360796822E+02  0.79831375921E+02 0.  0.
          5    1    5    5  501    0  0.10242196786E+03  0.23470600009E+02 -0.74277057020E+01  0.10544377353E+03  0.47000000000E+01 0. -1.
        -11    1    6    6    0    0 -0.65290107521E+01  0.42780501451E+02 -0.54352208030E+02  0.69476339883E+02  0.00000000000E+00 0.  1.
         12    1    6    6    0    0 -0.15941941953E+02 -0.21418489993E+02  0.80402557141E+01  0.27884456939E+02  0.00000000000E+00 0. -1.
         -5    1    3    3    0  503 -0.87806898174E+02  0.14897272097E+02 -0.27632792604E+03  0.29036389720E+03  0.47000000000E+01 0.  1.
         11    1    4    4    0    0 -0.28261476698E+02 -0.58352627040E+02 -0.14984771019E+03  0.16327301185E+03  0.00000000000E+00 0. -1.
        -12    1    4    4    0    0  0.36117359721E+02 -0.13772565236E+01 -0.55969778956E+02  0.66625645701E+02  0.00000000000E+00 0.  1.
<mgrwt>
<rscale>  2 0.19553398E+03</rscale>
<asrwt>0</asrwt>
<pdfrwt beam="1">  1       21 0.14398619E-01 0.19555496E+03</pdfrwt>
<pdfrwt beam="2">  1       21 0.96842477E-01 0.19555496E+03</pdfrwt>
<totfact> 0.37362241E+04</totfact>
</mgrwt>
</event>
<event>
12    1  0.1050690E-001  0.2589469E+03  0.7546771E-02  0.1107786E+00
         21   -1    0    0  501  502  0.00000000000E+00  0.00000000000E+00  0.93025568620E+03  0.93025568620E+03  0.00000000000E+00 0. -1.
         21   -1    0    0  502  503 -0.00000000000E+00 -0.00000000000E+00 -0.90769030203E+02  0.90769030203E+02  0.00000000000E+00 0. -1.
         -6    2    1    2    0  503 -0.10262677998E+03  0.16299643576E+03  0.18803777543E+03  0.32001831707E+03  0.17307057587E+03 0.  0.
        -24    2    3    3    0    0 -0.46396405523E+02  0.82898324253E+02  0.21185340529E+02  0.12652571382E+03  0.80840453957E+02 0.  0.
          6    2    1    2  501    0  0.10262677998E+03 -0.16299643576E+03  0.65144888056E+03  0.70100639932E+03  0.17298622451E+03 0.  0.
         24    2    5    5    0    0  0.12628857466E+03 -0.76677052629E+02  0.39792607319E+03  0.43210712397E+03  0.80890248899E+02 0.  0.
          5    1    5    5  501    0 -0.23661794681E+02 -0.86319383135E+02  0.25352280736E+03  0.26889927535E+03  0.47000000000E+01 0. -1.
        -13    1    6    6    0    0  0.20744710166E+02  0.16448757937E+02  0.83921528365E+02  0.87998452036E+02  0.00000000000E+00 0.  1.
         14    1    6    6    0    0  0.10554386449E+03 -0.93125810566E+02  0.31400454483E+03  0.34410867193E+03  0.00000000000E+00 0. -1.
         -5    1    3    3    0  503 -0.56230374457E+02  0.80098111511E+02  0.16685243490E+03  0.19349260325E+03  0.47000000000E+01 0.  1.
         11    1    4    4    0    0 -0.68037087862E+02  0.71039751228E+02  0.25157554458E+02  0.10153124704E+03  0.00000000000E+00 0. -1.
        -12    1    4    4    0    0  0.21640682339E+02  0.11858573025E+02 -0.39722139287E+01  0.24994466784E+02  0.00000000000E+00 0.  1.
<mgrwt>
<rscale>  2 0.25893285E+03</rscale>
<asrwt>0</asrwt>
<pdfrwt beam="1">  1       21 0.14311625E+00 0.25894694E+03</pdfrwt>
<pdfrwt beam="2">  1       21 0.13964467E-01 0.25894694E+03</pdfrwt>
<totfact> 0.14485310E+04</totfact>
</mgrwt>
</event>
<event>
12    1  0.1050690E-001  0.2690633E+03  0.7546771E-02  0.1101933E+00
         21   -1    0    0  503  502  0.00000000000E+00  0.00000000000E+00  0.27692690835E+04  0.27692690835E+04  0.00000000000E+00 0. -1.
         21   -1    0    0  501  503 -0.00000000000E+00 -0.00000000000E+00 -0.26746916589E+02  0.26746916589E+02  0.00000000000E+00 0. -1.
          6    2    1    2  501    0 -0.77092659748E+02 -0.19093235556E+03  0.15967129406E+04  0.16192242791E+04  0.17319529067E+03 0.  0.
         24    2    3    3    0    0 -0.10387281972E+03 -0.87582980413E+02  0.80141209057E+03  0.81677564997E+03  0.80004889445E+02 0.  0.
         -6    2    1    2    0  502  0.77092659748E+02  0.19093235556E+03  0.11458092264E+04  0.11767917211E+04  0.17193466476E+03 0.  0.
        -24    2    5    5    0    0 -0.10196708971E+02  0.13742047646E+03  0.56610586663E+03  0.58809737729E+03  0.79964446606E+02 0.  0.
          5    1    3    3  501    0  0.26780159974E+02 -0.10334937514E+03  0.79530085001E+03  0.80244862909E+03  0.47000000000E+01 0. -1.
        -11    1    4    4    0    0 -0.82234490564E+00 -0.52377606552E+01  0.79091808312E+00  0.53605913143E+01  0.00000000000E+00 0.  1.
         12    1    4    4    0    0 -0.10305047482E+03 -0.82345219757E+02  0.80062117249E+03  0.81141505866E+03  0.00000000000E+00 0. -1.
         -5    1    5    5    0  502  0.87289368719E+02  0.53511879101E+02  0.57970335973E+03  0.58869434376E+03  0.47000000000E+01 0.  1.
         11    1    6    6    0    0 -0.34465196021E+01  0.11080309945E+02  0.20755011694E+03  0.20787424758E+03  0.00000000000E+00 0. -1.
        -12    1    6    6    0    0 -0.67501893687E+01  0.12634016651E+03  0.35855574969E+03  0.38022312971E+03  0.00000000000E+00 0.  1.
<mgrwt>
<rscale>  2 0.26886062E+03</rscale>
<asrwt>0</asrwt>
<pdfrwt beam="1">  1       21 0.42604117E+00 0.26906328E+03</pdfrwt>
<pdfrwt beam="2">  1       21 0.41149124E-02 0.26906328E+03</pdfrwt>
<totfact> 0.20252815E+03</totfact>
</mgrwt>
</event>
<event>
12    1  0.1050690E-001  0.2112714E+03  0.7546771E-02  0.1140759E+00
         21   -1    0    0  503  502  0.00000000000E+00  0.00000000000E+00  0.20064276723E+03  0.20064276723E+03  0.00000000000E+00 0. -1.
         21   -1    0    0  501  503 -0.00000000000E+00 -0.00000000000E+00 -0.34331366574E+03  0.34331366574E+03  0.00000000000E+00 0. -1.
          6    2    1    2  501    0 -0.16856341204E+02 -0.12146047153E+03 -0.23350572463E+03  0.31489766315E+03  0.17204311215E+03 0.  0.
         24    2    3    3    0    0  0.42455653559E+02 -0.46616924024E+02 -0.17405859421E+03  0.20231204843E+03  0.81597491361E+02 0.  0.
         -6    2    1    2    0  502  0.16856341204E+02  0.12146047153E+03  0.90834826122E+02  0.22905876982E+03  0.17082204779E+03 0.  0.
        -24    2    5    5    0    0  0.71726155572E+01  0.12725551031E+03  0.12310563097E+03  0.19455004828E+03  0.80307618506E+02 0.  0.
          5    1    3    3  501    0 -0.59311994762E+02 -0.74843547507E+02 -0.59447130418E+02  0.11258561472E+03  0.47000000000E+01 0. -1.
        -11    1    4    4    0    0  0.47399555383E+02 -0.15263982117E+01 -0.44464993890E+02  0.65009102622E+02  0.00000000000E+00 0.  1.
         12    1    4    4    0    0 -0.49439018245E+01 -0.45090525813E+02 -0.12959360032E+03  0.13730294581E+03  0.00000000000E+00 0. -1.
         -5    1    5    5    0  502  0.96837256465E+01 -0.57950387834E+01 -0.32270804844E+02  0.34508721538E+02  0.47000000000E+01 0.  1.
         11    1    6    6    0    0  0.39198344098E+01  0.47440599278E+02  0.10101728544E+03  0.11167124751E+03  0.00000000000E+00 0. -1.
        -12    1    6    6    0    0  0.32527811474E+01  0.79814911037E+02  0.22088345521E+02  0.82878800769E+02  0.00000000000E+00 0.  1.
<mgrwt>
<rscale>  2 0.21102270E+03</rscale>
<asrwt>0</asrwt>
<pdfrwt beam="1">  1       21 0.30868118E-01 0.21127142E+03</pdfrwt>
<pdfrwt beam="2">  1       21 0.52817486E-01 0.21127142E+03</pdfrwt>
<totfact> 0.33904793E+04</totfact>
</mgrwt>
</event>
<event>
12    1  0.1050690E-001  0.1844932E+03  0.7546771E-02  0.1163735E+00
         21   -1    0    0  503  502  0.00000000000E+00  0.00000000000E+00  0.10715041479E+03  0.10715041479E+03  0.00000000000E+00 0. -1.
         21   -1    0    0  501  503 -0.00000000000E+00 -0.00000000000E+00 -0.12763136600E+04  0.12763136600E+04  0.00000000000E+00 0. -1.
          6    2    1    2  501    0  0.40457273816E+02  0.48670245226E+02 -0.11849159243E+04  0.11991928474E+04  0.17329787610E+03 0.  0.
         24    2    3    3    0    0 -0.13752562913E+02 -0.27984400540E+02 -0.36699662308E+03  0.37588931018E+03  0.75059926032E+02 0.  0.
         -6    2    1    2    0  502 -0.40457273816E+02 -0.48670245226E+02  0.15752679120E+02  0.18427122733E+03  0.17234313026E+03 0.  0.
        -24    2    5    5    0    0 -0.10341968948E+02 -0.63773003675E+02 -0.46894114145E+02  0.11298493408E+03  0.79953643242E+02 0.  0.
          5    1    3    3  501    0  0.54209836729E+02  0.76654645767E+02 -0.81791930122E+03  0.82330353724E+03  0.47000000000E+01 0. -1.
        -11    1    4    4    0    0 -0.40093923427E+02  0.14203298185E+01 -0.22295062126E+03  0.22653149793E+03  0.00000000000E+00 0.  1.
         12    1    4    4    0    0  0.26341360513E+02 -0.29404730359E+02 -0.14404600182E+03  0.14935781226E+03  0.00000000000E+00 0. -1.
         -5    1    5    5    0  502 -0.30115304868E+02  0.15102758449E+02  0.62646793264E+02  0.71286293257E+02  0.47000000000E+01 0.  1.
         11    1    6    6    0    0 -0.12786533215E+02 -0.49807437132E+02  0.11669128647E+02  0.52729923086E+02  0.00000000000E+00 0. -1.
        -12    1    6    6    0    0  0.24445642674E+01 -0.13965566543E+02 -0.58563242791E+02  0.60255010991E+02  0.00000000000E+00 0.  1.
<mgrwt>
<rscale>  2 0.18426865E+03</rscale>
<asrwt>0</asrwt>
<pdfrwt beam="1">  1       21 0.16484678E-01 0.18449319E+03</pdfrwt>
<pdfrwt beam="2">  1       21 0.19635596E+00 0.18449319E+03</pdfrwt>
<totfact> 0.47151503E+03</totfact>
</mgrwt>
</event>
<event>
12    1  0.1050690E-001  0.2194610E+03  0.7546771E-02  0.1134389E+00
         21   -1    0    0  501  502  0.00000000000E+00  0.00000000000E+00  0.22289225750E+03  0.22289225750E+03  0.00000000000E+00 0.  1.
         21   -1    0    0  502  503 -0.00000000000E+00 -0.00000000000E+00 -0.56560388624E+03  0.56560388624E+03  0.00000000000E+00 0.  1.
         -6    2    1    2    0  503 -0.13396507019E+03 -0.16177136380E+02 -0.48143419506E+03  0.52886741231E+03  0.17237608842E+03 0.  0.
        -24    2    3    3    0    0 -0.14492682082E+03 -0.53049089438E+02 -0.33048901816E+03  0.37302698967E+03  0.78154683887E+02 0.  0.
          6    2    1    2  501    0  0.13396507019E+03  0.16177136380E+02  0.13872256632E+03  0.25962873143E+03  0.17307451576E+03 0.  0.
         24    2    5    5    0    0  0.14653483671E+03 -0.30967010422E+02  0.11008430459E+03  0.20285893627E+03  0.81251337235E+02 0.  0.
          5    1    5    5  501    0 -0.12569766523E+02  0.47144146802E+02  0.28638261733E+02  0.56769795166E+02  0.47000000000E+01 0. -1.
        -13    1    6    6    0    0  0.46675066250E+02 -0.47989998569E+02  0.28365586445E+02  0.72706315176E+02  0.00000000000E+00 0.  1.
         14    1    6    6    0    0  0.99859770460E+02  0.17022988147E+02  0.81718718144E+02  0.13015262109E+03  0.00000000000E+00 0. -1.
         -5    1    3    3    0  503  0.10961750635E+02  0.36871953057E+02 -0.15094517690E+03  0.15584042264E+03  0.47000000000E+01 0.  1.
         11    1    4    4    0    0  0.49307639583E+01  0.48956531173E+00  0.12360789145E+01  0.51068579861E+01  0.00000000000E+00 0. -1.
        -12    1    4    4    0    0 -0.14985758478E+03 -0.53538654749E+02 -0.33172509707E+03  0.36792013168E+03  0.00000000000E+00 0.  1.
<mgrwt>
<rscale>  2 0.21932327E+03</rscale>
<asrwt>0</asrwt>
<pdfrwt beam="1">  1       21 0.34291116E-01 0.21946099E+03</pdfrwt>
<pdfrwt beam="2">  1       21 0.87015983E-01 0.21946099E+03</pdfrwt>
<totfact> 0.91363737E+03</totfact>
</mgrwt>
</event>
<event>
12    1  0.1050690E-001  0.1793701E+03  0.7546771E-02  0.1168687E+00
         21   -1    0    0  503  502  0.00000000000E+00  0.00000000000E+00  0.53252572253E+03  0.53252572253E+03  0.00000000000E+00 0.  1.
         21   -1    0    0  501  503 -0.00000000000E+00 -0.00000000000E+00 -0.73535516098E+02  0.73535516098E+02  0.00000000000E+00 0.  1.
          6    2    1    2  501    0 -0.42033277758E+02 -0.18608146341E+02  0.99092359943E+02  0.20394175126E+03  0.17222044756E+03 0.  0.
         24    2    3    3    0    0 -0.39248175263E+02 -0.14294389612E+02 -0.11736095352E+02  0.92894906206E+02  0.82139995307E+02 0.  0.
         -6    2    1    2    0  502  0.42033277758E+02  0.18608146341E+02  0.35989784649E+03  0.40211948737E+03  0.17337982197E+03 0.  0.
        -24    2    5    5    0    0  0.39322139983E+02  0.37609386173E+02  0.78497458619E+02  0.12002612396E+03  0.72689220680E+02 0.  0.
          5    1    3    3  501    0 -0.27851024946E+01 -0.43137567300E+01  0.11082845530E+03  0.11104684505E+03  0.47000000000E+01 0. -1.
        -13    1    4    4    0    0  0.12578582775E+01  0.14161845037E+02 -0.35310706679E+02  0.38065549628E+02  0.00000000000E+00 0.  1.
         14    1    4    4    0    0 -0.40506033541E+02 -0.28456234648E+02  0.23574611327E+02  0.54829356578E+02  0.00000000000E+00 0. -1.
         -5    1    5    5    0  502  0.27111377754E+01 -0.19001239832E+02  0.28140038787E+03  0.28209336341E+03  0.47000000000E+01 0.  1.
         11    1    6    6    0    0  0.33495313504E+02 -0.23100537331E+01  0.71623200460E+02  0.79102182139E+02  0.00000000000E+00 0. -1.
        -12    1    6    6    0    0  0.58268264786E+01  0.39919439906E+02  0.68742581583E+01  0.40923941825E+02  0.00000000000E+00 0.  1.
<mgrwt>
<rscale>  2 0.17908931E+03</rscale>
<asrwt>0</asrwt>
<pdfrwt beam="1">  1       21 0.81927032E-01 0.17937007E+03</pdfrwt>
<pdfrwt beam="2">  1       21 0.11313157E-01 0.17937007E+03</pdfrwt>
<totfact> 0.85428257E+04</totfact>
</mgrwt>
</event>
<event>
12    1  0.1050690E-001  0.1831496E+03  0.7546771E-02  0.1165013E+00
         21   -1    0    0  501  502  0.00000000000E+00  0.00000000000E+00  0.21415348553E+03  0.21415348553E+03  0.00000000000E+00 0.  1.
         21   -1    0    0  502  503 -0.00000000000E+00 -0.00000000000E+00 -0.20983664231E+03  0.20983664231E+03  0.00000000000E+00 0.  1.
         -6    2    1    2    0  503 -0.67957569289E+01  0.58185933399E+02  0.10971497230E+03  0.21349744736E+03  0.17352809492E+03 0.  0.
        -24    2    3    3    0    0 -0.15683413858E+02 -0.10939021396E+02 -0.78507817811E+00  0.82770246761E+02  0.80527422297E+02 0.  0.
          6    2    1    2  501    0  0.67957569289E+01 -0.58185933399E+02 -0.10539812908E+03  0.21049268047E+03  0.17253004886E+03 0.  0.
         24    2    5    5    0    0 -0.30332349172E+02 -0.93070066705E+02 -0.94483996462E+02  0.15818008820E+03  0.80694646619E+02 0.  0.
          5    1    5    5  501    0  0.37128106101E+02  0.34884133307E+02 -0.10914132618E+02  0.52312592270E+02  0.47000000000E+01 0. -1.
        -11    1    6    6    0    0 -0.34395921642E+01 -0.25540273455E+02 -0.80019839973E+02  0.84067301322E+02  0.00000000000E+00 0.  1.
         12    1    6    6    0    0 -0.26892757008E+02 -0.67529793250E+02 -0.14464156490E+02  0.74112786878E+02  0.00000000000E+00 0. -1.
         -5    1    3    3    0  503  0.88876569296E+01  0.69124954795E+02  0.11050005048E+03  0.13072720060E+03  0.47000000000E+01 0.  1.
         11    1    4    4    0    0  0.13171855106E+02 -0.33901611931E+02  0.18878625531E+02  0.40978281569E+02  0.00000000000E+00 0. -1.
        -12    1    4    4    0    0 -0.28855268965E+02  0.22962590535E+02 -0.19663703709E+02  0.41791965192E+02  0.00000000000E+00 0.  1.
<mgrwt>
<rscale>  2 0.18291283E+03</rscale>
<asrwt>0</asrwt>
<pdfrwt beam="1">  1       21 0.32946690E-01 0.18314962E+03</pdfrwt>
<pdfrwt beam="2">  1       21 0.32282560E-01 0.18314962E+03</pdfrwt>
<totfact> 0.82183915E+04</totfact>
</mgrwt>
</event>
<event>
12    1  0.1050690E-001  0.1738909E+03  0.7546771E-02  0.1174508E+00
         21   -1    0    0  503  502  0.00000000000E+00  0.00000000000E+00  0.10891387157E+03  0.10891387157E+03  0.00000000000E+00 0. -1.
         21   -1    0    0  501  503 -0.00000000000E+00 -0.00000000000E+00 -0.30375852864E+03  0.30375852864E+03  0.00000000000E+00 0. -1.
          6    2    1    2  501    0  0.40040749551E+01 -0.39039629882E+01 -0.16316561621E+03  0.23845557045E+03  0.17380094136E+03 0.  0.
         24    2    3    3    0    0  0.12018277034E+02 -0.53171174796E+02 -0.15825013709E+03  0.18807960863E+03  0.85785899078E+02 0.  0.
         -6    2    1    2    0  502 -0.40040749551E+01  0.39039629882E+01 -0.31679040858E+02  0.17421682976E+03  0.17122111026E+03 0.  0.
        -24    2    5    5    0    0 -0.52929809007E+02  0.11917265761E+02  0.25430833053E+02  0.98443693541E+02  0.78107922924E+02 0.  0.
          5    1    3    3  501    0 -0.80142020786E+01  0.49267211808E+02 -0.49154791262E+01  0.50375961820E+02  0.47000000000E+01 0. -1.
        -13    1    4    4    0    0 -0.95222076410E+01 -0.62039887438E+02 -0.59036862346E+02  0.86168272510E+02  0.00000000000E+00 0.  1.
         14    1    4    4    0    0  0.21540484675E+02  0.88687126419E+01 -0.99213274742E+02  0.10191133612E+03  0.00000000000E+00 0. -1.
         -5    1    5    5    0  502  0.48925734052E+02 -0.80133027729E+01 -0.57109873911E+02  0.75773136216E+02  0.47000000000E+01 0.  1.
         11    1    6    6    0    0  0.13889352490E+02  0.45695205442E+01  0.27548534132E+02  0.31188401104E+02  0.00000000000E+00 0. -1.
        -12    1    6    6    0    0 -0.66819161497E+02  0.73477452169E+01 -0.21177010791E+01  0.67255292437E+02  0.00000000000E+00 0.  1.
<mgrwt>
<rscale>  2 0.17324265E+03</rscale>
<asrwt>0</asrwt>
<pdfrwt beam="1">  1       21 0.16755980E-01 0.17389089E+03</pdfrwt>
<pdfrwt beam="2">  1       21 0.46732082E-01 0.17389089E+03</pdfrwt>
<totfact> 0.14134383E+05</totfact>
</mgrwt>
</event>
<event>
12    1  0.1050690E-001  0.1939440E+03  0.7546771E-02  0.1155323E+00
         21   -1    0    0  503  502  0.00000000000E+00  0.00000000000E+00  0.21904379688E+03  0.21904379688E+03  0.00000000000E+00 0. -1.
         21   -1    0    0  501  503 -0.00000000000E+00 -0.00000000000E+00 -0.23520531684E+03  0.23520531684E+03  0.00000000000E+00 0. -1.
          6    2    1    2  501    0 -0.60315618632E+02 -0.63300914080E+02 -0.12747971213E+03  0.23208906449E+03  0.17311636917E+03 0.  0.
         24    2    3    3    0    0  0.30662695278E+02 -0.99963481515E+01 -0.51815002769E+02  0.10222117549E+03  0.82001502108E+02 0.  0.
         -6    2    1    2    0  502  0.60315618632E+02  0.63300914080E+02  0.11131819217E+03  0.22216004923E+03  0.17122607276E+03 0.  0.
        -24    2    5    5    0    0  0.62096876242E+02  0.98457619017E+02  0.47088547912E+02  0.14876588065E+03  0.79774877742E+02 0.  0.
          5    1    3    3  501    0 -0.90978313910E+02 -0.53304565929E+02 -0.75664709361E+02  0.12986788900E+03  0.47000000000E+01 0. -1.
        -13    1    4    4    0    0  0.19277516390E+01  0.32873980156E+02 -0.65540806586E+01  0.33576342430E+02  0.00000000000E+00 0.  1.
         14    1    4    4    0    0  0.28734943639E+02 -0.42870328308E+02 -0.45260922111E+02  0.68644833057E+02  0.00000000000E+00 0. -1.
         -5    1    5    5    0  502 -0.17812576102E+01 -0.35156704937E+02  0.64229644259E+02  0.73394168586E+02  0.47000000000E+01 0.  1.
         13    1    6    6    0    0  0.20904989691E+02  0.78485836965E+02  0.60254686671E+02  0.10113195570E+03  0.00000000000E+00 0. -1.
        -14    1    6    6    0    0  0.41191886552E+02  0.19971782052E+02 -0.13166138759E+02  0.47633924947E+02  0.00000000000E+00 0.  1.
<mgrwt>
<rscale>  2 0.19352122E+03</rscale>
<asrwt>0</asrwt>
<pdfrwt beam="1">  1       21 0.33699046E-01 0.19394395E+03</pdfrwt>
<pdfrwt beam="2">  1       21 0.36185433E-01 0.19394395E+03</pdfrwt>
<totfact> 0.62439212E+04</totfact>
</mgrwt>
</event>
<event>
12    1  0.1050690E-001  0.1865725E+03  0.7546771E-02  0.1161656E+00
         21   -1    0    0  501  502  0.00000000000E+00  0.00000000000E+00  0.43542221485E+02  0.43542221485E+02  0.00000000000E+00 0.  1.
         21   -1    0    0  502  503 -0.00000000000E+00 -0.00000000000E+00 -0.80591392130E+03  0.80591392130E+03  0.00000000000E+00 0. -1.
         -6    2    1    2    0  503 -0.70262238587E+02  0.70395944513E+00 -0.42241274938E+03  0.46166576237E+03  0.17252671554E+03 0.  0.
        -24    2    3    3    0    0 -0.83630648982E+02 -0.26085507046E+02 -0.16387560773E+03  0.20135837961E+03  0.77559287645E+02 0.  0.
          6    2    1    2  501    0  0.70262238587E+02 -0.70395944513E+00 -0.33995895044E+03  0.38779038042E+03  0.17283522046E+03 0.  0.
         24    2    5    5    0    0  0.11362237503E+03 -0.80750268345E+01 -0.27957032643E+03  0.31293512024E+03  0.82423127184E+02 0.  0.
          5    1    5    5  501    0 -0.43360136440E+02  0.73710673894E+01 -0.60388624010E+02  0.74855260178E+02  0.47000000000E+01 0. -1.
        -11    1    6    6    0    0  0.73315052625E+02  0.23336801109E+02 -0.22672050988E+03  0.23941990900E+03  0.00000000000E+00 0.  1.
         12    1    6    6    0    0  0.40307322402E+02 -0.31411827943E+02 -0.52849816555E+02  0.73515211242E+02  0.00000000000E+00 0. -1.
         -5    1    3    3    0  503  0.13368410396E+02  0.26789466491E+02 -0.25853714164E+03  0.26030738276E+03  0.47000000000E+01 0.  1.
         11    1    4    4    0    0 -0.11872146581E+02  0.47541825469E+01 -0.99004219545E+02  0.99826777990E+02  0.00000000000E+00 0. -1.
        -12    1    4    4    0    0 -0.71758502401E+02 -0.30839689593E+02 -0.64871388189E+02  0.10153160162E+03  0.00000000000E+00 0.  1.
<mgrwt>
<rscale>  2 0.18650100E+03</rscale>
<asrwt>0</asrwt>
<pdfrwt beam="1">  1       21 0.66988033E-02 0.18657248E+03</pdfrwt>
<pdfrwt beam="2">  1       21 0.12398676E+00 0.18657248E+03</pdfrwt>
<totfact> 0.79669781E+04</totfact>
</mgrwt>
</event>
<event>
12    1  0.1050690E-001  0.1820590E+03  0.7546771E-02  0.1166171E+00
         21   -1    0    0  501  502  0.00000000000E+00  0.00000000000E+00  0.30890233381E+03  0.30890233381E+03  0.00000000000E+00 0. -1.
         21   -1    0    0  502  503 -0.00000000000E+00 -0.00000000000E+00 -0.22794950625E+03  0.22794950625E+03  0.00000000000E+00 0. -1.
         -6    2    1    2    0  503  0.56368940546E+02 -0.10915881868E+02  0.23637023396E+03  0.29747757324E+03  0.17124662083E+03 0.  0.
        -24    2    3    3    0    0  0.44148716980E+02  0.79527269311E+01  0.25281911928E+03  0.26922843007E+03  0.80957306083E+02 0.  0.
          6    2    1    2  501    0 -0.56368940546E+02  0.10915881868E+02 -0.15541740641E+03  0.23937426682E+03  0.17276821313E+03 0.  0.
         24    2    5    5    0    0 -0.55912229424E+02  0.35882070234E+02 -0.26230696954E+02  0.10771252201E+03  0.80624050832E+02 0.  0.
          5    1    5    5  501    0 -0.45671112262E+00 -0.24966188367E+02 -0.12918670945E+03  0.13166174481E+03  0.47000000000E+01 0. -1.
        -11    1    6    6    0    0 -0.16727742969E+02  0.34005275291E+02  0.23331865050E+02  0.44503393794E+02  0.00000000000E+00 0.  1.
         12    1    6    6    0    0 -0.39184486455E+02  0.18767949431E+01 -0.49562562004E+02  0.63209128220E+02  0.00000000000E+00 0. -1.
         -5    1    3    3    0  503  0.12220223566E+02 -0.18868608799E+02 -0.16448885315E+02  0.28249143175E+02  0.47000000000E+01 0.  1.
         13    1    4    4    0    0  0.21207796400E+02 -0.36679887623E+02  0.11480897915E+03  0.12237763880E+03  0.00000000000E+00 0. -1.
        -14    1    4    4    0    0  0.22940920580E+02  0.44632614554E+02  0.13801014013E+03  0.14685079127E+03  0.00000000000E+00 0.  1.
<mgrwt>
<rscale>  2 0.18169707E+03</rscale>
<asrwt>0</asrwt>
<pdfrwt beam="1">  1       21 0.47523436E-01 0.18205897E+03</pdfrwt>
<pdfrwt beam="2">  1       21 0.35069155E-01 0.18205897E+03</pdfrwt>
<totfact> 0.33377447E+04</totfact>
</mgrwt>
</event>
<event>
12    1  0.1050690E-001  0.1873259E+03  0.7546771E-02  0.1161050E+00
         21   -1    0    0  503  502  0.00000000000E+00  0.00000000000E+00  0.28343910147E+03  0.28343910147E+03  0.00000000000E+00 0. -1.
         21   -1    0    0  501  503 -0.00000000000E+00 -0.00000000000E+00 -0.15221412237E+03  0.15221412237E+03  0.00000000000E+00 0. -1.
          6    2    1    2  501    0 -0.59831622926E+02 -0.35740154191E+02 -0.29127499696E+02  0.18957687344E+03  0.17387868754E+03 0.  0.
         24    2    3    3    0    0  0.11537317491E+02  0.67934410998E+01  0.28283014264E+02  0.88479447666E+02  0.82761242297E+02 0.  0.
         -6    2    1    2    0  502  0.59831622926E+02  0.35740154191E+02  0.16035247880E+03  0.24607635040E+03  0.17315735921E+03 0.  0.
        -24    2    5    5    0    0  0.90240122867E+02  0.70100367695E+02  0.11419688550E+03  0.18082506740E+03  0.81236906745E+02 0.  0.
          5    1    3    3  501    0 -0.71368940417E+02 -0.42533595290E+02 -0.57410513960E+02  0.10109742577E+03  0.47000000000E+01 0. -1.
        -11    1    4    4    0    0 -0.14540737383E+02 -0.15836592169E+02  0.45183035861E+02  0.50037360290E+02  0.00000000000E+00 0.  1.
         12    1    4    4    0    0  0.26078054874E+02  0.22630033269E+02 -0.16900021597E+02  0.38442087375E+02  0.00000000000E+00 0. -1.
         -5    1    5    5    0  502 -0.30408499941E+02 -0.34360213504E+02  0.46155593300E+02  0.65251283003E+02  0.47000000000E+01 0.  1.
         11    1    6    6    0    0  0.74196209435E+02  0.74886250707E+02  0.12293081433E+03  0.16194138801E+03  0.00000000000E+00 0. -1.
        -12    1    6    6    0    0  0.16043913432E+02 -0.47858830118E+01 -0.87339288327E+01  0.18883679389E+02  0.00000000000E+00 0.  1.
<mgrwt>
<rscale>  2 0.18715830E+03</rscale>
<asrwt>0</asrwt>
<pdfrwt beam="1">  1       21 0.43606016E-01 0.18732587E+03</pdfrwt>
<pdfrwt beam="2">  1       21 0.23417557E-01 0.18732587E+03</pdfrwt>
<totfact> 0.86881463E+04</totfact>
</mgrwt>
</event>
<event>
12    1  0.1050690E-001  0.1996658E+03  0.7546771E-02  0.1150139E+00
         21   -1    0    0  501  502  0.00000000000E+00  0.00000000000E+00  0.12903117977E+03  0.12903117977E+03  0.00000000000E+00 0.  1.
         21   -1    0    0  502  503 -0.00000000000E+00 -0.00000000000E+00 -0.62842822425E+03  0.62842822425E+03  0.00000000000E+00 0.  1.
         -6    2    1    2    0  503 -0.12731044727E+01  0.10078819605E+03 -0.52026301768E+03  0.55726118936E+03  0.17235586544E+03 0.  0.
        -24    2    3    3    0    0 -0.52444965069E+02  0.35663953356E+02 -0.38560397959E+03  0.39910028130E+03  0.81044515677E+02 0.  0.
          6    2    1    2  501    0  0.12731044727E+01 -0.10078819605E+03  0.20865973194E+02  0.20019821466E+03  0.17170921658E+03 0.  0.
         24    2    5    5    0    0  0.44919822705E+02 -0.89456741195E+02  0.58570072006E+02  0.14123104626E+03  0.80594392336E+02 0.  0.
          5    1    5    5  501    0 -0.43646718232E+02 -0.11331454853E+02 -0.37704098812E+02  0.58967168397E+02  0.47000000000E+01 0. -1.
        -11    1    6    6    0    0  0.14400418015E+02 -0.94837094535E+02  0.53482014813E+02  0.10982610094E+03  0.00000000000E+00 0.  1.
         12    1    6    6    0    0  0.30519404690E+02  0.53803533397E+01  0.50880571927E+01  0.31404945322E+02  0.00000000000E+00 0. -1.
         -5    1    3    3    0  503  0.51171860597E+02  0.65124242693E+02 -0.13465903808E+03  0.15816090807E+03  0.47000000000E+01 0.  1.
         13    1    4    4    0    0 -0.19725351858E+02  0.32784979347E+02 -0.55759636779E+02  0.67624562626E+02  0.00000000000E+00 0. -1.
        -14    1    4    4    0    0 -0.32719613212E+02  0.28789740087E+01 -0.32984434282E+03  0.33147571867E+03  0.00000000000E+00 0.  1.
<mgrwt>
<rscale>  2 0.19952615E+03</rscale>
<asrwt>0</asrwt>
<pdfrwt beam="1">  1       21 0.19850951E-01 0.19966578E+03</pdfrwt>
<pdfrwt beam="2">  1       21 0.96681263E-01 0.19966578E+03</pdfrwt>
<totfact> 0.20719839E+04</totfact>
</mgrwt>
</event>
<event>
12    1  0.1050690E-001  0.2184608E+03  0.7546771E-02  0.1135256E+00
         21   -1    0    0  503  502  0.00000000000E+00  0.00000000000E+00  0.10907624858E+03  0.10907624858E+03  0.00000000000E+00 0. -1.
         21   -1    0    0  501  503 -0.00000000000E+00 -0.00000000000E+00 -0.91711081046E+03  0.91711081046E+03  0.00000000000E+00 0. -1.
          6    2    1    2  501    0 -0.47893102954E+02 -0.12609866549E+03 -0.77646609518E+03  0.80661312168E+03  0.17184443066E+03 0.  0.
         24    2    3    3    0    0 -0.72346287543E+02 -0.14709807028E+03 -0.70278012608E+03  0.72604858060E+03  0.79842395793E+02 0.  0.
         -6    2    1    2    0  502  0.47893102954E+02  0.12609866549E+03 -0.31568466706E+02  0.21957393736E+03  0.17035704603E+03 0.  0.
        -24    2    5    5    0    0  0.93404210494E+02  0.60081384407E+02 -0.16511021500E+02  0.13785271021E+03  0.79978975938E+02 0.  0.
          5    1    3    3  501    0  0.24453184589E+02  0.20999404787E+02 -0.73685969097E+02  0.80564541082E+02  0.47000000000E+01 0. -1.
        -11    1    4    4    0    0 -0.50874632546E+02 -0.40815974222E+02 -0.16455099154E+03  0.17700621685E+03  0.00000000000E+00 0.  1.
         12    1    4    4    0    0 -0.21471654997E+02 -0.10628209605E+03 -0.53822913455E+03  0.54904236375E+03  0.00000000000E+00 0. -1.
         -5    1    5    5    0  502 -0.45511107540E+02  0.66017281081E+02 -0.15057445205E+02  0.81721227150E+02  0.47000000000E+01 0.  1.
         11    1    6    6    0    0  0.86942517980E+01  0.41203580410E+02  0.16179519740E+02  0.45112103830E+02  0.00000000000E+00 0. -1.
        -12    1    6    6    0    0  0.84709958696E+02  0.18877803997E+02 -0.32690541240E+02  0.92740606384E+02  0.00000000000E+00 0.  1.
<mgrwt>
<rscale>  2 0.21816822E+03</rscale>
<asrwt>0</asrwt>
<pdfrwt beam="1">  1       21 0.16780961E-01 0.21846082E+03</pdfrwt>
<pdfrwt beam="2">  1       21 0.14109398E+00 0.21846082E+03</pdfrwt>
<totfact> 0.11000881E+04</totfact>
</mgrwt>
</event>
<event>
12    1  0.1050690E-001  0.1743633E+03  0.7546771E-02  0.1173773E+00
         21   -1    0    0  501  502  0.00000000000E+00  0.00000000000E+00  0.75281398169E+02  0.75281398169E+02  0.00000000000E+00 0.  1.
         21   -1    0    0  502  503 -0.00000000000E+00 -0.00000000000E+00 -0.52286031466E+03  0.52286031466E+03  0.00000000000E+00 0.  1.
         -6    2    1    2    0  503  0.17263335767E+02 -0.39036022468E+01 -0.36942041360E+03  0.40850213595E+03  0.17346265367E+03 0.  0.
        -24    2    3    3    0    0  0.58488633959E+01 -0.29339445037E+02 -0.83765976511E+02  0.12145193179E+03  0.82697162450E+02 0.  0.
          6    2    1    2  501    0 -0.17263335767E+02  0.39036022468E+01 -0.78158502885E+02  0.18963957687E+03  0.17187541032E+03 0.  0.
         24    2    5    5    0    0  0.35935649626E+02  0.34214348179E+02 -0.62630990330E+01  0.95088466563E+02  0.80873960757E+02 0.  0.
          5    1    5    5  501    0 -0.53198985393E+02 -0.30310745932E+02 -0.71895403852E+02  0.94551110310E+02  0.47000000000E+01 0. -1.
        -13    1    6    6    0    0  0.17912900114E+02  0.56900872684E+02 -0.20141034576E+02  0.62962231349E+02  0.00000000000E+00 0.  1.
         14    1    6    6    0    0  0.18022749512E+02 -0.22686524505E+02  0.13877935543E+02  0.32126235214E+02  0.00000000000E+00 0. -1.
         -5    1    3    3    0  503  0.11414472371E+02  0.25435842791E+02 -0.28565443709E+03  0.28705020416E+03  0.47000000000E+01 0.  1.
         11    1    4    4    0    0 -0.33416543421E+02  0.69503377915E+01 -0.27479462115E+02  0.43818870453E+02  0.00000000000E+00 0. -1.
        -12    1    4    4    0    0  0.39265406817E+02 -0.36289782829E+02 -0.56286514395E+02  0.77633061340E+02  0.00000000000E+00 0.  1.
<mgrwt>
<rscale>  2 0.17396719E+03</rscale>
<asrwt>0</asrwt>
<pdfrwt beam="1">  1       21 0.11581753E-01 0.17436328E+03</pdfrwt>
<pdfrwt beam="2">  1       21 0.80440050E-01 0.17436328E+03</pdfrwt>
<totfact> 0.85583655E+04</totfact>
</mgrwt>
</event>
<event>
12    1  0.1050690E-001  0.1974436E+03  0.7546771E-02  0.1152725E+00
         21   -1    0    0  501  502  0.00000000000E+00  0.00000000000E+00  0.35562432502E+03  0.35562432502E+03  0.00000000000E+00 0.  1.
         21   -1    0    0  502  503 -0.00000000000E+00 -0.00000000000E+00 -0.10790040064E+03  0.10790040064E+03  0.00000000000E+00 0.  1.
         -6    2    1    2    0  503  0.78898508705E+02  0.47744880561E+02  0.10954204243E+03  0.22253053858E+03  0.17034034532E+03 0.  0.
        -24    2    3    3    0    0  0.85389466833E+02 -0.13734052238E+02  0.10817073498E+03  0.16051632892E+03  0.81145540281E+02 0.  0.
          6    2    1    2  501    0 -0.78898508705E+02 -0.47744880561E+02  0.13818188195E+03  0.24099418708E+03  0.17458355424E+03 0.  0.
         24    2    5    5    0    0 -0.22155136110E+02 -0.81719276061E+02  0.45602324493E+02  0.12712086122E+03  0.83133935449E+02 0.  0.
          5    1    5    5  501    0 -0.56743372596E+02  0.33974395500E+02  0.92579557456E+02  0.11387332586E+03  0.47000000000E+01 0. -1.
        -13    1    6    6    0    0  0.10113356145E+02 -0.55638639421E+02  0.60707922358E+02  0.82966197973E+02  0.00000000000E+00 0.  1.
         14    1    6    6    0    0 -0.32268492255E+02 -0.26080636640E+02 -0.15105597865E+02  0.44154663251E+02  0.00000000000E+00 0. -1.
         -5    1    3    3    0  503 -0.64909581270E+01  0.61478932799E+02  0.13713074515E+01  0.62014209659E+02  0.47000000000E+01 0.  1.
         11    1    4    4    0    0 -0.12790366520E+02 -0.14430987692E+02  0.26692293204E+02  0.32929096526E+02  0.00000000000E+00 0. -1.
        -12    1    4    4    0    0  0.98179833353E+02  0.69693545303E+00  0.81478441775E+02  0.12758723240E+03  0.00000000000E+00 0.  1.
<mgrwt>
<rscale>  2 0.19650141E+03</rscale>
<asrwt>0</asrwt>
<pdfrwt beam="1">  1       21 0.54711434E-01 0.19744358E+03</pdfrwt>
<pdfrwt beam="2">  1       21 0.16600062E-01 0.19744358E+03</pdfrwt>
<totfact> 0.10260198E+05</totfact>
</mgrwt>
</event>
<event>
12    1  0.1050690E-001  0.1812434E+03  0.7546771E-02  0.1166676E+00
         21   -1    0    0  501  502  0.00000000000E+00  0.00000000000E+00  0.33213946464E+03  0.33213946464E+03  0.00000000000E+00 0. -1.
         21   -1    0    0  502  503 -0.00000000000E+00 -0.00000000000E+00 -0.34395557884E+03  0.34395557884E+03  0.00000000000E+00 0. -1.
         -6    2    1    2    0  503 -0.45380153590E+02 -0.29562723283E+02 -0.29134037160E+03  0.34311570983E+03  0.17296203415E+03 0.  0.
        -24    2    3    3    0    0  0.33741444262E+02 -0.35939236522E+02 -0.21146868801E+03  0.23041050584E+03  0.77070626098E+02 0.  0.
          6    2    1    2  501    0  0.45380153590E+02  0.29562723283E+02  0.27952425740E+03  0.33297933365E+03  0.17265026271E+03 0.  0.
         24    2    5    5    0    0  0.82110929944E+02 -0.22802495226E+02  0.22810061867E+03  0.25077381886E+03  0.59962132916E+02 0.  0.
          5    1    5    5  501    0 -0.36730776354E+02  0.52365218509E+02  0.51423638727E+02  0.82205514784E+02  0.47000000000E+01 0. -1.
        -13    1    6    6    0    0  0.25384589198E+02 -0.13573012780E+02  0.20433396370E+02  0.35300534442E+02  0.00000000000E+00 0.  1.
         14    1    6    6    0    0  0.56726340747E+02 -0.92294824455E+01  0.20766722230E+03  0.21547328442E+03  0.00000000000E+00 0. -1.
         -5    1    3    3    0  503 -0.79121597852E+02  0.63765132386E+01 -0.79871683592E+02  0.11270520400E+03  0.47000000000E+01 0.  1.
         11    1    4    4    0    0 -0.11536639194E+02  0.83044382600E+01 -0.10928827553E+03  0.11020882409E+03  0.00000000000E+00 0. -1.
        -12    1    4    4    0    0  0.45278083457E+02 -0.44243674782E+02 -0.10218041248E+03  0.12020168175E+03  0.00000000000E+00 0.  1.
<mgrwt>
<rscale>  2 0.18116900E+03</rscale>
<asrwt>0</asrwt>
<pdfrwt beam="1">  1       21 0.51098379E-01 0.18124342E+03</pdfrwt>
<pdfrwt beam="2">  1       21 0.52916243E-01 0.18124342E+03</pdfrwt>
<totfact> 0.12415398E+04</totfact>
</mgrwt>
</event>
<event>
12    1  0.1050690E-001  0.2677838E+03  0.7546771E-02  0.1103698E+00
         21   -1    0    0  503  502  0.00000000000E+00  0.00000000000E+00  0.44717534172E+03  0.44717534172E+03  0.00000000000E+00 0.  1.
         21   -1    0    0  501  503 -0.00000000000E+00 -0.00000000000E+00 -0.16283507701E+03  0.16283507701E+03  0.00000000000E+00 0. -1.
          6    2    1    2  501    0  0.15968677060E+03  0.12642974869E+03  0.20787882717E+03  0.33900114939E+03  0.17385001135E+03 0.  0.
         24    2    3    3    0    0  0.10993131738E+03  0.15290248564E+03  0.19091685987E+03  0.27995701962E+03  0.80390427240E+02 0.  0.
         -6    2    1    2    0  502 -0.15968677060E+03 -0.12642974869E+03  0.76461437540E+02  0.27100926934E+03  0.16160237182E+03 0.  0.
        -24    2    5    5    0    0 -0.49772073567E+02 -0.43381611771E+01  0.14792880634E+02  0.95473810597E+02  0.80002126490E+02 0.  0.
          5    1    3    3  501    0  0.49755453216E+02 -0.26472736951E+02  0.16961967297E+02  0.59044129776E+02  0.47000000000E+01 0. -1.
        -11    1    4    4    0    0  0.91413559784E+02  0.61094733982E+02  0.11780093685E+03  0.16113989623E+03  0.00000000000E+00 0.  1.
         12    1    4    4    0    0  0.18517757598E+02  0.91807751662E+02  0.73115923021E+02  0.11881712339E+03  0.00000000000E+00 0. -1.
         -5    1    5    5    0  502 -0.10991469703E+03 -0.12209158752E+03  0.61668556906E+02  0.17553545874E+03  0.47000000000E+01 0.  1.
         11    1    6    6    0    0 -0.68451285611E+02 -0.97079828068E+01 -0.28915247354E+01  0.69196707633E+02  0.00000000000E+00 0. -1.
        -12    1    6    6    0    0  0.18679212044E+02  0.53698216297E+01  0.17684405369E+02  0.26277102964E+02  0.00000000000E+00 0.  1.
<mgrwt>
<rscale>  2 0.26581612E+03</rscale>
<asrwt>0</asrwt>
<pdfrwt beam="1">  1       21 0.68796206E-01 0.26778382E+03</pdfrwt>
<pdfrwt beam="2">  1       21 0.25051550E-01 0.26778382E+03</pdfrwt>
<totfact> 0.27985942E+04</totfact>
</mgrwt>
</event>
<event>
12    1  0.1050690E-001  0.3022841E+03  0.7546771E-02  0.1084115E+00
         21   -1    0    0  503  502  0.00000000000E+00  0.00000000000E+00  0.24809706700E+03  0.24809706700E+03  0.00000000000E+00 0.  1.
         21   -1    0    0  501  503 -0.00000000000E+00 -0.00000000000E+00 -0.36821012745E+03  0.36821012745E+03  0.00000000000E+00 0. -1.
          6    2    1    2  501    0 -0.11253710150E+03  0.22095980338E+03 -0.61871973981E+02  0.30846353732E+03  0.17272457488E+03 0.  0.
         24    2    3    3    0    0 -0.12380068503E+03  0.23572371981E+03 -0.43042177328E+02  0.28160291960E+03  0.80964767672E+02 0.  0.
         -6    2    1    2    0  502  0.11253710150E+03 -0.22095980338E+03 -0.58241086473E+02  0.30784365713E+03  0.17288105494E+03 0.  0.
        -24    2    5    5    0    0  0.12965844356E+03 -0.21566093881E+03 -0.19167080198E+02  0.26459916284E+03  0.79526017765E+02 0.  0.
          5    1    3    3  501    0  0.11263583525E+02 -0.14763916429E+02 -0.18829796653E+02  0.26860617717E+02  0.47000000000E+01 0. -1.
        -13    1    4    4    0    0 -0.12974164262E+03  0.18349738647E+03 -0.25420120175E+02  0.22616446932E+03  0.00000000000E+00 0.  1.
         14    1    4    4    0    0  0.59409575995E+01  0.52226333337E+02 -0.17622057154E+02  0.55438450279E+02  0.00000000000E+00 0. -1.
         -5    1    5    5    0  502 -0.17121342057E+02 -0.52988645734E+01 -0.39074006275E+02  0.43244494285E+02  0.47000000000E+01 0.  1.
         13    1    6    6    0    0  0.31962278263E+02 -0.63053677380E+02 -0.41586908926E+02  0.82017220490E+02  0.00000000000E+00 0. -1.
        -14    1    6    6    0    0  0.97696165294E+02 -0.15260726143E+03  0.22419828728E+02  0.18258194235E+03  0.00000000000E+00 0.  1.
<mgrwt>
<rscale>  2 0.30226176E+03</rscale>
<asrwt>0</asrwt>
<pdfrwt beam="1">  1       21 0.38168780E-01 0.30228413E+03</pdfrwt>
<pdfrwt beam="2">  1       21 0.56647711E-01 0.30228413E+03</pdfrwt>
<totfact> 0.18361210E+04</totfact>
</mgrwt>
</event>
<event>
12    1  0.1050690E-001  0.2089452E+03  0.7546771E-02  0.1142970E+00
         21   -1    0    0  503  502  0.00000000000E+00  0.00000000000E+00  0.39583917102E+02  0.39583917102E+02  0.00000000000E+00 0. -1.
         21   -1    0    0  501  503 -0.00000000000E+00 -0.00000000000E+00 -0.10946426187E+04  0.10946426187E+04  0.00000000000E+00 0. -1.
          6    2    1    2  501    0  0.14276712384E+02  0.11139794955E+03 -0.48009023724E+03  0.52246935783E+03  0.17284173771E+03 0.  0.
         24    2    3    3    0    0  0.78623897321E+01  0.12800194533E+03 -0.48084680772E+03  0.50404386978E+03  0.80001593678E+02 0.  0.
         -6    2    1    2    0  502 -0.14276712384E+02 -0.11139794955E+03 -0.57496846432E+03  0.61175717794E+03  0.17619529539E+03 0.  0.
        -24    2    5    5    0    0 -0.40769135421E+01 -0.71160198140E+02 -0.55556502778E+03  0.56569530776E+03  0.79235636581E+02 0.  0.
          5    1    3    3  501    0  0.64143226524E+01 -0.16603995777E+02  0.75657047705E+00  0.18425488046E+02  0.47000000000E+01 0. -1.
        -13    1    4    4    0    0 -0.21310589525E+02  0.47120381856E+02 -0.29200322515E+03  0.29654739101E+03  0.00000000000E+00 0.  1.
         14    1    4    4    0    0  0.29172979257E+02  0.80881563472E+02 -0.18884358257E+03  0.20749647878E+03  0.00000000000E+00 0. -1.
         -5    1    5    5    0  502 -0.10199798842E+02 -0.40237751411E+02 -0.19403436542E+02  0.46061870182E+02  0.47000000000E+01 0.  1.
         11    1    6    6    0    0 -0.34571471564E+02 -0.17371414042E+02 -0.31263189967E+03  0.31501691600E+03  0.00000000000E+00 0. -1.
        -12    1    6    6    0    0  0.30494558022E+02 -0.53788784098E+02 -0.24293312811E+03  0.25067839176E+03  0.00000000000E+00 0.  1.
<mgrwt>
<rscale>  2 0.20823662E+03</rscale>
<asrwt>0</asrwt>
<pdfrwt beam="1">  1       21 0.60898338E-02 0.20894523E+03</pdfrwt>
<pdfrwt beam="2">  1       21 0.16840655E+00 0.20894523E+03</pdfrwt>
<totfact> 0.41674599E+04</totfact>
</mgrwt>
</event>
<event>
12    1  0.1050690E-001  0.2285231E+03  0.7546771E-02  0.1127709E+00
         21   -1    0    0  503  502  0.00000000000E+00  0.00000000000E+00  0.17427750842E+04  0.17427750842E+04  0.00000000000E+00 0. -1.
         21   -1    0    0  501  503 -0.00000000000E+00 -0.00000000000E+00 -0.12738205554E+03  0.12738205554E+03  0.00000000000E+00 0. -1.
          6    2    1    2  501    0 -0.14966059511E+03 -0.20682903673E+01 -0.10054536353E+02  0.22874413601E+03  0.17268530483E+03 0.  0.
         24    2    3    3    0    0 -0.32201894547E+02  0.28796968430E+02  0.36566524250E+02  0.98571850827E+02  0.80703603864E+02 0.  0.
         -6    2    1    2    0  502  0.14966059511E+03  0.20682903673E+01  0.16254475650E+04  0.16414130037E+04  0.17249432055E+03 0.  0.
        -24    2    5    5    0    0  0.15658269744E+03 -0.30061778890E+02  0.15295187727E+04  0.15399010337E+04  0.80284905461E+02 0.  0.
          5    1    3    3  501    0 -0.11745870056E+03 -0.30865258797E+02 -0.46621060603E+02  0.13017228519E+03  0.47000000000E+01 0. -1.
        -13    1    4    4    0    0 -0.18996489532E+02 -0.27389284861E+01  0.56033235513E+02  0.59229146760E+02  0.00000000000E+00 0.  1.
         14    1    4    4    0    0 -0.13205405016E+02  0.31535896916E+02 -0.19466711264E+02  0.39342704068E+02  0.00000000000E+00 0. -1.
         -5    1    5    5    0  502 -0.69221023263E+01  0.32130069257E+02  0.95928792342E+02  0.10151196999E+03  0.47000000000E+01 0.  1.
         11    1    6    6    0    0  0.41070373804E+02  0.20740840029E+02  0.61475596313E+03  0.61647534603E+03  0.00000000000E+00 0. -1.
        -12    1    6    6    0    0  0.11551232363E+03 -0.50802618919E+02  0.91476280955E+03  0.92342568772E+03  0.00000000000E+00 0.  1.
<mgrwt>
<rscale>  2 0.22848697E+03</rscale>
<asrwt>0</asrwt>
<pdfrwt beam="1">  1       21 0.26811923E+00 0.22852305E+03</pdfrwt>
<pdfrwt beam="2">  1       21 0.19597241E-01 0.22852305E+03</pdfrwt>
<totfact> 0.11985195E+03</totfact>
</mgrwt>
</event>
<event>
12    1  0.1050690E-001  0.2871482E+03  0.7546771E-02  0.1091887E+00
         21   -1    0    0  501  502  0.00000000000E+00  0.00000000000E+00  0.71391764732E+03  0.71391764732E+03  0.00000000000E+00 0. -1.
         21   -1    0    0  502  503 -0.00000000000E+00 -0.00000000000E+00 -0.12832722099E+03  0.12832722099E+03  0.00000000000E+00 0.  1.
         -6    2    1    2    0  503 -0.16685379279E+03 -0.15688574760E+03  0.15886275414E+03  0.32790005830E+03  0.17270711512E+03 0.  0.
        -24    2    3    3    0    0 -0.55294089478E+02 -0.27924522994E+02  0.10264754464E+03  0.14829269588E+03  0.87275368329E+02 0.  0.
          6    2    1    2  501    0  0.16685379279E+03  0.15688574760E+03  0.42672767219E+03  0.51434481000E+03  0.17320724983E+03 0.  0.
         24    2    5    5    0    0  0.67384812717E+02  0.99892041979E+02  0.11887294456E+03  0.18580412180E+03  0.76637208292E+02 0.  0.
          5    1    5    5  501    0  0.99468980069E+02  0.56993705623E+02  0.30785472763E+03  0.32854068820E+03  0.47000000000E+01 0. -1.
        -13    1    6    6    0    0  0.84135282754E+02  0.90045953273E+02  0.10538804080E+03  0.16215319500E+03  0.00000000000E+00 0.  1.
         14    1    6    6    0    0 -0.16750470036E+02  0.98460887067E+01  0.13484903764E+02  0.23650926806E+02  0.00000000000E+00 0. -1.
         -5    1    3    3    0  503 -0.11155970331E+03 -0.12896122461E+03  0.56215209501E+02  0.17960736242E+03  0.47000000000E+01 0.  1.
         13    1    4    4    0    0 -0.53912908469E+02 -0.56374387785E+02  0.68378410287E+02  0.10373177089E+03  0.00000000000E+00 0. -1.
        -14    1    4    4    0    0 -0.13811810088E+01  0.28449864791E+02  0.34269134350E+02  0.44560924998E+02  0.00000000000E+00 0.  1.
<mgrwt>
<rscale>  2 0.28707280E+03</rscale>
<asrwt>0</asrwt>
<pdfrwt beam="1">  1       21 0.10983348E+00 0.28714818E+03</pdfrwt>
<pdfrwt beam="2">  1       21 0.19742650E-01 0.28714818E+03</pdfrwt>
<totfact> 0.14703011E+04</totfact>
</mgrwt>
</event>
<event>
12    1  0.1050690E-001  0.2477077E+03  0.7546771E-02  0.1116398E+00
         21   -1    0    0  501  502  0.00000000000E+00  0.00000000000E+00  0.96841498575E+02  0.96841498575E+02  0.00000000000E+00 0. -1.
         21   -1    0    0  502  503 -0.00000000000E+00 -0.00000000000E+00 -0.65568301165E+03  0.65568301165E+03  0.00000000000E+00 0. -1.
         -6    2    1    2    0  503 -0.11820342310E+03 -0.11204142242E+03 -0.37524325185E+03  0.44419446063E+03  0.17313547073E+03 0.  0.
        -24    2    3    3    0    0 -0.37200070495E+02 -0.12148975382E+03 -0.28526635559E+03  0.32266773123E+03  0.81203236472E+02 0.  0.
          6    2    1    2  501    0  0.11820342310E+03  0.11204142242E+03 -0.18359826122E+03  0.30833004959E+03  0.18663806790E+03 0.  0.
         24    2    5    5    0    0  0.13065899872E+03  0.14513246178E+03 -0.14531283135E+03  0.25600393383E+03  0.79290540267E+02 0.  0.
          5    1    5    5  501    0 -0.12455575620E+02 -0.33091039361E+02 -0.38285429873E+02  0.52326115761E+02  0.47000000000E+01 0. -1.
        -11    1    6    6    0    0  0.79597218916E+01  0.27457100728E+02 -0.58505156988E+02  0.65116072879E+02  0.00000000000E+00 0.  1.
         12    1    6    6    0    0  0.12269927682E+03  0.11767536105E+03 -0.86807674361E+02  0.19088786096E+03  0.00000000000E+00 0. -1.
         -5    1    3    3    0  503 -0.81003352602E+02  0.94483314022E+01 -0.89976896260E+02  0.12152672940E+03  0.47000000000E+01 0.  1.
         13    1    4    4    0    0 -0.35145293482E+02 -0.10117660184E+03 -0.14153645648E+03  0.17749497156E+03  0.00000000000E+00 0. -1.
        -14    1    4    4    0    0 -0.20547770128E+01 -0.20313151978E+02 -0.14372989911E+03  0.14517275967E+03  0.00000000000E+00 0.  1.
<mgrwt>
<rscale>  2 0.24516690E+03</rscale>
<asrwt>0</asrwt>
<pdfrwt beam="1">  1       21 0.14898693E-01 0.24770769E+03</pdfrwt>
<pdfrwt beam="2">  1       21 0.10087430E+00 0.24770769E+03</pdfrwt>
<totfact> 0.31033925E+04</totfact>
</mgrwt>
</event>
<event>
12    1  0.1050690E-001  0.2294382E+03  0.7546771E-02  0.1127349E+00
         21   -1    0    0  501  502  0.00000000000E+00  0.00000000000E+00  0.39106802084E+02  0.39106802084E+02  0.00000000000E+00 0.  1.
         21   -1    0    0  502  503 -0.00000000000E+00 -0.00000000000E+00 -0.15205823837E+04  0.15205823837E+04  0.00000000000E+00 0. -1.
         -6    2    1    2    0  503  0.12707480892E+03  0.80018516681E+02 -0.10151234374E+04  0.10407292976E+04  0.17346731024E+03 0.  0.
        -24    2    3    3    0    0 -0.79481359777E+01  0.20772372742E+02 -0.44442592056E+03  0.45127272846E+03  0.75086698206E+02 0.  0.
          6    2    1    2  501    0 -0.12707480892E+03 -0.80018516681E+02 -0.46635214424E+03  0.51895988817E+03  0.17112589815E+03 0.  0.
         24    2    5    5    0    0 -0.18860793787E+02 -0.77513725592E+02 -0.29647503945E+03  0.31747324399E+03  0.80794210419E+02 0.  0.
          5    1    5    5  501    0 -0.10821401514E+03 -0.25047910891E+01 -0.16987710479E+03  0.20148664418E+03  0.47000000000E+01 0. -1.
        -13    1    6    6    0    0  0.21185289129E+02  0.50454919367E+01 -0.55668653006E+02  0.59776854985E+02  0.00000000000E+00 0.  1.
         14    1    6    6    0    0 -0.40046082916E+02 -0.82559217529E+02 -0.24080638644E+03  0.25769638901E+03  0.00000000000E+00 0. -1.
         -5    1    3    3    0  503  0.13502294490E+03  0.59246143939E+02 -0.57069751679E+03  0.58945656913E+03  0.47000000000E+01 0.  1.
         11    1    4    4    0    0  0.16792896977E+02  0.21853261328E+02 -0.39528289590E+03  0.39624251944E+03  0.00000000000E+00 0. -1.
        -12    1    4    4    0    0 -0.24741032954E+02 -0.10808885864E+01 -0.49143024659E+02  0.55030209017E+02  0.00000000000E+00 0.  1.
<mgrwt>
<rscale>  2 0.22899563E+03</rscale>
<asrwt>0</asrwt>
<pdfrwt beam="1">  1       21 0.60164306E-02 0.22943818E+03</pdfrwt>
<pdfrwt beam="2">  1       21 0.23393577E+00 0.22943818E+03</pdfrwt>
<totfact> 0.15773907E+04</totfact>
</mgrwt>
</event>
<event>
12    1  0.1050690E-001  0.1808960E+03  0.7546771E-02  0.1167006E+00
         21   -1    0    0  501  502  0.00000000000E+00  0.00000000000E+00  0.10326544225E+03  0.10326544225E+03  0.00000000000E+00 0.  1.
         21   -1    0    0  502  503 -0.00000000000E+00 -0.00000000000E+00 -0.46044075912E+03  0.46044075912E+03  0.00000000000E+00 0.  1.
         -6    2    1    2    0  503 -0.23435241379E+02  0.47135161641E+02 -0.33633151184E+03  0.38189299051E+03  0.17306772184E+03 0.  0.
        -24    2    3    3    0    0 -0.60361556699E+02  0.24873576879E+02 -0.10858178008E+03  0.15005002375E+03  0.80391506443E+02 0.  0.
          6    2    1    2  501    0  0.23435241379E+02 -0.47135161641E+02 -0.20843805026E+02  0.18181321086E+03  0.17277339331E+03 0.  0.
         24    2    5    5    0    0 -0.34983193668E+02  0.11339566447E+02  0.18620845864E+02  0.90098675220E+02  0.80116326484E+02 0.  0.
          5    1    5    5  501    0  0.58418435047E+02 -0.58474728088E+02 -0.39464650890E+02  0.91714535642E+02  0.47000000000E+01 0. -1.
        -13    1    6    6    0    0 -0.25897540741E+02 -0.11631090223E+02  0.45476211041E+02  0.53610172979E+02  0.00000000000E+00 0.  1.
         14    1    6    6    0    0 -0.90856529269E+01  0.22970656670E+02 -0.26855365178E+02  0.36488502241E+02  0.00000000000E+00 0. -1.
         -5    1    3    3    0  503  0.36926315320E+02  0.22261584761E+02 -0.22774973176E+03  0.23184296676E+03  0.47000000000E+01 0.  1.
         11    1    4    4    0    0  0.15715339055E+01 -0.23594303142E+02 -0.35743368403E+02  0.42857312612E+02  0.00000000000E+00 0. -1.
        -12    1    4    4    0    0 -0.61933090604E+02  0.48467880021E+02 -0.72838411680E+02  0.10719271114E+03  0.00000000000E+00 0.  1.
<mgrwt>
<rscale>  2 0.18082559E+03</rscale>
<asrwt>0</asrwt>
<pdfrwt beam="1">  1       21 0.15886991E-01 0.18089602E+03</pdfrwt>
<pdfrwt beam="2">  1       21 0.70837041E-01 0.18089602E+03</pdfrwt>
<totfact> 0.64091098E+04</totfact>
</mgrwt>
</event>
<event>
12    1  0.1050690E-001  0.2196245E+03  0.7546771E-02  0.1134341E+00
         21   -1    0    0  503  502  0.00000000000E+00  0.00000000000E+00  0.62258688675E+03  0.62258688675E+03  0.00000000000E+00 0. -1.
         21   -1    0    0  501  503 -0.00000000000E+00 -0.00000000000E+00 -0.12468752468E+03  0.12468752468E+03  0.00000000000E+00 0.  1.
          6    2    1    2  501    0  0.64155937733E+02 -0.11740300160E+03  0.18556376516E+02  0.22040705903E+03  0.17417084553E+03 0.  0.
         24    2    3    3    0    0  0.66655395443E+02 -0.98456017977E+02 -0.46865318582E+02  0.15208924535E+03  0.82451508457E+02 0.  0.
         -6    2    1    2    0  502 -0.64155937733E+02  0.11740300160E+03  0.47934298555E+03  0.52686735240E+03  0.17297416020E+03 0.  0.
        -24    2    5    5    0    0 -0.73926813170E+02  0.14238569913E+03  0.46120501568E+03  0.49414608815E+03  0.75706201351E+02 0.  0.
          5    1    3    3  501    0 -0.24994577106E+01 -0.18946983621E+02  0.65421695098E+02  0.68317813685E+02  0.47000000000E+01 0. -1.
        -11    1    4    4    0    0  0.49971219762E+02 -0.55874657812E+01 -0.18212858624E+02  0.53479442758E+02  0.00000000000E+00 0.  1.
         12    1    4    4    0    0  0.16684175681E+02 -0.92868552196E+02 -0.28652459958E+02  0.98609802590E+02  0.00000000000E+00 0. -1.
         -5    1    5    5    0  502  0.97708754369E+01 -0.24982697533E+02  0.18137969862E+02  0.32721264241E+02  0.47000000000E+01 0.  1.
         11    1    6    6    0    0 -0.23776349711E+02 -0.16834806323E+01  0.82401864480E+02  0.85780045363E+02  0.00000000000E+00 0. -1.
        -12    1    6    6    0    0 -0.50150463458E+02  0.14406917976E+03  0.37880315120E+03  0.40836604279E+03  0.00000000000E+00 0.  1.
<mgrwt>
<rscale>  2 0.21938719E+03</rscale>
<asrwt>0</asrwt>
<pdfrwt beam="1">  1       21 0.95782596E-01 0.21962453E+03</pdfrwt>
<pdfrwt beam="2">  1       21 0.19182697E-01 0.21962453E+03</pdfrwt>
<totfact> 0.22316236E+04</totfact>
</mgrwt>
</event>
<event>
12    1  0.1050690E-001  0.1853375E+03  0.7546771E-02  0.1164590E+00
         21   -1    0    0  503  502  0.00000000000E+00  0.00000000000E+00  0.46070270317E+03  0.46070270317E+03  0.00000000000E+00 0.  1.
         21   -1    0    0  501  503 -0.00000000000E+00 -0.00000000000E+00 -0.91431756132E+02  0.91431756132E+02  0.00000000000E+00 0.  1.
          6    2    1    2  501    0 -0.17494486483E+02  0.36680037558E+02  0.52541583082E+02  0.18516375710E+03  0.17283956948E+03 0.  0.
         24    2    3    3    0    0  0.12988116597E+02  0.67372004788E+02 -0.13716765425E+02  0.10589557502E+03  0.79486130570E+02 0.  0.
         -6    2    1    2    0  502  0.17494486483E+02 -0.36680037558E+02  0.31672936396E+03  0.36697070221E+03  0.18082733220E+03 0.  0.
        -24    2    5    5    0    0  0.68069553904E+02 -0.66602286199E+02  0.21125357040E+03  0.24613853996E+03  0.82986632344E+02 0.  0.
          5    1    3    3  501    0 -0.30482603080E+02 -0.30691967230E+02  0.66258348506E+02  0.79268182077E+02  0.47000000000E+01 0. -1.
        -11    1    4    4    0    0 -0.17675260110E+02  0.65608078284E+02  0.78015154682E+01  0.68393701462E+02  0.00000000000E+00 0.  1.
         12    1    4    4    0    0  0.30663376706E+02  0.17639265045E+01 -0.21518280893E+02  0.37501873558E+02  0.00000000000E+00 0. -1.
         -5    1    5    5    0  502 -0.50575067420E+02  0.29922248641E+02  0.10547579356E+03  0.12083216225E+03  0.47000000000E+01 0.  1.
         11    1    6    6    0    0  0.20968610135E+02  0.18797120153E+02  0.37653861019E+02  0.47019438392E+02  0.00000000000E+00 0. -1.
        -12    1    6    6    0    0  0.47100943769E+02 -0.85399406352E+02  0.17359970939E+03  0.19911910156E+03  0.00000000000E+00 0.  1.
<mgrwt>
<rscale>  2 0.18335993E+03</rscale>
<asrwt>0</asrwt>
<pdfrwt beam="1">  1       21 0.70877337E-01 0.18533755E+03</pdfrwt>
<pdfrwt beam="2">  1       21 0.14066424E-01 0.18533755E+03</pdfrwt>
<totfact> 0.79711504E+04</totfact>
</mgrwt>
</event>
<event>
12    1  0.1050690E-001  0.3039655E+03  0.7546771E-02  0.1083444E+00
         21   -1    0    0  503  502  0.00000000000E+00  0.00000000000E+00  0.19933551541E+03  0.19933551541E+03  0.00000000000E+00 0. -1.
         21   -1    0    0  501  503 -0.00000000000E+00 -0.00000000000E+00 -0.46914051908E+03  0.46914051908E+03  0.00000000000E+00 0.  1.
          6    2    1    2  501    0  0.14510502825E+03  0.20149471268E+03 -0.17747257178E+03  0.35079649366E+03  0.17293373809E+03 0.  0.
         24    2    3    3    0    0  0.11021893620E+03  0.22211963405E+03 -0.16384370303E+03  0.30778181171E+03  0.79997117887E+02 0.  0.
         -6    2    1    2    0  502 -0.14510502825E+03 -0.20149471268E+03 -0.92332431888E+02  0.31767954083E+03  0.17532662154E+03 0.  0.
        -24    2    5    5    0    0 -0.12673593905E+03 -0.21877525129E+03 -0.52719100598E+02  0.27048476920E+03  0.80362292014E+02 0.  0.
          5    1    3    3  501    0  0.34886092052E+02 -0.20624921368E+02 -0.13628868756E+02  0.43014681955E+02  0.47000000000E+01 0. -1.
        -13    1    4    4    0    0  0.13039661946E+02  0.36486783973E+02 -0.65996070133E+02  0.76529729265E+02  0.00000000000E+00 0.  1.
         14    1    4    4    0    0  0.97179274254E+02  0.18563285007E+03 -0.97847632893E+02  0.23125208244E+03  0.00000000000E+00 0. -1.
         -5    1    5    5    0  502 -0.18369089202E+02  0.17280538614E+02 -0.39613331290E+02  0.47194771626E+02  0.47000000000E+01 0.  1.
         11    1    6    6    0    0 -0.11659723971E+03 -0.17402638930E+03 -0.70873698793E+02  0.22114063774E+03  0.00000000000E+00 0. -1.
        -12    1    6    6    0    0 -0.10138699341E+02 -0.44748861990E+02  0.18154598195E+02  0.49344131458E+02  0.00000000000E+00 0.  1.
<mgrwt>
<rscale>  2 0.30362142E+03</rscale>
<asrwt>0</asrwt>
<pdfrwt beam="1">  1       21 0.30667003E-01 0.30396548E+03</pdfrwt>
<pdfrwt beam="2">  1       21 0.72175464E-01 0.30396548E+03</pdfrwt>
<totfact> 0.16701414E+04</totfact>
</mgrwt>
</event>
<event>
12    1  0.1050690E-001  0.3486401E+03  0.7546771E-02  0.1063481E+00
         21   -1    0    0  503  502  0.00000000000E+00  0.00000000000E+00  0.61345003759E+03  0.61345003759E+03  0.00000000000E+00 0. -1.
         21   -1    0    0  501  503 -0.00000000000E+00 -0.00000000000E+00 -0.19664629351E+03  0.19664629351E+03  0.00000000000E+00 0.  1.
          6    2    1    2  501    0  0.29929346895E+03 -0.40359095797E+02  0.19518936476E+03  0.39698268554E+03  0.16819907056E+03 0.  0.
         24    2    3    3    0    0  0.23417283542E+03  0.24741403501E+02  0.11158729005E+03  0.27252317881E+03  0.79800412242E+02 0.  0.
         -6    2    1    2    0  502 -0.29929346895E+03  0.40359095797E+02  0.22161437932E+03  0.41311364556E+03  0.17419676764E+03 0.  0.
        -24    2    5    5    0    0 -0.64893243166E+02  0.27759932033E+02  0.10907145123E+03  0.15274812281E+03  0.80334679390E+02 0.  0.
          5    1    3    3  501    0  0.65120633533E+02 -0.65100499298E+02  0.83602074704E+02  0.12445950673E+03  0.47000000000E+01 0. -1.
        -11    1    4    4    0    0  0.11792344489E+03  0.46902129999E+02  0.35313362640E+02  0.13172995952E+03  0.00000000000E+00 0.  1.
         12    1    4    4    0    0  0.11624939053E+03 -0.22160726497E+02  0.76273927411E+02  0.14079321929E+03  0.00000000000E+00 0. -1.
         -5    1    5    5    0  502 -0.23440022578E+03  0.12599163764E+02  0.11254292808E+03  0.26036552275E+03  0.47000000000E+01 0.  1.
         13    1    6    6    0    0 -0.75942227693E+02  0.24136567517E+02  0.53514788900E+02  0.95987647484E+02  0.00000000000E+00 0. -1.
        -14    1    6    6    0    0  0.11048984527E+02  0.36233645153E+01  0.55556662334E+02  0.56760475326E+02  0.00000000000E+00 0.  1.
<mgrwt>
<rscale>  2 0.34789836E+03</rscale>
<asrwt>0</asrwt>
<pdfrwt beam="1">  1       21 0.94376928E-01 0.34864015E+03</pdfrwt>
<pdfrwt beam="2">  1       21 0.30253276E-01 0.34864015E+03</pdfrwt>
<totfact> 0.90734758E+03</totfact>
</mgrwt>
</event>
<event>
12    1  0.1050690E-001  0.2300469E+03  0.7546771E-02  0.1126732E+00
         21   -1    0    0  501  502  0.00000000000E+00  0.00000000000E+00  0.72394026057E+02  0.72394026057E+02  0.00000000000E+00 0. -1.
         21   -1    0    0  502  503 -0.00000000000E+00 -0.00000000000E+00 -0.73696989417E+03  0.73696989417E+03  0.00000000000E+00 0.  1.
         -6    2    1    2    0  503 -0.13234114069E+03  0.73704082920E+02 -0.37448378602E+03  0.43912753063E+03  0.17218714472E+03 0.  0.
        -24    2    3    3    0    0 -0.50320569697E+02  0.95793630653E+02 -0.16379234190E+03  0.21190892045E+03  0.79805262318E+02 0.  0.
          6    2    1    2  501    0  0.13234114069E+03 -0.73704082920E+02 -0.29009208209E+03  0.37023638959E+03  0.17313318206E+03 0.  0.
         24    2    5    5    0    0  0.23536005373E+02 -0.87649190691E+02 -0.12930742423E+03  0.17553965180E+03  0.76533882800E+02 0.  0.
          5    1    5    5  501    0  0.10880513532E+03  0.13945107771E+02 -0.16078465786E+03  0.19469673779E+03  0.47000000000E+01 0. -1.
        -13    1    6    6    0    0  0.39555710049E+02 -0.24537232056E+02 -0.84584384187E+02  0.96546610520E+02  0.00000000000E+00 0.  1.
         14    1    6    6    0    0 -0.16019704676E+02 -0.63111958635E+02 -0.44723040044E+02  0.78993041285E+02  0.00000000000E+00 0. -1.
         -5    1    3    3    0  503 -0.82020570998E+02 -0.22089547733E+02 -0.21069144412E+03  0.22721861018E+03  0.47000000000E+01 0.  1.
         13    1    4    4    0    0 -0.36412788223E+01  0.30258504346E+02 -0.12033350530E+01  0.30500557568E+02  0.00000000000E+00 0. -1.
        -14    1    4    4    0    0 -0.46679290874E+02  0.65535126308E+02 -0.16258900685E+03  0.18140836289E+03  0.00000000000E+00 0.  1.
<mgrwt>
<rscale>  2 0.22986889E+03</rscale>
<asrwt>0</asrwt>
<pdfrwt beam="1">  1       21 0.11137543E-01 0.23004688E+03</pdfrwt>
<pdfrwt beam="2">  1       21 0.11337998E+00 0.23004688E+03</pdfrwt>
<totfact> 0.39891248E+04</totfact>
</mgrwt>
</event>
<event>
12    1  0.1050690E-001  0.1986452E+03  0.7546771E-02  0.1151053E+00
         21   -1    0    0  501  502  0.00000000000E+00  0.00000000000E+00  0.72462505507E+02  0.72462505507E+02  0.00000000000E+00 0.  1.
         21   -1    0    0  502  503 -0.00000000000E+00 -0.00000000000E+00 -0.71832343743E+03  0.71832343743E+03  0.00000000000E+00 0. -1.
         -6    2    1    2    0  503  0.82467670509E+02 -0.50705238676E+02 -0.51811139215E+03  0.55460833770E+03  0.17256609071E+03 0.  0.
        -24    2    3    3    0    0  0.55700476754E+02 -0.31807975917E+02 -0.51015641504E+03  0.52056482345E+03  0.81325747249E+02 0.  0.
          6    2    1    2  501    0 -0.82467670509E+02  0.50705238676E+02 -0.12774953978E+03  0.23617760524E+03  0.17345886658E+03 0.  0.
         24    2    5    5    0    0  0.11038693394E+02 -0.92572279989E+01 -0.25807591230E+02  0.85336004965E+02  0.80054062709E+02 0.  0.
          5    1    5    5  501    0 -0.93506363903E+02  0.59962466675E+02 -0.10194194855E+03  0.15084160028E+03  0.47000000000E+01 0. -1.
        -13    1    6    6    0    0  0.37281640219E+02  0.11864000743E+02  0.53024456449E+01  0.39481529110E+02  0.00000000000E+00 0.  1.
         14    1    6    6    0    0 -0.26242946825E+02 -0.21121228742E+02 -0.31110036875E+02  0.45854475855E+02  0.00000000000E+00 0. -1.
         -5    1    3    3    0  503  0.26767193755E+02 -0.18897262760E+02 -0.79549771038E+01  0.34043514243E+02  0.47000000000E+01 0.  1.
         11    1    4    4    0    0  0.47803691546E+02  0.16259932537E+02 -0.18447331946E+03  0.19125894469E+03  0.00000000000E+00 0. -1.
        -12    1    4    4    0    0  0.78967852082E+01 -0.48067908454E+02 -0.32568309558E+03  0.32930587876E+03  0.00000000000E+00 0.  1.
<mgrwt>
<rscale>  2 0.19845014E+03</rscale>
<asrwt>0</asrwt>
<pdfrwt beam="1">  1       21 0.11148077E-01 0.19864520E+03</pdfrwt>
<pdfrwt beam="2">  1       21 0.11051130E+00 0.19864520E+03</pdfrwt>
<totfact> 0.43079637E+04</totfact>
</mgrwt>
</event>
<event>
12    1  0.1050690E-001  0.1797738E+03  0.7546771E-02  0.1168387E+00
         21   -1    0    0  503  502  0.00000000000E+00  0.00000000000E+00  0.10887971823E+03  0.10887971823E+03  0.00000000000E+00 0.  1.
         21   -1    0    0  501  503 -0.00000000000E+00 -0.00000000000E+00 -0.53439948007E+03  0.53439948007E+03  0.00000000000E+00 0.  1.
          6    2    1    2  501    0 -0.25407220586E+00  0.47567380091E+02 -0.42783353364E+03  0.46349052301E+03  0.17181156017E+03 0.  0.
         24    2    3    3    0    0 -0.86458168227E+01  0.43618554913E+02 -0.43971395475E+03  0.44770290115E+03  0.71499630879E+02 0.  0.
         -6    2    1    2    0  502  0.25407220586E+00 -0.47567380091E+02  0.23137717960E+01  0.17978867529E+03  0.17336635781E+03 0.  0.
        -24    2    5    5    0    0 -0.31991194470E+02  0.25987424034E+02  0.28523334392E+02  0.95177224504E+02  0.80909460064E+02 0.  0.
          5    1    3    3  501    0  0.83917446168E+01  0.39488251778E+01  0.11880421113E+02  0.15787621854E+02  0.47000000000E+01 0. -1.
        -13    1    4    4    0    0 -0.22573946803E+02  0.56181484427E+02 -0.38793071428E+03  0.39262728045E+03  0.00000000000E+00 0.  1.
         14    1    4    4    0    0  0.13928129980E+02 -0.12562929514E+02 -0.51783240468E+02  0.55075620705E+02  0.00000000000E+00 0. -1.
         -5    1    5    5    0  502  0.32245266676E+02 -0.73554804126E+02 -0.26209562596E+02  0.84611450788E+02  0.47000000000E+01 0.  1.
         11    1    6    6    0    0  0.42957299102E+01 -0.19731926133E+02 -0.12575993896E+02  0.23789868155E+02  0.00000000000E+00 0. -1.
        -12    1    6    6    0    0 -0.36286924380E+02  0.45719350167E+02  0.41099328288E+02  0.71387356348E+02  0.00000000000E+00 0.  1.
<mgrwt>
<rscale>  2 0.17939788E+03</rscale>
<asrwt>0</asrwt>
<pdfrwt beam="1">  1       21 0.16750726E-01 0.17977379E+03</pdfrwt>
<pdfrwt beam="2">  1       21 0.82215303E-01 0.17977379E+03</pdfrwt>
<totfact> 0.41714718E+04</totfact>
</mgrwt>
</event>
<event>
12    1  0.1050690E-001  0.2974728E+03  0.7546771E-02  0.1086577E+00
         21   -1    0    0  503  502  0.00000000000E+00  0.00000000000E+00  0.10927950407E+03  0.10927950407E+03  0.00000000000E+00 0.  1.
         21   -1    0    0  501  503 -0.00000000000E+00 -0.00000000000E+00 -0.80899047472E+03  0.80899047472E+03  0.00000000000E+00 0.  1.
          6    2    1    2  501    0  0.22222248780E+03  0.95300631962E+02 -0.33654531627E+03  0.44882415927E+03  0.17238135485E+03 0.  0.
         24    2    3    3    0    0  0.35307551815E+02  0.34736633653E+02 -0.67471366544E+02  0.11561540847E+03  0.79757635620E+02 0.  0.
         -6    2    1    2    0  502 -0.22222248780E+03 -0.95300631962E+02 -0.36316565437E+03  0.46944581952E+03  0.17327735111E+03 0.  0.
        -24    2    5    5    0    0 -0.35676888231E+02 -0.30425143487E+02 -0.73973793937E+02  0.11921430770E+03  0.80878917289E+02 0.  0.
          5    1    3    3  501    0  0.18691493599E+03  0.60563998310E+02 -0.26907394973E+03  0.33320875080E+03  0.47000000000E+01 0. -1.
        -11    1    4    4    0    0  0.18598172521E+02 -0.22664554748E+02 -0.61154625142E+01  0.29949506587E+02  0.00000000000E+00 0.  1.
         12    1    4    4    0    0  0.16709379294E+02  0.57401188400E+02 -0.61355904030E+02  0.85665901883E+02  0.00000000000E+00 0. -1.
         -5    1    5    5    0  502 -0.18654559957E+03 -0.64875488476E+02 -0.28919186044E+03  0.35023151181E+03  0.47000000000E+01 0.  1.
         11    1    6    6    0    0 -0.47951318997E+02  0.10896431976E+02 -0.48886538589E+02  0.69339417927E+02  0.00000000000E+00 0. -1.
        -12    1    6    6    0    0  0.12274430766E+02 -0.41321575462E+02 -0.25087255348E+02  0.49874889776E+02  0.00000000000E+00 0.  1.
<mgrwt>
<rscale>  2 0.29734249E+03</rscale>
<asrwt>0</asrwt>
<pdfrwt beam="1">  1       21 0.16812232E-01 0.29747283E+03</pdfrwt>
<pdfrwt beam="2">  1       21 0.12446007E+00 0.29747283E+03</pdfrwt>
<totfact> 0.14477987E+04</totfact>
</mgrwt>
</event>
<event>
12    1  0.1050690E-001  0.1955607E+03  0.7546771E-02  0.1153688E+00
         21   -1    0    0  503  502  0.00000000000E+00  0.00000000000E+00  0.74149805417E+03  0.74149805417E+03  0.00000000000E+00 0.  1.
         21   -1    0    0  501  503 -0.00000000000E+00 -0.00000000000E+00 -0.61681540231E+02  0.61681540231E+02  0.00000000000E+00 0.  1.
          6    2    1    2  501    0 -0.29098029589E+02  0.86231941089E+02  0.50339966413E+03  0.53980367573E+03  0.17231988711E+03 0.  0.
         24    2    3    3    0    0 -0.82513783174E+02  0.59022802413E+02  0.39538092225E+03  0.41617633832E+03  0.81144656491E+02 0.  0.
         -6    2    1    2    0  502  0.29098029589E+02 -0.86231941089E+02  0.17641684981E+03  0.26337591867E+03  0.17309340441E+03 0.  0.
        -24    2    5    5    0    0  0.17196737942E+02 -0.76523672074E+02  0.20337581670E+03  0.23199491922E+03  0.79424930227E+02 0.  0.
          5    1    3    3  501    0  0.53415753586E+02  0.27209138675E+02  0.10801874189E+03  0.12362733742E+03  0.47000000000E+01 0. -1.
        -11    1    4    4    0    0 -0.87803340553E+02  0.30152958862E+02  0.22689273037E+03  0.24515084873E+03  0.00000000000E+00 0.  1.
         12    1    4    4    0    0  0.52895573783E+01  0.28869843551E+02  0.16848819188E+03  0.17102548958E+03  0.00000000000E+00 0. -1.
         -5    1    5    5    0  502  0.11901291647E+02 -0.97082690145E+01 -0.26958966897E+02  0.31380999447E+02  0.47000000000E+01 0.  1.
         13    1    6    6    0    0  0.38314423539E+02 -0.53791824226E+02  0.18380845847E+03  0.19531283831E+03  0.00000000000E+00 0. -1.
        -14    1    6    6    0    0 -0.21117685597E+02 -0.22731847848E+02  0.19567358232E+02  0.36682080908E+02  0.00000000000E+00 0.  1.
<mgrwt>
<rscale>  2 0.19538935E+03</rscale>
<asrwt>0</asrwt>
<pdfrwt beam="1">  1       21 0.11407662E+00 0.19556065E+03</pdfrwt>
<pdfrwt beam="2">  1       21 0.94894683E-02 0.19556065E+03</pdfrwt>
<totfact> 0.53134214E+04</totfact>
</mgrwt>
</event>
<event>
12    1  0.1050690E-001  0.2164816E+03  0.7546771E-02  0.1136743E+00
         21   -1    0    0  503  502  0.00000000000E+00  0.00000000000E+00  0.98370615800E+02  0.98370615800E+02  0.00000000000E+00 0. -1.
         21   -1    0    0  501  503 -0.00000000000E+00 -0.00000000000E+00 -0.73300904211E+03  0.73300904211E+03  0.00000000000E+00 0.  1.
          6    2    1    2  501    0 -0.90253736389E+02  0.90873478072E+02 -0.56494141259E+03  0.60499841923E+03  0.17452954379E+03 0.  0.
         24    2    3    3    0    0 -0.51566232241E+01  0.10297353422E+03 -0.31140795965E+03  0.33724997051E+03  0.78310189410E+02 0.  0.
         -6    2    1    2    0  502  0.90253736389E+02 -0.90873478072E+02 -0.69697013719E+02  0.22638123868E+03  0.17316773821E+03 0.  0.
        -24    2    5    5    0    0  0.14693474654E+02 -0.35788663433E+02 -0.95947582309E+02  0.12914507099E+03  0.77303196450E+02 0.  0.
          5    1    3    3  501    0 -0.85097113165E+02 -0.12100056144E+02 -0.25353345294E+03  0.26774844871E+03  0.47000000000E+01 0. -1.
        -13    1    4    4    0    0  0.30249444000E+02  0.26432640527E+02 -0.61149644390E+02  0.73164146660E+02  0.00000000000E+00 0.  1.
         14    1    4    4    0    0 -0.35406067224E+02  0.76540893689E+02 -0.25025831526E+03  0.26408582385E+03  0.00000000000E+00 0. -1.
         -5    1    5    5    0  502  0.75560261735E+02 -0.55084814638E+02  0.26250568590E+02  0.97236167697E+02  0.47000000000E+01 0.  1.
         13    1    6    6    0    0 -0.23025872018E+02  0.72861495360E+01 -0.10607991043E+02  0.26378177178E+02  0.00000000000E+00 0. -1.
        -14    1    6    6    0    0  0.37719346672E+02 -0.43074812969E+02 -0.85339591266E+02  0.10276689381E+03  0.00000000000E+00 0.  1.
<mgrwt>
<rscale>  2 0.21620699E+03</rscale>
<asrwt>0</asrwt>
<pdfrwt beam="1">  1       21 0.15133941E-01 0.21648161E+03</pdfrwt>
<pdfrwt beam="2">  1       21 0.11277062E+00 0.21648161E+03</pdfrwt>
<totfact> 0.23396680E+04</totfact>
</mgrwt>
</event>
<event>
12    1  0.1050690E-001  0.1945198E+03  0.7546771E-02  0.1154530E+00
         21   -1    0    0  501  502  0.00000000000E+00  0.00000000000E+00  0.18596585225E+03  0.18596585225E+03  0.00000000000E+00 0. -1.
         21   -1    0    0  502  503 -0.00000000000E+00 -0.00000000000E+00 -0.20914993361E+03  0.20914993361E+03  0.00000000000E+00 0. -1.
         -6    2    1    2    0  503 -0.41084886852E+02 -0.78484427860E+02  0.22074061263E+02  0.19576822729E+03  0.17317667652E+03 0.  0.
        -24    2    3    3    0    0 -0.21972066053E+02 -0.66364109515E+02 -0.50988752652E+02  0.11913620517E+03  0.81893929982E+02 0.  0.
          6    2    1    2  501    0  0.41084886852E+02  0.78484427860E+02 -0.45258142628E+02  0.19934755858E+03  0.17275235539E+03 0.  0.
         24    2    5    5    0    0  0.52453274446E+02  0.75727948817E+02 -0.91657561420E+02  0.15126601869E+03  0.77422423200E+02 0.  0.
          5    1    5    5  501    0 -0.11368387594E+02  0.27564790438E+01  0.46399418791E+02  0.48081539882E+02  0.47000000000E+01 0. -1.
        -11    1    6    6    0    0 -0.82410691728E+01 -0.86534906314E+01 -0.25211834142E+02  0.27900442685E+02  0.00000000000E+00 0.  1.
         12    1    6    6    0    0  0.60694343618E+02  0.84381439448E+02 -0.66445727278E+02  0.12336557601E+03  0.00000000000E+00 0. -1.
         -5    1    3    3    0  503 -0.19112820798E+02 -0.12120318346E+02  0.73062813915E+02  0.76632022112E+02  0.47000000000E+01 0.  1.
         13    1    4    4    0    0 -0.34161749572E+02 -0.73421260950E+02 -0.17560642874E+02  0.82861830003E+02  0.00000000000E+00 0. -1.
        -14    1    4    4    0    0  0.12189683519E+02  0.70571514353E+01 -0.33428109779E+02  0.36274375171E+02  0.00000000000E+00 0.  1.
<mgrwt>
<rscale>  2 0.19442527E+03</rscale>
<asrwt>0</asrwt>
<pdfrwt beam="1">  1       21 0.28610131E-01 0.19451975E+03</pdfrwt>
<pdfrwt beam="2">  1       21 0.32176913E-01 0.19451975E+03</pdfrwt>
<totfact> 0.10849792E+05</totfact>
</mgrwt>
</event>
<event>
12    1  0.1050690E-001  0.2300132E+03  0.7546771E-02  0.1126677E+00
         21   -1    0    0  503  502  0.00000000000E+00  0.00000000000E+00  0.62751196235E+02  0.62751196235E+02  0.00000000000E+00 0.  1.
         21   -1    0    0  501  503 -0.00000000000E+00 -0.00000000000E+00 -0.19265461298E+04  0.19265461298E+04  0.00000000000E+00 0.  1.
          6    2    1    2  501    0  0.66349583957E+02 -0.13496776815E+03 -0.16783649459E+04  0.16940528152E+04  0.17403299568E+03 0.  0.
         24    2    3    3    0    0 -0.27637147431E+02 -0.89858529087E+02 -0.98101232095E+03  0.98893500763E+03  0.82273375429E+02 0.  0.
         -6    2    1    2    0  502 -0.66349583957E+02  0.13496776815E+03 -0.18542998774E+03  0.29524451083E+03  0.17368498811E+03 0.  0.
        -24    2    5    5    0    0  0.24137660185E+02  0.32564617534E+02 -0.79123168039E+02  0.12204642620E+03  0.83616825293E+02 0.  0.
          5    1    3    3  501    0  0.93986731388E+02 -0.45109239060E+02 -0.69735262491E+03  0.70511780760E+03  0.47000000000E+01 0. -1.
        -13    1    4    4    0    0 -0.17083962578E+02 -0.69847984524E+02 -0.33985949867E+03  0.34738319124E+03  0.00000000000E+00 0.  1.
         14    1    4    4    0    0 -0.10553184853E+02 -0.20010544563E+02 -0.64115282228E+03  0.64155181640E+03  0.00000000000E+00 0. -1.
         -5    1    5    5    0  502 -0.90487244142E+02  0.10240315061E+03 -0.10630681970E+03  0.17319808464E+03  0.47000000000E+01 0.  1.
         11    1    6    6    0    0  0.23424801507E+02 -0.15363182987E+02  0.17147905830E+01  0.28065801679E+02  0.00000000000E+00 0. -1.
        -12    1    6    6    0    0  0.71285867778E+00  0.47927800521E+02 -0.80837958622E+02  0.93980624517E+02  0.00000000000E+00 0.  1.
<mgrwt>
<rscale>  2 0.22994732E+03</rscale>
<asrwt>0</asrwt>
<pdfrwt beam="1">  1       21 0.96540289E-02 0.23001315E+03</pdfrwt>
<pdfrwt beam="2">  1       21 0.29639175E+00 0.23001315E+03</pdfrwt>
<totfact> 0.29646126E+03</totfact>
</mgrwt>
</event>
<event>
12    1  0.1050690E-001  0.1962361E+03  0.7546771E-02  0.1153033E+00
         21   -1    0    0  503  502  0.00000000000E+00  0.00000000000E+00  0.26661618673E+02  0.26661618673E+02  0.00000000000E+00 0. -1.
         21   -1    0    0  501  503 -0.00000000000E+00 -0.00000000000E+00 -0.22625859161E+04  0.22625859161E+04  0.00000000000E+00 0. -1.
          6    2    1    2  501    0  0.82824286983E+02  0.41230417948E+02 -0.18067635649E+04  0.18173497179E+04  0.17264300703E+03 0.  0.
         24    2    3    3    0    0  0.80517370815E+02  0.53258639802E+02 -0.17962108346E+04  0.18005137416E+04  0.78465543225E+02 0.  0.
         -6    2    1    2    0  502 -0.82824286983E+02 -0.41230417948E+02 -0.42916073248E+03  0.47189781682E+03  0.17305723137E+03 0.  0.
        -24    2    5    5    0    0 -0.14144766113E+02 -0.49766512357E+02 -0.11266568375E+03  0.14789018208E+03  0.80629830088E+02 0.  0.
          5    1    3    3  501    0  0.23069161683E+01 -0.12028221853E+02 -0.10552730294E+02  0.16835976355E+02  0.47000000000E+01 0. -1.
        -11    1    4    4    0    0  0.21169972483E+02  0.43499836984E+02 -0.12621723416E+04  0.12630991345E+04  0.00000000000E+00 0.  1.
         12    1    4    4    0    0  0.59347398332E+02  0.97588028175E+01 -0.53403849302E+03  0.53741460712E+03  0.00000000000E+00 0. -1.
         -5    1    5    5    0  502 -0.68679520869E+02  0.85360944084E+01 -0.31649504873E+03  0.32400763474E+03  0.47000000000E+01 0.  1.
         13    1    6    6    0    0 -0.22250838943E+02  0.45373436410E+01 -0.16849590184E+00  0.22709374977E+02  0.00000000000E+00 0. -1.
        -14    1    6    6    0    0  0.81060728298E+01 -0.54303855998E+02 -0.11249718785E+03  0.12518080710E+03  0.00000000000E+00 0.  1.
<mgrwt>
<rscale>  2 0.19614476E+03</rscale>
<asrwt>0</asrwt>
<pdfrwt beam="1">  1       21 0.41017897E-02 0.19623612E+03</pdfrwt>
<pdfrwt beam="2">  1       21 0.34808995E+00 0.19623612E+03</pdfrwt>
<totfact> 0.67123240E+03</totfact>
</mgrwt>
</event>
<event>
12    1  0.1050690E-001  0.1756164E+03  0.7546771E-02  0.1172648E+00
         21   -1    0    0  501  502  0.00000000000E+00  0.00000000000E+00  0.14806205702E+04  0.14806205702E+04  0.00000000000E+00 0. -1.
         21   -1    0    0  502  503 -0.00000000000E+00 -0.00000000000E+00 -0.21499258650E+02  0.21499258650E+02  0.00000000000E+00 0. -1.
         -6    2    1    2    0  503 -0.15967144826E+02 -0.30465422245E+01  0.56989836511E+03  0.59572114055E+03  0.17272897732E+03 0.  0.
        -24    2    3    3    0    0 -0.49076796142E+01 -0.62514031958E+02  0.24579808775E+03  0.26599129069E+03  0.80016106298E+02 0.  0.
          6    2    1    2  501    0  0.15967144826E+02  0.30465422245E+01  0.88922294644E+03  0.90639868831E+03  0.17486252471E+03 0.  0.
         24    2    5    5    0    0 -0.44860397380E+02 -0.16398540320E+02  0.29395427678E+03  0.30769594052E+03  0.77371232358E+02 0.  0.
          5    1    5    5  501    0  0.60827542206E+02  0.19445082545E+02  0.59526866966E+03  0.59870274779E+03  0.47000000000E+01 0. -1.
        -11    1    6    6    0    0  0.13890720194E+02 -0.25816419199E+02  0.13039476947E+03  0.13364967457E+03  0.00000000000E+00 0.  1.
         12    1    6    6    0    0 -0.58751117575E+02  0.94178788785E+01  0.16355950731E+03  0.17404626595E+03  0.00000000000E+00 0. -1.
         -5    1    3    3    0  503 -0.11059465211E+02  0.59467489733E+02  0.32410027736E+03  0.32972984986E+03  0.47000000000E+01 0.  1.
         13    1    4    4    0    0 -0.12499990219E+02  0.41613517020E+00  0.37260748913E+00  0.12512464198E+02  0.00000000000E+00 0. -1.
        -14    1    4    4    0    0  0.75923106053E+01 -0.62930167128E+02  0.24542548026E+03  0.25347882649E+03  0.00000000000E+00 0.  1.
<mgrwt>
<rscale>  2 0.17508294E+03</rscale>
<asrwt>0</asrwt>
<pdfrwt beam="1">  1       21 0.22778770E+00 0.17561644E+03</pdfrwt>
<pdfrwt beam="2">  1       21 0.33075794E-02 0.17561644E+03</pdfrwt>
<totfact> 0.49148507E+04</totfact>
</mgrwt>
</event>
<event>
12    1  0.1050690E-001  0.2542884E+03  0.7546771E-02  0.1110689E+00
         21   -1    0    0  503  502  0.00000000000E+00  0.00000000000E+00  0.13726180107E+03  0.13726180107E+03  0.00000000000E+00 0. -1.
         21   -1    0    0  501  503 -0.00000000000E+00 -0.00000000000E+00 -0.79888060379E+03  0.79888060379E+03  0.00000000000E+00 0.  1.
          6    2    1    2  501    0  0.18240885104E+03 -0.35166956995E+02 -0.63115138987E+03  0.68045180407E+03  0.17364583763E+03 0.  0.
         24    2    3    3    0    0  0.14743357260E+03  0.31072999711E+01 -0.59214583627E+03  0.61540019333E+03  0.79588899308E+02 0.  0.
         -6    2    1    2    0  502 -0.18240885104E+03  0.35166956995E+02 -0.30467412849E+02  0.25569060079E+03  0.17303096915E+03 0.  0.
        -24    2    5    5    0    0 -0.28209546681E+02  0.28142228251E+02  0.21600800471E+02  0.92718329782E+02  0.80884674455E+02 0.  0.
          5    1    3    3  501    0  0.34975278449E+02 -0.38274256966E+02 -0.39005553601E+02  0.65051610746E+02  0.47000000000E+01 0. -1.
        -11    1    4    4    0    0  0.53913738079E+02 -0.29315518133E+02 -0.31957225539E+03  0.32541130461E+03  0.00000000000E+00 0.  1.
         12    1    4    4    0    0  0.93519834517E+02  0.32422818104E+02 -0.27257358089E+03  0.28998888872E+03  0.00000000000E+00 0. -1.
         -5    1    5    5    0  502 -0.15419930436E+03  0.70247287437E+01 -0.52068213319E+02  0.16297227101E+03  0.47000000000E+01 0.  1.
         13    1    6    6    0    0 -0.89006720574E+01 -0.20498438597E+02  0.32325020212E+02  0.39297771943E+02  0.00000000000E+00 0. -1.
        -14    1    6    6    0    0 -0.19308874623E+02  0.48640666849E+02 -0.10724219741E+02  0.53420557838E+02  0.00000000000E+00 0.  1.
<mgrwt>
<rscale>  2 0.25418345E+03</rscale>
<asrwt>0</asrwt>
<pdfrwt beam="1">  1       21 0.21117200E-01 0.25428838E+03</pdfrwt>
<pdfrwt beam="2">  1       21 0.12290471E+00 0.25428838E+03</pdfrwt>
<totfact> 0.99676091E+03</totfact>
</mgrwt>
</event>
<event>
12    1  0.1050690E-001  0.1772020E+03  0.7546771E-02  0.1170769E+00
         21   -1    0    0  503  502  0.00000000000E+00  0.00000000000E+00  0.85663813547E+02  0.85663813547E+02  0.00000000000E+00 0. -1.
         21   -1    0    0  501  503 -0.00000000000E+00 -0.00000000000E+00 -0.65535795958E+03  0.65535795958E+03  0.00000000000E+00 0. -1.
          6    2    1    2  501    0 -0.31276080913E+02 -0.32515801318E+01 -0.53203627172E+03  0.56077012654E+03  0.17438971982E+03 0.  0.
         24    2    3    3    0    0 -0.83105736217E+02 -0.29136742990E+02 -0.37624061144E+03  0.39448503224E+03  0.79409884614E+02 0.  0.
         -6    2    1    2    0  502  0.31276080913E+02  0.32515801318E+01 -0.37657874315E+02  0.18025164659E+03  0.17344674858E+03 0.  0.
        -24    2    5    5    0    0  0.76289300913E+02 -0.32205180422E+02 -0.38325868518E+02  0.12275462006E+03  0.82113296544E+02 0.  0.
          5    1    3    3  501    0  0.51829655304E+02  0.25885162858E+02 -0.15579566028E+03  0.16628509430E+03  0.47000000000E+01 0. -1.
        -13    1    4    4    0    0 -0.59436883767E+02 -0.45473201330E+02 -0.16354814523E+03  0.17985702933E+03  0.00000000000E+00 0.  1.
         14    1    4    4    0    0 -0.23668852450E+02  0.16336458340E+02 -0.21269246622E+03  0.21462800291E+03  0.00000000000E+00 0. -1.
         -5    1    5    5    0  502 -0.45013220000E+02  0.35456760554E+02  0.66799420323E+00  0.57497026532E+02  0.47000000000E+01 0.  1.
         13    1    6    6    0    0 -0.64992087731E+01 -0.10503273363E+02  0.16874319920E+02  0.20911746431E+02  0.00000000000E+00 0. -1.
        -14    1    6    6    0    0  0.82788509686E+02 -0.21701907059E+02 -0.55200188438E+02  0.10184287363E+03  0.00000000000E+00 0.  1.
<mgrwt>
<rscale>  2 0.17696954E+03</rscale>
<asrwt>0</asrwt>
<pdfrwt beam="1">  1       21 0.13179049E-01 0.17720198E+03</pdfrwt>
<pdfrwt beam="2">  1       21 0.10082430E+00 0.17720198E+03</pdfrwt>
<totfact> 0.40256194E+04</totfact>
</mgrwt>
</event>
<event>
12    1  0.1050690E-001  0.2786617E+03  0.7546771E-02  0.1096639E+00
         21   -1    0    0  503  502  0.00000000000E+00  0.00000000000E+00  0.63130996497E+03  0.63130996497E+03  0.00000000000E+00 0. -1.
         21   -1    0    0  501  503 -0.00000000000E+00 -0.00000000000E+00 -0.19549403562E+03  0.19549403562E+03  0.00000000000E+00 0. -1.
          6    2    1    2  501    0 -0.57844592478E+02  0.20906923846E+03 -0.34644814748E+02  0.28080703820E+03  0.17491822708E+03 0.  0.
         24    2    3    3    0    0 -0.10086917322E+03  0.15666454244E+03  0.28994712926E+01  0.20316020873E+03  0.80915353991E+02 0.  0.
         -6    2    1    2    0  502  0.57844592478E+02 -0.20906923846E+03  0.47046074410E+03  0.54599696240E+03  0.17240483713E+03 0.  0.
        -24    2    5    5    0    0  0.81683034268E+02 -0.22111197812E+03  0.40326115760E+03  0.47353198251E+03  0.77784010406E+02 0.  0.
          5    1    3    3  501    0  0.43024580742E+02  0.52404696014E+02 -0.37544286041E+02  0.77646829469E+02  0.47000000000E+01 0. -1.
        -13    1    4    4    0    0 -0.20489600055E+02  0.17571853509E+02  0.29875570688E+02  0.40263425961E+02  0.00000000000E+00 0.  1.
         14    1    4    4    0    0 -0.80379573165E+02  0.13909268894E+03 -0.26976099395E+02  0.16289678277E+03  0.00000000000E+00 0. -1.
         -5    1    5    5    0  502 -0.23838441790E+02  0.12042739657E+02  0.67199586497E+02  0.72464979892E+02  0.47000000000E+01 0.  1.
         11    1    6    6    0    0 -0.93568452389E+01 -0.70759713598E+02  0.13718811829E+03  0.15464497219E+03  0.00000000000E+00 0. -1.
        -12    1    6    6    0    0  0.91039879507E+02 -0.15035226452E+03  0.26607303930E+03  0.31888701032E+03  0.00000000000E+00 0.  1.
<mgrwt>
<rscale>  2 0.27826815E+03</rscale>
<asrwt>0</asrwt>
<pdfrwt beam="1">  1       21 0.97124609E-01 0.27866168E+03</pdfrwt>
<pdfrwt beam="2">  1       21 0.30076006E-01 0.27866168E+03</pdfrwt>
<totfact> 0.88477304E+03</totfact>
</mgrwt>
</event>
<event>
12    1  0.1050690E-001  0.1923124E+03  0.7546771E-02  0.1160155E+00
         21   -1    0    0  501  502  0.00000000000E+00  0.00000000000E+00  0.52822448747E+03  0.52822448747E+03  0.00000000000E+00 0.  1.
         21   -1    0    0  502  503 -0.00000000000E+00 -0.00000000000E+00 -0.78415618539E+02  0.78415618539E+02  0.00000000000E+00 0.  1.
         -6    2    1    2    0  503 -0.83357132296E+02 -0.18888382171E+00  0.87995417803E+02  0.19689256777E+03  0.15516134346E+03 0.  0.
        -24    2    3    3    0    0 -0.11527796449E+03 -0.81934452577E+01  0.79573513653E+02  0.16259925936E+03  0.82161021328E+02 0.  0.
          6    2    1    2  501    0  0.83357132296E+02  0.18888382171E+00  0.36181345113E+03  0.40974753824E+03  0.17330788931E+03 0.  0.
         24    2    5    5    0    0  0.12153916095E+03 -0.22984774879E+02  0.27429564049E+03  0.31137913403E+03  0.80117408813E+02 0.  0.
          5    1    5    5  501    0 -0.38182028651E+02  0.23173658701E+02  0.87517810636E+02  0.98368404216E+02  0.47000000000E+01 0. -1.
        -13    1    6    6    0    0  0.71082414074E+02 -0.51209095710E+02  0.18923711043E+03  0.20853240764E+03  0.00000000000E+00 0.  1.
         14    1    6    6    0    0  0.50456746873E+02  0.28224320831E+02  0.85058530060E+02  0.10284672638E+03  0.00000000000E+00 0. -1.
         -5    1    3    3    0  503  0.31920832198E+02  0.80045614360E+01  0.84219041502E+01  0.34293308407E+02  0.47000000000E+01 0.  1.
         11    1    4    4    0    0 -0.17978192115E+02  0.89710589485E+01  0.58119735994E+02  0.61494707109E+02  0.00000000000E+00 0. -1.
        -12    1    4    4    0    0 -0.97299772379E+02 -0.17164504206E+02  0.21453777659E+02  0.10110455225E+03  0.00000000000E+00 0.  1.
<mgrwt>
<rscale>  2 0.18813381E+03</rscale>
<asrwt>0</asrwt>
<pdfrwt beam="1">  1       21 0.81265303E-01 0.19231243E+03</pdfrwt>
<pdfrwt beam="2">  1       21 0.12063942E-01 0.19231243E+03</pdfrwt>
<totfact> 0.77170103E+04</totfact>
</mgrwt>
</event>
<event>
12    1  0.1050690E-001  0.2306357E+03  0.7546771E-02  0.1126655E+00
         21   -1    0    0  503  502  0.00000000000E+00  0.00000000000E+00  0.46063708633E+03  0.46063708633E+03  0.00000000000E+00 0. -1.
         21   -1    0    0  501  503 -0.00000000000E+00 -0.00000000000E+00 -0.18485043242E+03  0.18485043242E+03  0.00000000000E+00 0.  1.
          6    2    1    2  501    0  0.12529357528E+03  0.81765016382E+02 -0.62163768446E+02  0.23633801385E+03  0.17206779122E+03 0.  0.
         24    2    3    3    0    0  0.86734181313E+02  0.20872718368E+02 -0.98646060042E+02  0.15541986743E+03  0.80410207377E+02 0.  0.
         -6    2    1    2    0  502 -0.12529357528E+03 -0.81765016382E+02  0.33795042235E+03  0.40914950490E+03  0.17552444696E+03 0.  0.
        -24    2    5    5    0    0 -0.50684996833E+02 -0.40217893944E+02  0.60519860771E+02  0.11883517549E+03  0.79200362931E+02 0.  0.
          5    1    3    3  501    0  0.38559393966E+02  0.60892298014E+02  0.36482291595E+02  0.80918146423E+02  0.47000000000E+01 0. -1.
        -13    1    4    4    0    0  0.71080415299E+02  0.42186239173E+02 -0.41582819099E+02  0.92526942340E+02  0.00000000000E+00 0.  1.
         14    1    4    4    0    0  0.15653766014E+02 -0.21313520805E+02 -0.57063240943E+02  0.62892925090E+02  0.00000000000E+00 0. -1.
         -5    1    5    5    0  502 -0.74608578446E+02 -0.41547122438E+02  0.27743056158E+03  0.29031432941E+03  0.47000000000E+01 0.  1.
         13    1    6    6    0    0  0.90963066313E+01 -0.30466084217E+02  0.47047170110E+02  0.56783459715E+02  0.00000000000E+00 0. -1.
        -14    1    6    6    0    0 -0.59781303464E+02 -0.97518097273E+01  0.13472690661E+02  0.62051715774E+02  0.00000000000E+00 0.  1.
<mgrwt>
<rscale>  2 0.22997799E+03</rscale>
<asrwt>0</asrwt>
<pdfrwt beam="1">  1       21 0.70867244E-01 0.23063571E+03</pdfrwt>
<pdfrwt beam="2">  1       21 0.28438528E-01 0.23063571E+03</pdfrwt>
<totfact> 0.20862840E+04</totfact>
</mgrwt>
</event>
<event>
12    1  0.1050690E-001  0.2081380E+03  0.7546771E-02  0.1143072E+00
         21   -1    0    0  501  502  0.00000000000E+00  0.00000000000E+00  0.29080161355E+03  0.29080161355E+03  0.00000000000E+00 0. -1.
         21   -1    0    0  502  503 -0.00000000000E+00 -0.00000000000E+00 -0.14903340666E+03  0.14903340666E+03  0.00000000000E+00 0.  1.
         -6    2    1    2    0  503 -0.36094127230E+02 -0.11041522124E+03  0.64094233274E+02  0.21767592029E+03  0.17257006819E+03 0.  0.
        -24    2    3    3    0    0  0.17567752861E+00  0.74978026037E+01  0.45305717964E+02  0.92799668602E+02  0.80640700059E+02 0.  0.
          6    2    1    2  501    0  0.36094127230E+02  0.11041522124E+03  0.77673973611E+02  0.22215909992E+03  0.17270527611E+03 0.  0.
         24    2    5    5    0    0  0.23424589625E+02  0.16267662190E+02  0.94506109671E+02  0.12556877503E+03  0.77606470505E+02 0.  0.
          5    1    5    5  501    0  0.12669537605E+02  0.94147559050E+02 -0.16832136060E+02  0.96590324891E+02  0.47000000000E+01 0. -1.
        -13    1    6    6    0    0  0.65195548025E+01  0.43420454313E+02  0.78160920253E+02  0.89649148921E+02  0.00000000000E+00 0.  1.
         14    1    6    6    0    0  0.16905034823E+02 -0.27152792123E+02  0.16345189418E+02  0.35919626105E+02  0.00000000000E+00 0. -1.
         -5    1    3    3    0  503 -0.36269804759E+02 -0.11791302384E+03  0.18788515310E+02  0.12487625169E+03  0.47000000000E+01 0.  1.
         11    1    4    4    0    0  0.30287669303E+02 -0.22019206199E+02  0.29859545556E+02  0.47893431849E+02  0.00000000000E+00 0. -1.
        -12    1    4    4    0    0 -0.30111991775E+02  0.29517008802E+02  0.15446172408E+02  0.44906236753E+02  0.00000000000E+00 0.  1.
<mgrwt>
<rscale>  2 0.20810993E+03</rscale>
<asrwt>0</asrwt>
<pdfrwt beam="1">  1       21 0.44738710E-01 0.20813798E+03</pdfrwt>
<pdfrwt beam="2">  1       21 0.22928217E-01 0.20813798E+03</pdfrwt>
<totfact> 0.85063696E+04</totfact>
</mgrwt>
</event>
<event>
12    1  0.1050690E-001  0.1917980E+03  0.7546771E-02  0.1157500E+00
         21   -1    0    0  501  502  0.00000000000E+00  0.00000000000E+00  0.26565275474E+03  0.26565275474E+03  0.00000000000E+00 0. -1.
         21   -1    0    0  502  503 -0.00000000000E+00 -0.00000000000E+00 -0.27264124664E+03  0.27264124664E+03  0.00000000000E+00 0. -1.
         -6    2    1    2    0  503  0.80490693937E+02  0.16334744571E+01 -0.19377116066E+03  0.27264213841E+03  0.17408346528E+03 0.  0.
        -24    2    3    3    0    0 -0.24385856321E+02 -0.12417034451E+02 -0.10353661927E+03  0.13349879486E+03  0.79707239103E+02 0.  0.
          6    2    1    2  501    0 -0.80490693937E+02 -0.16334744571E+01  0.18678266875E+03  0.26565186298E+03  0.17088512781E+03 0.  0.
         24    2    5    5    0    0 -0.34135333791E+02 -0.39310579248E+02  0.18135134935E+03  0.20548565261E+03  0.81397167415E+02 0.  0.
          5    1    5    5  501    0 -0.46355360146E+02  0.37677104791E+02  0.54313194033E+01  0.60166210369E+02  0.47000000000E+01 0. -1.
        -11    1    6    6    0    0  0.27012483012E+02 -0.14043763945E+02  0.58883355104E+02  0.66288393046E+02  0.00000000000E+00 0.  1.
         12    1    6    6    0    0 -0.61147816803E+02 -0.25266815303E+02  0.12246799424E+03  0.13919725956E+03  0.00000000000E+00 0. -1.
         -5    1    3    3    0  503  0.10487655026E+03  0.14050508908E+02 -0.90234541384E+02  0.13914334355E+03  0.47000000000E+01 0.  1.
         13    1    4    4    0    0  0.28524321359E+02 -0.10513715421E+02 -0.28547411307E+02  0.41702875360E+02  0.00000000000E+00 0. -1.
        -14    1    4    4    0    0 -0.52910177680E+02 -0.19033190297E+01 -0.74989207965E+02  0.91795919499E+02  0.00000000000E+00 0.  1.
<mgrwt>
<rscale>  2 0.19106932E+03</rscale>
<asrwt>0</asrwt>
<pdfrwt beam="1">  1       21 0.40869655E-01 0.19179800E+03</pdfrwt>
<pdfrwt beam="2">  1       21 0.41944807E-01 0.19179800E+03</pdfrwt>
<totfact> 0.31566105E+04</totfact>
</mgrwt>
</event>
<event>
12    1  0.1050690E-001  0.1838839E+03  0.7546771E-02  0.1164502E+00
         21   -1    0    0  501  502  0.00000000000E+00  0.00000000000E+00  0.76580872458E+03  0.76580872458E+03  0.00000000000E+00 0.  1.
         21   -1    0    0  502  503 -0.00000000000E+00 -0.00000000000E+00 -0.43927335405E+02  0.43927335405E+02  0.00000000000E+00 0.  1.
         -6    2    1    2    0  503 -0.68932463098E+01  0.58427092574E+02  0.33637614727E+03  0.38335648076E+03  0.17421835982E+03 0.  0.
        -24    2    3    3    0    0 -0.44540076456E+02 -0.13577922054E+02  0.11619076374E+03  0.14861044976E+03  0.80103644241E+02 0.  0.
          6    2    1    2  501    0  0.68932463098E+01 -0.58427092574E+02  0.38550524191E+03  0.42637957922E+03  0.17240653135E+03 0.  0.
         24    2    5    5    0    0 -0.46463277168E+02  0.86811149845E+01  0.16857933187E+03  0.19307854930E+03  0.81401088343E+02 0.  0.
          5    1    5    5  501    0  0.53356523478E+02 -0.67108207559E+02  0.21692591004E+03  0.23330102993E+03  0.47000000000E+01 0. -1.
        -13    1    6    6    0    0 -0.14093369255E+02  0.39916258303E+02  0.11813876154E+03  0.12549381544E+03  0.00000000000E+00 0.  1.
         14    1    6    6    0    0 -0.32369907913E+02 -0.31235143318E+02  0.50440570323E+02  0.67584733860E+02  0.00000000000E+00 0. -1.
         -5    1    3    3    0  503  0.37646830147E+02  0.72005014628E+02  0.22018538353E+03  0.23474603100E+03  0.47000000000E+01 0.  1.
         13    1    4    4    0    0 -0.64087889114E+02  0.58845614057E+01  0.89414576914E+02  0.11016738246E+03  0.00000000000E+00 0. -1.
        -14    1    4    4    0    0  0.19547812657E+02 -0.19462483459E+02  0.26776186827E+02  0.38443067296E+02  0.00000000000E+00 0.  1.
<mgrwt>
<rscale>  2 0.18345345E+03</rscale>
<asrwt>0</asrwt>
<pdfrwt beam="1">  1       21 0.11781672E+00 0.18388387E+03</pdfrwt>
<pdfrwt beam="2">  1       21 0.67580522E-02 0.18388387E+03</pdfrwt>
<totfact> 0.89165317E+04</totfact>
</mgrwt>
</event>
<event>
12    1  0.1050690E-001  0.2214184E+03  0.7546771E-02  0.1132971E+00
         21   -1    0    0  503  502  0.00000000000E+00  0.00000000000E+00  0.20620767160E+04  0.20620767160E+04  0.00000000000E+00 0.  1.
         21   -1    0    0  501  503 -0.00000000000E+00 -0.00000000000E+00 -0.30085018156E+03  0.30085018156E+03  0.00000000000E+00 0.  1.
          6    2    1    2  501    0 -0.13932331787E+03  0.54119579021E+01 -0.25325349564E+03  0.33639774899E+03  0.17200533794E+03 0.  0.
         24    2    3    3    0    0 -0.16146833602E+03  0.33105239158E+02 -0.22609901797E+03  0.29148922738E+03  0.81714278772E+02 0.  0.
         -6    2    1    2    0  502  0.13932331787E+03 -0.54119579021E+01  0.20144800301E+04  0.20265291486E+04  0.17102725566E+03 0.  0.
        -24    2    5    5    0    0  0.82529971762E+02  0.16935342582E+02  0.63270517889E+03  0.64339910573E+03  0.80923196858E+02 0.  0.
          5    1    3    3  501    0  0.22145018152E+02 -0.27693281256E+02 -0.27154477678E+02  0.44908521615E+02  0.47000000000E+01 0. -1.
        -13    1    4    4    0    0 -0.31690600239E+02 -0.18901078661E+02 -0.85912760137E+02  0.93501589679E+02  0.00000000000E+00 0.  1.
         14    1    4    4    0    0 -0.12977773578E+03  0.52006317819E+02 -0.14018625783E+03  0.19798763770E+03  0.00000000000E+00 0. -1.
         -5    1    5    5    0  502  0.56793346104E+02 -0.22347300484E+02  0.13817748512E+04  0.13831300428E+04  0.47000000000E+01 0.  1.
         11    1    6    6    0    0  0.94626447502E+02  0.20976531377E+02  0.45355604430E+03  0.46379657691E+03  0.00000000000E+00 0. -1.
        -12    1    6    6    0    0 -0.12096475740E+02 -0.40411887953E+01  0.17914913459E+03  0.17960252882E+03  0.00000000000E+00 0.  1.
<mgrwt>
<rscale>  2 0.22122843E+03</rscale>
<asrwt>0</asrwt>
<pdfrwt beam="1">  1       21 0.31724256E+00 0.22141841E+03</pdfrwt>
<pdfrwt beam="2">  1       21 0.46284645E-01 0.22141841E+03</pdfrwt>
<totfact> 0.11610207E+02</totfact>
</mgrwt>
</event>
<event>
12    1  0.1050690E-001  0.1896438E+03  0.7546771E-02  0.1158790E+00
         21   -1    0    0  501  502  0.00000000000E+00  0.00000000000E+00  0.23226833795E+02  0.23226833795E+02  0.00000000000E+00 0. -1.
         21   -1    0    0  502  503 -0.00000000000E+00 -0.00000000000E+00 -0.21761514961E+04  0.21761514961E+04  0.00000000000E+00 0. -1.
         -6    2    1    2    0  503  0.75558368771E+02  0.11852678662E+02 -0.48577495657E+03  0.52148065915E+03  0.17353736298E+03 0.  0.
        -24    2    3    3    0    0  0.25001373774E+02  0.43079109073E+02 -0.43008601154E+03  0.43990585729E+03  0.77860822172E+02 0.  0.
          6    2    1    2  501    0 -0.75558368771E+02 -0.11852678662E+02 -0.16671497057E+04  0.16778976707E+04  0.17350187056E+03 0.  0.
         24    2    5    5    0    0 -0.83681016027E+02 -0.65424791508E+02 -0.12981434907E+04  0.13049048753E+04  0.79481416185E+02 0.  0.
          5    1    5    5  501    0  0.81226472558E+01  0.53572112846E+02 -0.36900621504E+03  0.37299279539E+03  0.47000000000E+01 0. -1.
        -11    1    6    6    0    0 -0.63277988064E+02 -0.41225776364E+02 -0.45955989016E+03  0.46572412548E+03  0.00000000000E+00 0.  1.
         12    1    6    6    0    0 -0.20403027963E+02 -0.24199015143E+02 -0.83858360051E+03  0.83918074985E+03  0.00000000000E+00 0. -1.
         -5    1    3    3    0  503  0.50556994996E+02 -0.31226430411E+02 -0.55688945036E+02  0.81574801860E+02  0.47000000000E+01 0.  1.
         11    1    4    4    0    0 -0.30632178516E+01  0.15731791679E+02 -0.12086812603E+02  0.20073953570E+02  0.00000000000E+00 0. -1.
        -12    1    4    4    0    0  0.28064591626E+02  0.27347317394E+02 -0.41799919894E+03  0.41983190372E+03  0.00000000000E+00 0.  1.
<mgrwt>
<rscale>  2 0.18963568E+03</rscale>
<asrwt>0</asrwt>
<pdfrwt beam="1">  1       21 0.35733583E-02 0.18964380E+03</pdfrwt>
<pdfrwt beam="2">  1       21 0.33479261E+00 0.18964380E+03</pdfrwt>
<totfact> 0.10197108E+04</totfact>
</mgrwt>
</event>
<event>
12    1  0.1050690E-001  0.2358256E+03  0.7546771E-02  0.1122693E+00
         21   -1    0    0  501  502  0.00000000000E+00  0.00000000000E+00  0.31876826439E+03  0.31876826439E+03  0.00000000000E+00 0. -1.
         21   -1    0    0  502  503 -0.00000000000E+00 -0.00000000000E+00 -0.17686921726E+03  0.17686921726E+03  0.00000000000E+00 0. -1.
         -6    2    1    2    0  503 -0.15996184671E+03  0.18571938645E+02  0.39777078032E+02  0.23864992402E+03  0.17157756553E+03 0.  0.
        -24    2    3    3    0    0 -0.16753932632E+03  0.44442419816E+02  0.61732452596E+00  0.19087674862E+03  0.79931205002E+02 0.  0.
          6    2    1    2  501    0  0.15996184671E+03 -0.18571938645E+02  0.10212196910E+03  0.25698755762E+03  0.17228174277E+03 0.  0.
         24    2    5    5    0    0  0.18194210708E+02 -0.32594049032E+02  0.20724834342E+02  0.92846564135E+02  0.82447343059E+02 0.  0.
          5    1    5    5  501    0  0.14176763600E+03  0.14022110386E+02  0.81397134756E+02  0.16414099349E+03  0.47000000000E+01 0. -1.
        -13    1    6    6    0    0  0.11818007830E+02  0.18986668961E+02 -0.17444393565E+02  0.28363105862E+02  0.00000000000E+00 0.  1.
         14    1    6    6    0    0  0.63762028780E+01 -0.51580717993E+02  0.38169227907E+02  0.64483458272E+02  0.00000000000E+00 0. -1.
         -5    1    3    3    0  503  0.75774796118E+01 -0.25870481170E+02  0.39159753506E+02  0.47773175401E+02  0.47000000000E+01 0.  1.
         11    1    4    4    0    0 -0.87551316030E+02  0.19505112256E+02  0.40101863360E+02  0.98253965760E+02  0.00000000000E+00 0. -1.
        -12    1    4    4    0    0 -0.79988010287E+02  0.24937307560E+02 -0.39484538834E+02  0.92622782861E+02  0.00000000000E+00 0.  1.
<mgrwt>
<rscale>  2 0.23569700E+03</rscale>
<asrwt>0</asrwt>
<pdfrwt beam="1">  1       21 0.49041271E-01 0.23582559E+03</pdfrwt>
<pdfrwt beam="2">  1       21 0.27210649E-01 0.23582559E+03</pdfrwt>
<totfact> 0.50076872E+04</totfact>
</mgrwt>
</event>
<event>
12    1  0.1050690E-001  0.2129744E+03  0.7546771E-02  0.1140641E+00
         21   -1    0    0  503  502  0.00000000000E+00  0.00000000000E+00  0.19907596714E+04  0.19907596714E+04  0.00000000000E+00 0. -1.
         21   -1    0    0  501  503 -0.00000000000E+00 -0.00000000000E+00 -0.28949552057E+02  0.28949552057E+02  0.00000000000E+00 0.  1.
          6    2    1    2  501    0  0.75880067671E+02  0.80254478484E+02  0.49989703973E+03  0.54337383743E+03  0.18209753125E+03 0.  0.
         24    2    3    3    0    0  0.11352436888E+03  0.94560579416E+02  0.35343968819E+03  0.39140803945E+03  0.80319080198E+02 0.  0.
         -6    2    1    2    0  502 -0.75880067671E+02 -0.80254478484E+02  0.14619130796E+04  0.14763353860E+04  0.17371745365E+03 0.  0.
        -24    2    5    5    0    0 -0.18510702456E+02 -0.11236567665E+03  0.10320070888E+04  0.10414059388E+04  0.80740365837E+02 0.  0.
          5    1    3    3  501    0 -0.37644301212E+02 -0.14306100932E+02  0.14645735154E+03  0.15196579799E+03  0.47000000000E+01 0. -1.
        -11    1    4    4    0    0  0.20455913065E+01  0.13609290836E+02  0.19718481264E+01  0.13902712897E+02  0.00000000000E+00 0.  1.
         12    1    4    4    0    0  0.11147877758E+03  0.80951288580E+02  0.35146784006E+03  0.37750532655E+03  0.00000000000E+00 0. -1.
         -5    1    5    5    0  502 -0.57369365215E+02  0.32111198162E+02  0.42990599078E+03  0.43492944717E+03  0.47000000000E+01 0.  1.
         13    1    6    6    0    0  0.10986070287E+02 -0.61261395410E+02  0.78439636184E+03  0.78686168084E+03  0.00000000000E+00 0. -1.
        -14    1    6    6    0    0 -0.29496772742E+02 -0.51104281237E+02  0.24761072697E+03  0.25454425799E+03  0.00000000000E+00 0.  1.
<mgrwt>
<rscale>  2 0.21117179E+03</rscale>
<asrwt>0</asrwt>
<pdfrwt beam="1">  1       21 0.30627061E+00 0.21297436E+03</pdfrwt>
<pdfrwt beam="2">  1       21 0.44537788E-02 0.21297436E+03</pdfrwt>
<totfact> 0.10058305E+04</totfact>
</mgrwt>
</event>
<event>
12    1  0.1050690E-001  0.1750745E+03  0.7546771E-02  0.1172800E+00
         21   -1    0    0  501  502  0.00000000000E+00  0.00000000000E+00  0.15572125500E+04  0.15572125500E+04  0.00000000000E+00 0.  1.
         21   -1    0    0  502  503 -0.00000000000E+00 -0.00000000000E+00 -0.41579291086E+02  0.41579291086E+02  0.00000000000E+00 0.  1.
         -6    2    1    2    0  503 -0.58254168028E+01 -0.26820335917E+02  0.17628820796E+03  0.24805269200E+03  0.17233496408E+03 0.  0.
        -24    2    3    3    0    0 -0.67133933246E+01  0.23253737754E+02  0.21633906127E+02  0.85423529699E+02  0.79014856594E+02 0.  0.
          6    2    1    2  501    0  0.58254168028E+01  0.26820335917E+02  0.13393450510E+04  0.13507391491E+04  0.17290985354E+03 0.  0.
         24    2    5    5    0    0 -0.40738689449E+02 -0.37146744643E+02  0.75676593687E+03  0.76279313324E+03  0.78225056377E+02 0.  0.
          5    1    5    5  501    0  0.46564106252E+02  0.63967080560E+02  0.58257911413E+03  0.58794601589E+03  0.47000000000E+01 0. -1.
        -11    1    6    6    0    0 -0.69508417438E+01 -0.23684710154E+02  0.64040244354E+03  0.64087796763E+03  0.00000000000E+00 0.  1.
         12    1    6    6    0    0 -0.33787847705E+02 -0.13462034489E+02  0.11636349333E+03  0.12191516561E+03  0.00000000000E+00 0. -1.
         -5    1    3    3    0  503  0.88797652188E+00 -0.50074073671E+02  0.15465430183E+03  0.16262916230E+03  0.47000000000E+01 0.  1.
         13    1    4    4    0    0 -0.42234084175E+02  0.60688794658E+01  0.64932361242E+01  0.43159139002E+02  0.00000000000E+00 0. -1.
        -14    1    4    4    0    0  0.35520690850E+02  0.17184858288E+02  0.15140670003E+02  0.42264390697E+02  0.00000000000E+00 0.  1.
<mgrwt>
<rscale>  2 0.17493240E+03</rscale>
<asrwt>0</asrwt>
<pdfrwt beam="1">  1       21 0.23957112E+00 0.17507451E+03</pdfrwt>
<pdfrwt beam="2">  1       21 0.63968152E-02 0.17507451E+03</pdfrwt>
<totfact> 0.13760899E+04</totfact>
</mgrwt>
</event>
<event>
12    1  0.1050690E-001  0.1736313E+03  0.7546771E-02  0.1174242E+00
         21   -1    0    0  501  502  0.00000000000E+00  0.00000000000E+00  0.37619361659E+02  0.37619361659E+02  0.00000000000E+00 0.  1.
         21   -1    0    0  502  503 -0.00000000000E+00 -0.00000000000E+00 -0.14119208949E+04  0.14119208949E+04  0.00000000000E+00 0.  1.
         -6    2    1    2    0  503 -0.11779015722E+02  0.14133669437E+02 -0.11652272523E+04  0.11780926937E+04  0.17265381432E+03 0.  0.
        -24    2    3    3    0    0  0.23518674017E+02 -0.50902668645E+02 -0.54922207641E+03  0.55764114933E+03  0.78578320871E+02 0.  0.
          6    2    1    2  501    0  0.11779015722E+02 -0.14133669437E+02 -0.20907428095E+03  0.27144756288E+03  0.17214301791E+03 0.  0.
         24    2    5    5    0    0 -0.24779683136E+01  0.57792485281E+02 -0.13006010005E+03  0.16354962912E+03  0.80540299710E+02 0.  0.
          5    1    5    5  501    0  0.14256984036E+02 -0.71926154718E+02 -0.79014180896E+02  0.10789793376E+03  0.47000000000E+01 0. -1.
        -11    1    6    6    0    0  0.34000303271E+02  0.21452279327E+02 -0.27253360729E+02  0.48569193754E+02  0.00000000000E+00 0.  1.
         12    1    6    6    0    0 -0.36478271584E+02  0.36340205954E+02 -0.10280673932E+03  0.11498043537E+03  0.00000000000E+00 0. -1.
         -5    1    3    3    0  503 -0.35297689739E+02  0.65036338082E+02 -0.61600517586E+03  0.62045154432E+03  0.47000000000E+01 0.  1.
         13    1    4    4    0    0  0.28339078189E+02  0.12883216751E+02 -0.22764114592E+03  0.22975981359E+03  0.00000000000E+00 0. -1.
        -14    1    4    4    0    0 -0.48204041723E+01 -0.63785885396E+02 -0.32158093050E+03  0.32788133575E+03  0.00000000000E+00 0.  1.
<mgrwt>
<rscale>  2 0.17350423E+03</rscale>
<asrwt>0</asrwt>
<pdfrwt beam="1">  1       21 0.57875939E-02 0.17363135E+03</pdfrwt>
<pdfrwt beam="2">  1       21 0.21721861E+00 0.17363135E+03</pdfrwt>
<totfact> 0.22285265E+04</totfact>
</mgrwt>
</event>
<event>
12    1  0.1050690E-001  0.2125130E+03  0.7546771E-02  0.1139826E+00
         21   -1    0    0  503  502  0.00000000000E+00  0.00000000000E+00  0.18287632931E+03  0.18287632931E+03  0.00000000000E+00 0.  1.
         21   -1    0    0  501  503 -0.00000000000E+00 -0.00000000000E+00 -0.38957054329E+03  0.38957054329E+03  0.00000000000E+00 0.  1.
          6    2    1    2  501    0 -0.31711565493E+02 -0.11789751279E+03 -0.27718563188E+03  0.34854778083E+03  0.17247676392E+03 0.  0.
         24    2    3    3    0    0 -0.56242328489E+02 -0.14459009159E+03 -0.23230231028E+03  0.29066121370E+03  0.80312413045E+02 0.  0.
         -6    2    1    2    0  502  0.31711565493E+02  0.11789751279E+03  0.70491417905E+02  0.22389909176E+03  0.17394342869E+03 0.  0.
        -24    2    5    5    0    0  0.31642668750E+02 -0.87404460564E+00  0.49027616162E+01  0.88139563821E+02  0.82112868659E+02 0.  0.
          5    1    3    3  501    0  0.24530762996E+02  0.26692578798E+02 -0.44883321607E+02  0.57886567134E+02  0.47000000000E+01 0. -1.
        -11    1    4    4    0    0  0.31309868286E+01 -0.96865008090E+02 -0.14933678746E+03  0.17802839369E+03  0.00000000000E+00 0.  1.
         12    1    4    4    0    0 -0.59373315318E+02 -0.47725083498E+02 -0.82965522813E+02  0.11263282001E+03  0.00000000000E+00 0. -1.
         -5    1    5    5    0  502  0.68896742477E-01  0.11877155740E+03  0.65588656289E+02  0.13575952794E+03  0.47000000000E+01 0.  1.
         13    1    6    6    0    0  0.24683416011E+02 -0.40116924503E+02  0.94007612793E+01  0.48031374852E+02  0.00000000000E+00 0. -1.
        -14    1    6    6    0    0  0.69592527395E+01  0.39242879898E+02 -0.44979996631E+01  0.40108188969E+02  0.00000000000E+00 0.  1.
<mgrwt>
<rscale>  2 0.21221264E+03</rscale>
<asrwt>0</asrwt>
<pdfrwt beam="1">  1       21 0.28134820E-01 0.21251297E+03</pdfrwt>
<pdfrwt beam="2">  1       21 0.59933929E-01 0.21251297E+03</pdfrwt>
<totfact> 0.31017329E+04</totfact>
</mgrwt>
</event>
<event>
12    1  0.1050690E-001  0.2179953E+03  0.7546771E-02  0.1135605E+00
         21   -1    0    0  501  502  0.00000000000E+00  0.00000000000E+00  0.63365772148E+03  0.63365772148E+03  0.00000000000E+00 0.  1.
         21   -1    0    0  502  503 -0.00000000000E+00 -0.00000000000E+00 -0.91340268970E+02  0.91340268970E+02  0.00000000000E+00 0.  1.
         -6    2    1    2    0  503  0.13377109645E+02  0.13336470320E+03  0.42693249689E+03  0.47936763224E+03  0.17192114130E+03 0.  0.
        -24    2    3    3    0    0  0.42019104370E+02  0.14265261072E+03  0.41236675558E+03  0.44559071842E+03  0.79933564612E+02 0.  0.
          6    2    1    2  501    0 -0.13377109645E+02 -0.13336470320E+03  0.11538495563E+03  0.24563035821E+03  0.17045672109E+03 0.  0.
         24    2    5    5    0    0 -0.59611744850E+02 -0.85321900859E+02  0.12009720990E+03  0.17862254008E+03  0.81543148763E+02 0.  0.
          5    1    5    5  501    0  0.46234635205E+02 -0.48042802340E+02 -0.47122542741E+01  0.67007818122E+02  0.47000000000E+01 0. -1.
        -13    1    6    6    0    0 -0.44193268042E+02  0.13254840892E+01  0.39951898278E+02  0.59589898677E+02  0.00000000000E+00 0.  1.
         14    1    6    6    0    0 -0.15418476808E+02 -0.86647384948E+02  0.80145311623E+02  0.11903264141E+03  0.00000000000E+00 0. -1.
         -5    1    3    3    0  503 -0.28641994724E+02 -0.92879075244E+01  0.14565741303E+02  0.33776913827E+02  0.47000000000E+01 0.  1.
         11    1    4    4    0    0 -0.18476456841E+02  0.35451020616E+02  0.57907309451E+02  0.70366261859E+02  0.00000000000E+00 0. -1.
        -12    1    4    4    0    0  0.60495561211E+02  0.10720159011E+03  0.35445944613E+03  0.37522445656E+03  0.00000000000E+00 0.  1.
<mgrwt>
<rscale>  2 0.21770651E+03</rscale>
<asrwt>0</asrwt>
<pdfrwt beam="1">  1       21 0.97485801E-01 0.21799534E+03</pdfrwt>
<pdfrwt beam="2">  1       21 0.14052349E-01 0.21799534E+03</pdfrwt>
<totfact> 0.37991130E+04</totfact>
</mgrwt>
</event>
<event>
12    1  0.1050690E-001  0.2075868E+03  0.7546771E-02  0.1143822E+00
         21   -1    0    0  503  502  0.00000000000E+00  0.00000000000E+00  0.59034447650E+03  0.59034447650E+03  0.00000000000E+00 0.  1.
         21   -1    0    0  501  503 -0.00000000000E+00 -0.00000000000E+00 -0.86629785094E+02  0.86629785094E+02  0.00000000000E+00 0. -1.
          6    2    1    2  501    0 -0.11382621301E+03 -0.16427562275E+02  0.11393989111E+03  0.23536732336E+03  0.17084849005E+03 0.  0.
         24    2    3    3    0    0 -0.61648277244E+02 -0.50738835324E+02  0.10129189212E+02  0.11412973733E+03  0.80920065325E+02 0.  0.
         -6    2    1    2    0  502  0.11382621301E+03  0.16427562275E+02  0.38977480030E+03  0.44160693823E+03  0.17281788500E+03 0.  0.
        -24    2    5    5    0    0 -0.12313073207E+02  0.13689117782E+02  0.16090497679E+03  0.18022196407E+03  0.79060363390E+02 0.  0.
          5    1    3    3  501    0 -0.52177935765E+02  0.34311273049E+02  0.10381070190E+03  0.12123758603E+03  0.47000000000E+01 0. -1.
        -11    1    4    4    0    0 -0.27577655439E+02 -0.30265118786E+02  0.45294602141E+02  0.61058213844E+02  0.00000000000E+00 0.  1.
         12    1    4    4    0    0 -0.34070621804E+02 -0.20473716538E+02 -0.35165412928E+02  0.53071523489E+02  0.00000000000E+00 0. -1.
         -5    1    5    5    0  502  0.12613928622E+03  0.27384444933E+01  0.22886982351E+03  0.26138497416E+03  0.47000000000E+01 0.  1.
         13    1    6    6    0    0 -0.31938476773E+02  0.80876558376E+01  0.15571632208E+03  0.15916359332E+03  0.00000000000E+00 0. -1.
        -14    1    6    6    0    0  0.19625403566E+02  0.56014619445E+01  0.51886547127E+01  0.21058370753E+02  0.00000000000E+00 0.  1.
<mgrwt>
<rscale>  2 0.20717645E+03</rscale>
<asrwt>0</asrwt>
<pdfrwt beam="1">  1       21 0.90822224E-01 0.20758683E+03</pdfrwt>
<pdfrwt beam="2">  1       21 0.13327660E-01 0.20758683E+03</pdfrwt>
<totfact> 0.49619604E+04</totfact>
</mgrwt>
</event>
<event>
12    1  0.1050690E-001  0.1944153E+03  0.7546771E-02  0.1154550E+00
         21   -1    0    0  501  502  0.00000000000E+00  0.00000000000E+00  0.42194881188E+03  0.42194881188E+03  0.00000000000E+00 0.  1.
         21   -1    0    0  502  503 -0.00000000000E+00 -0.00000000000E+00 -0.96221601701E+02  0.96221601701E+02  0.00000000000E+00 0.  1.
         -6    2    1    2    0  503 -0.41269575923E+02  0.78319966592E+02  0.94681927416E+02  0.21624515691E+03  0.17308987678E+03 0.  0.
        -24    2    3    3    0    0 -0.16372205294E+02 -0.59907954234E+01  0.93705929017E+02  0.12820410837E+03  0.85741200907E+02 0.  0.
          6    2    1    2  501    0  0.41269575923E+02 -0.78319966592E+02  0.23104528276E+03  0.30192525667E+03  0.17303104596E+03 0.  0.
         24    2    5    5    0    0 -0.23252093849E+02  0.47909760231E+01  0.81347102827E+02  0.11888944125E+03  0.83389056726E+02 0.  0.
          5    1    5    5  501    0  0.64521669772E+02 -0.83110942615E+02  0.14969817993E+03  0.18303581542E+03  0.47000000000E+01 0. -1.
        -11    1    6    6    0    0 -0.17709039885E+02  0.94538415904E+01  0.98365845745E+02  0.10039335050E+03  0.00000000000E+00 0.  1.
         12    1    6    6    0    0 -0.55430539642E+01 -0.46628655673E+01 -0.17018742918E+02  0.18496090750E+02  0.00000000000E+00 0. -1.
         -5    1    3    3    0  503 -0.24897370629E+02  0.84310762015E+02  0.97599839917E+00  0.88041048544E+02  0.47000000000E+01 0.  1.
         13    1    4    4    0    0 -0.10114039448E+02  0.37891596984E+02  0.63254128144E+02  0.74425477111E+02  0.00000000000E+00 0. -1.
        -14    1    4    4    0    0 -0.62581658462E+01 -0.43882392408E+02  0.30451800873E+02  0.53778631255E+02  0.00000000000E+00 0.  1.
<mgrwt>
<rscale>  2 0.19440218E+03</rscale>
<asrwt>0</asrwt>
<pdfrwt beam="1">  1       21 0.64915201E-01 0.19441528E+03</pdfrwt>
<pdfrwt beam="2">  1       21 0.14803324E-01 0.19441528E+03</pdfrwt>
<totfact> 0.87764442E+04</totfact>
</mgrwt>
</event>
<event>
12    1  0.1050690E-001  0.1807109E+03  0.7546771E-02  0.1167232E+00
         21   -1    0    0  501  502  0.00000000000E+00  0.00000000000E+00  0.15385758685E+03  0.15385758685E+03  0.00000000000E+00 0. -1.
         21   -1    0    0  502  503 -0.00000000000E+00 -0.00000000000E+00 -0.21169139485E+03  0.21169139485E+03  0.00000000000E+00 0.  1.
         -6    2    1    2    0  503 -0.45463524022E+02 -0.24232036770E+02 -0.29484800881E+02  0.18310049557E+03  0.17321176164E+03 0.  0.
        -24    2    3    3    0    0 -0.11083369286E+02  0.52237569739E+02 -0.98225654216E+01  0.96854978220E+02  0.80204733324E+02 0.  0.
          6    2    1    2  501    0  0.45463524022E+02  0.24232036770E+02 -0.28349007122E+02  0.18244848613E+03  0.17271265230E+03 0.  0.
         24    2    5    5    0    0  0.16653970315E+02  0.72847456037E+02 -0.51199740595E+02  0.12131179179E+03  0.80690958674E+02 0.  0.
          5    1    5    5  501    0  0.28809553707E+02 -0.48615419267E+02  0.22850733474E+02  0.61136694346E+02  0.47000000000E+01 0. -1.
        -11    1    6    6    0    0  0.21194574159E+02  0.15185853279E+02 -0.57494346782E+02  0.63130183158E+02  0.00000000000E+00 0.  1.
         12    1    6    6    0    0 -0.45406038441E+01  0.57661602758E+02  0.62946061869E+01  0.58181608631E+02  0.00000000000E+00 0. -1.
         -5    1    3    3    0  503 -0.34380154735E+02 -0.76469606510E+02 -0.19662235459E+02  0.86245517348E+02  0.47000000000E+01 0.  1.
         11    1    4    4    0    0  0.29406706464E+02  0.30233209282E+02 -0.24144335063E+02  0.48597841970E+02  0.00000000000E+00 0. -1.
        -12    1    4    4    0    0 -0.40490075750E+02  0.22004360458E+02  0.14321769642E+02  0.48257136250E+02  0.00000000000E+00 0.  1.
<mgrwt>
<rscale>  2 0.18059122E+03</rscale>
<asrwt>0</asrwt>
<pdfrwt beam="1">  1       21 0.23670398E-01 0.18071092E+03</pdfrwt>
<pdfrwt beam="2">  1       21 0.32567907E-01 0.18071092E+03</pdfrwt>
<totfact> 0.15307593E+05</totfact>
</mgrwt>
</event>
<event>
12    1  0.1050690E-001  0.2947118E+03  0.7546771E-02  0.1087932E+00
         21   -1    0    0  503  502  0.00000000000E+00  0.00000000000E+00  0.36019850642E+03  0.36019850642E+03  0.00000000000E+00 0. -1.
         21   -1    0    0  501  503 -0.00000000000E+00 -0.00000000000E+00 -0.41916938688E+03  0.41916938688E+03  0.00000000000E+00 0.  1.
          6    2    1    2  501    0  0.20414217864E+03 -0.12326530974E+03  0.22456344973E+03  0.37040978222E+03  0.17293437519E+03 0.  0.
         24    2    3    3    0    0  0.22416612832E+03 -0.91101140142E+02  0.20715507323E+03  0.32844987350E+03  0.80101337185E+02 0.  0.
         -6    2    1    2    0  502 -0.20414217864E+03  0.12326530974E+03 -0.28353433019E+03  0.40895811108E+03  0.17316655143E+03 0.  0.
        -24    2    5    5    0    0 -0.70408085992E+02  0.70630345781E+02 -0.21313173636E+03  0.24885232672E+03  0.80971594714E+02 0.  0.
          5    1    3    3  501    0 -0.20023949682E+02 -0.32164169602E+02  0.17408376506E+02  0.41959908718E+02  0.47000000000E+01 0. -1.
        -11    1    4    4    0    0  0.11540354628E+03 -0.52188774638E+02  0.56706569852E+02  0.13877060840E+03  0.00000000000E+00 0.  1.
         12    1    4    4    0    0  0.10876258205E+03 -0.38912365505E+02  0.15044850338E+03  0.18967926510E+03  0.00000000000E+00 0. -1.
         -5    1    5    5    0  502 -0.13373409265E+03  0.52634963963E+02 -0.70402593826E+02  0.16010578436E+03  0.47000000000E+01 0.  1.
         11    1    6    6    0    0  0.54936541986E+01  0.12414898607E+02  0.17046021397E+01  0.13682675628E+02  0.00000000000E+00 0. -1.
        -12    1    6    6    0    0 -0.75901740191E+02  0.58215447174E+02 -0.21483633850E+03  0.23516965109E+03  0.00000000000E+00 0.  1.
<mgrwt>
<rscale>  2 0.29467766E+03</rscale>
<asrwt>0</asrwt>
<pdfrwt beam="1">  1       21 0.55415155E-01 0.29471176E+03</pdfrwt>
<pdfrwt beam="2">  1       21 0.64487598E-01 0.29471176E+03</pdfrwt>
<totfact> 0.63936200E+03</totfact>
</mgrwt>
</event>
<event>
12    1  0.1050690E-001  0.2251263E+03  0.7546771E-02  0.1130182E+00
         21   -1    0    0  501  502  0.00000000000E+00  0.00000000000E+00  0.13866023628E+03  0.13866023628E+03  0.00000000000E+00 0.  1.
         21   -1    0    0  502  503 -0.00000000000E+00 -0.00000000000E+00 -0.36803905970E+03  0.36803905970E+03  0.00000000000E+00 0.  1.
         -6    2    1    2    0  503 -0.74220941357E+02 -0.12304181925E+03 -0.91326086797E+02  0.24261522645E+03  0.17283997383E+03 0.  0.
        -24    2    3    3    0    0 -0.43910786676E+01 -0.55290261301E+02 -0.10600058844E+03  0.14410677845E+03  0.80338933771E+02 0.  0.
          6    2    1    2  501    0  0.74220941357E+02  0.12304181925E+03 -0.13805273663E+03  0.26408406953E+03  0.17330262626E+03 0.  0.
         24    2    5    5    0    0  0.11004808308E+03  0.93395650190E+02 -0.13542602709E+03  0.21727094074E+03  0.89627701130E+02 0.  0.
          5    1    5    5  501    0 -0.35827141727E+02  0.29646169061E+02 -0.26267095354E+01  0.46813128792E+02  0.47000000000E+01 0. -1.
        -13    1    6    6    0    0  0.55692907325E+02  0.64261772431E+02 -0.21482242701E+02  0.87708392265E+02  0.00000000000E+00 0.  1.
         14    1    6    6    0    0  0.54355175760E+02  0.29133877759E+02 -0.11394378439E+03  0.12956254847E+03  0.00000000000E+00 0. -1.
         -5    1    3    3    0  503 -0.69829862690E+02 -0.67751557949E+02  0.14674501647E+02  0.98508447995E+02  0.47000000000E+01 0.  1.
         13    1    4    4    0    0  0.11437402698E+01  0.20380064518E+02 -0.33096814580E+02  0.38885142496E+02  0.00000000000E+00 0. -1.
        -14    1    4    4    0    0 -0.55348189374E+01 -0.75670325819E+02 -0.72903773864E+02  0.10522163596E+03  0.00000000000E+00 0.  1.
<mgrwt>
<rscale>  2 0.22503723E+03</rscale>
<asrwt>0</asrwt>
<pdfrwt beam="1">  1       21 0.21332344E-01 0.22512627E+03</pdfrwt>
<pdfrwt beam="2">  1       21 0.56621393E-01 0.22512627E+03</pdfrwt>
<totfact> 0.59119441E+04</totfact>
</mgrwt>
</event>
<event>
12    1  0.1050690E-001  0.1929015E+03  0.7546771E-02  0.1156202E+00
         21   -1    0    0  503  502  0.00000000000E+00  0.00000000000E+00  0.83230149260E+02  0.83230149260E+02  0.00000000000E+00 0.  1.
         21   -1    0    0  501  503 -0.00000000000E+00 -0.00000000000E+00 -0.51328377739E+03  0.51328377739E+03  0.00000000000E+00 0.  1.
          6    2    1    2  501    0 -0.25493334617E+02 -0.77842290196E+02 -0.32562024425E+03  0.37846996831E+03  0.17464719062E+03 0.  0.
         24    2    3    3    0    0  0.24102879616E+02 -0.10254593258E+03 -0.26329058340E+03  0.29494074566E+03  0.81064758390E+02 0.  0.
         -6    2    1    2    0  502  0.25493334617E+02  0.77842290196E+02 -0.10443338388E+03  0.21804395834E+03  0.17299567581E+03 0.  0.
        -24    2    5    5    0    0 -0.46604494849E+02  0.12204243520E+02 -0.63872270090E+02  0.11233802598E+03  0.78862175306E+02 0.  0.
          5    1    3    3  501    0 -0.49596214233E+02  0.24703642382E+02 -0.62329660853E+02  0.83529222643E+02  0.47000000000E+01 0. -1.
        -13    1    4    4    0    0  0.24400983996E+02 -0.47312341424E+02 -0.21525736528E+03  0.22174219035E+03  0.00000000000E+00 0.  1.
         14    1    4    4    0    0 -0.29810437966E+00 -0.55233591155E+02 -0.48033218113E+02  0.73198555316E+02  0.00000000000E+00 0. -1.
         -5    1    5    5    0  502  0.72097829466E+02  0.65638046676E+02 -0.40561113787E+02  0.10570593236E+03  0.47000000000E+01 0.  1.
         13    1    6    6    0    0 -0.19616845797E+02 -0.75589622175E+01  0.15556748528E+02  0.26152838729E+02  0.00000000000E+00 0. -1.
        -14    1    6    6    0    0 -0.26987649053E+02  0.19763205737E+02 -0.79429018618E+02  0.86185187248E+02  0.00000000000E+00 0.  1.
<mgrwt>
<rscale>  2 0.19252688E+03</rscale>
<asrwt>0</asrwt>
<pdfrwt beam="1">  1       21 0.12804638E-01 0.19290146E+03</pdfrwt>
<pdfrwt beam="2">  1       21 0.78966736E-01 0.19290146E+03</pdfrwt>
<totfact> 0.73977423E+04</totfact>
</mgrwt>
</event>
<event>
12    1  0.1050690E-001  0.2603847E+03  0.7546771E-02  0.1108104E+00
         21   -1    0    0  501  502  0.00000000000E+00  0.00000000000E+00  0.37732115274E+03  0.37732115274E+03  0.00000000000E+00 0. -1.
         21   -1    0    0  502  503 -0.00000000000E+00 -0.00000000000E+00 -0.18873954535E+03  0.18873954535E+03  0.00000000000E+00 0.  1.
         -6    2    1    2    0  503 -0.18453414969E+03  0.22663773149E+02  0.14773189308E+02  0.25299593706E+03  0.17094501465E+03 0.  0.
        -24    2    3    3    0    0 -0.13572576140E+03 -0.56145218098E+01  0.68322524931E+02  0.17507583646E+03  0.86778891071E+02 0.  0.
          6    2    1    2  501    0  0.18453414969E+03 -0.22663773149E+02  0.17380841809E+03  0.31306476103E+03  0.18230106798E+03 0.  0.
         24    2    5    5    0    0  0.57800129746E+02 -0.54909530220E+02  0.27133605445E+02  0.11650207046E+03  0.80502101647E+02 0.  0.
          5    1    5    5  501    0  0.12673401994E+03  0.32245757071E+02  0.14667481264E+03  0.19656269057E+03  0.47000000000E+01 0. -1.
        -11    1    6    6    0    0  0.18946686846E+02  0.10247003593E+02  0.34087125386E+02  0.40322576085E+02  0.00000000000E+00 0.  1.
         12    1    6    6    0    0  0.38853442900E+02 -0.65156533813E+02 -0.69535199408E+01  0.76179494375E+02  0.00000000000E+00 0. -1.
         -5    1    3    3    0  503 -0.48808388287E+02  0.28278294959E+02 -0.53549335623E+02  0.77920100607E+02  0.47000000000E+01 0.  1.
         13    1    4    4    0    0 -0.11331947294E+03  0.13875310401E+02  0.16506115452E+02  0.11535284579E+03  0.00000000000E+00 0. -1.
        -14    1    4    4    0    0 -0.22406288461E+02 -0.19489832211E+02  0.51816409480E+02  0.59722990661E+02  0.00000000000E+00 0.  1.
<mgrwt>
<rscale>  2 0.25840715E+03</rscale>
<asrwt>0</asrwt>
<pdfrwt beam="1">  1       21 0.58049408E-01 0.26038467E+03</pdfrwt>
<pdfrwt beam="2">  1       21 0.29036853E-01 0.26038467E+03</pdfrwt>
<totfact> 0.30551079E+04</totfact>
</mgrwt>
</event>
<event>
12    1  0.1050690E-001  0.2509568E+03  0.7546771E-02  0.1112958E+00
         21   -1    0    0  501  502  0.00000000000E+00  0.00000000000E+00  0.33519532575E+04  0.33519532575E+04  0.00000000000E+00 0.  1.
         21   -1    0    0  502  503 -0.00000000000E+00 -0.00000000000E+00 -0.19215547235E+02  0.19215547235E+02  0.00000000000E+00 0. -1.
         -6    2    1    2    0  503 -0.96020904160E+02 -0.15214161761E+03  0.13764020892E+04  0.13988026132E+04  0.17262373438E+03 0.  0.
        -24    2    3    3    0    0 -0.39673142019E+02 -0.14994978850E+03  0.75247397539E+03  0.77231378200E+03  0.78693055287E+02 0.  0.
          6    2    1    2  501    0  0.96020904160E+02  0.15214161761E+03  0.19563356211E+04  0.19723661916E+04  0.17496355463E+03 0.  0.
         24    2    5    5    0    0  0.12617863651E+03  0.15361605236E+03  0.15366000542E+04  0.15515197839E+04  0.80962789279E+02 0.  0.
          5    1    5    5  501    0 -0.30157732354E+02 -0.14744347469E+01  0.41973556687E+03  0.42084640770E+03  0.47000000000E+01 0. -1.
        -13    1    6    6    0    0  0.12841910055E+03  0.10603001519E+03  0.11499914256E+04  0.11619871378E+04  0.00000000000E+00 0.  1.
         14    1    6    6    0    0 -0.22404640374E+01  0.47586037165E+02  0.38660862866E+03  0.38953264608E+03  0.00000000000E+00 0. -1.
         -5    1    3    3    0  503 -0.56347762141E+02 -0.21918291147E+01  0.62392811377E+03  0.62648883116E+03  0.47000000000E+01 0.  1.
         11    1    4    4    0    0 -0.38611223276E+02 -0.13551535625E+03  0.73972480851E+03  0.75302591633E+03  0.00000000000E+00 0. -1.
        -12    1    4    4    0    0 -0.10619187427E+01 -0.14434432247E+02  0.12749166885E+02  0.19287865666E+02  0.00000000000E+00 0.  1.
<mgrwt>
<rscale>  2 0.25054943E+03</rscale>
<asrwt>0</asrwt>
<pdfrwt beam="1">  1       21 0.51568465E+00 0.25095683E+03</pdfrwt>
<pdfrwt beam="2">  1       21 0.29562407E-02 0.25095683E+03</pdfrwt>
<totfact> 0.87528344E+02</totfact>
</mgrwt>
</event>
<event>
12    1  0.1050690E-001  0.1936128E+03  0.7546771E-02  0.1156948E+00
         21   -1    0    0  503  502  0.00000000000E+00  0.00000000000E+00  0.15077966100E+02  0.15077966100E+02  0.00000000000E+00 0.  1.
         21   -1    0    0  501  503 -0.00000000000E+00 -0.00000000000E+00 -0.31025088607E+04  0.31025088607E+04  0.00000000000E+00 0. -1.
          6    2    1    2  501    0 -0.70297647474E+02  0.46516124737E+02 -0.22670254902E+04  0.22746449919E+04  0.16583050644E+03 0.  0.
         24    2    3    3    0    0 -0.52041305848E+02  0.16293980592E+02 -0.65649271133E+03  0.66371836607E+03  0.81028378413E+02 0.  0.
         -6    2    1    2    0  502  0.70297647474E+02 -0.46516124737E+02 -0.82040540439E+03  0.84294183489E+03  0.17429974283E+03 0.  0.
        -24    2    5    5    0    0  0.92794815287E+02 -0.56933230762E+02 -0.79558573096E+03  0.80754769912E+03  0.85582477974E+02 0.  0.
          5    1    3    3  501    0 -0.18256341626E+02  0.30222144145E+02 -0.16105327789E+04  0.16109266259E+04  0.47000000000E+01 0. -1.
        -11    1    4    4    0    0  0.39954543895E+01  0.26683830131E+02 -0.40280982423E+03  0.40371245329E+03  0.00000000000E+00 0.  1.
         12    1    4    4    0    0 -0.56036760238E+02 -0.10389849539E+02 -0.25368288711E+03  0.26000591278E+03  0.00000000000E+00 0. -1.
         -5    1    5    5    0  502 -0.22497167813E+02  0.10417106025E+02 -0.24819673425E+02  0.35394135764E+02  0.47000000000E+01 0.  1.
         13    1    6    6    0    0  0.28236905087E+02  0.18402311467E+02 -0.11735918072E+03  0.12210301051E+03  0.00000000000E+00 0. -1.
        -14    1    6    6    0    0  0.64557910200E+02 -0.75335542229E+02 -0.67822655025E+03  0.68544468862E+03  0.00000000000E+00 0.  1.
<mgrwt>
<rscale>  2 0.19168728E+03</rscale>
<asrwt>0</asrwt>
<pdfrwt beam="1">  1       21 0.23196858E-02 0.19361278E+03</pdfrwt>
<pdfrwt beam="2">  1       21 0.47730933E+00 0.19361278E+03</pdfrwt>
<totfact> 0.26264958E+03</totfact>
</mgrwt>
</event>
<event>
12    1  0.1050690E-001  0.1937319E+03  0.7546771E-02  0.1156687E+00
         21   -1    0    0  503  502  0.00000000000E+00  0.00000000000E+00  0.29570337817E+03  0.29570337817E+03  0.00000000000E+00 0.  1.
         21   -1    0    0  501  503 -0.00000000000E+00 -0.00000000000E+00 -0.76057817908E+03  0.76057817908E+03  0.00000000000E+00 0.  1.
          6    2    1    2  501    0 -0.35688331821E+02 -0.62483256271E+02 -0.71551188499E+03  0.73949927387E+03  0.17240679845E+03 0.  0.
         24    2    3    3    0    0 -0.20613882824E+02  0.25077120175E+01 -0.16411654597E+03  0.18406253142E+03  0.80706592214E+02 0.  0.
         -6    2    1    2    0  502  0.35688331821E+02  0.62483256271E+02  0.25063708408E+03  0.31678228339E+03  0.17987287959E+03 0.  0.
        -24    2    5    5    0    0  0.51591733673E+02  0.21300509654E+02  0.38984080603E+02  0.10052313170E+03  0.73957574131E+02 0.  0.
          5    1    3    3  501    0 -0.15074448997E+02 -0.64990968288E+02 -0.55139533902E+03  0.55543674245E+03  0.47000000000E+01 0. -1.
        -13    1    4    4    0    0  0.12940793718E+02 -0.26834568701E+02 -0.10994322942E+03  0.11390817317E+03  0.00000000000E+00 0.  1.
         14    1    4    4    0    0 -0.33554676541E+02  0.29342280719E+02 -0.54173316553E+02  0.70154358253E+02  0.00000000000E+00 0. -1.
         -5    1    5    5    0  502 -0.15903401852E+02  0.41182746617E+02  0.21165300347E+03  0.21625915169E+03  0.47000000000E+01 0.  1.
         11    1    6    6    0    0  0.26940954104E+02 -0.25120694166E+02  0.29323904386E+02  0.47082434642E+02  0.00000000000E+00 0. -1.
        -12    1    6    6    0    0  0.24650779569E+02  0.46421203820E+02  0.96601762177E+01  0.53440697057E+02  0.00000000000E+00 0.  1.
<mgrwt>
<rscale>  2 0.19198049E+03</rscale>
<asrwt>0</asrwt>
<pdfrwt beam="1">  1       21 0.45492828E-01 0.19373195E+03</pdfrwt>
<pdfrwt beam="2">  1       21 0.11701203E+00 0.19373195E+03</pdfrwt>
<totfact> 0.26015631E+03</totfact>
</mgrwt>
</event>
<event>
12    1  0.1050690E-001  0.1938074E+03  0.7546771E-02  0.1155143E+00
         21   -1    0    0  503  502  0.00000000000E+00  0.00000000000E+00  0.41483652901E+03  0.41483652901E+03  0.00000000000E+00 0. -1.
         21   -1    0    0  501  503 -0.00000000000E+00 -0.00000000000E+00 -0.60139604930E+03  0.60139604930E+03  0.00000000000E+00 0. -1.
          6    2    1    2  501    0  0.67689536313E+02 -0.51494108509E+02 -0.56164366177E+03  0.59403662129E+03  0.17378834280E+03 0.  0.
         24    2    3    3    0    0  0.50678985217E+02 -0.37398420847E+02 -0.14718832600E+03  0.17896631085E+03  0.79984596550E+02 0.  0.
         -6    2    1    2    0  502 -0.67689536313E+02  0.51494108509E+02  0.37508414149E+03  0.42219595702E+03  0.17414877660E+03 0.  0.
        -24    2    5    5    0    0 -0.73421806748E+02 -0.20522516587E+02  0.15265417622E+03  0.18828051789E+03  0.79588444552E+02 0.  0.
          5    1    3    3  501    0  0.17010551096E+02 -0.14095687663E+02 -0.41445533577E+03  0.41507031044E+03  0.47000000000E+01 0. -1.
        -13    1    4    4    0    0 -0.11613742134E+02 -0.28133570437E+02 -0.18299524247E+02  0.35514072979E+02  0.00000000000E+00 0.  1.
         14    1    4    4    0    0  0.62292727352E+02 -0.92648504098E+01 -0.12888880175E+03  0.14345223787E+03  0.00000000000E+00 0. -1.
         -5    1    5    5    0  502  0.57322704349E+01  0.72016625096E+02  0.22242996527E+03  0.23391543913E+03  0.47000000000E+01 0.  1.
         13    1    6    6    0    0 -0.46586088151E+02 -0.50556386328E+02  0.10914001734E+03  0.12898742261E+03  0.00000000000E+00 0. -1.
        -14    1    6    6    0    0 -0.26835718598E+02  0.30033869741E+02  0.43514158881E+02  0.59293095276E+02  0.00000000000E+00 0.  1.
<mgrwt>
<rscale>  2 0.19372641E+03</rscale>
<asrwt>0</asrwt>
<pdfrwt beam="1">  1       21 0.63821005E-01 0.19380741E+03</pdfrwt>
<pdfrwt beam="2">  1       21 0.92522469E-01 0.19380741E+03</pdfrwt>
<totfact> 0.22323915E+03</totfact>
</mgrwt>
</event>
<event>
12    1  0.1050690E-001  0.2527902E+03  0.7546771E-02  0.1111639E+00
         21   -1    0    0  501  502  0.00000000000E+00  0.00000000000E+00  0.17314155313E+04  0.17314155313E+04  0.00000000000E+00 0.  1.
         21   -1    0    0  502  503 -0.00000000000E+00 -0.00000000000E+00 -0.99189279367E+02  0.99189279367E+02  0.00000000000E+00 0. -1.
         -6    2    1    2    0  503  0.18029451133E+03  0.36174675607E+02  0.90033920787E+02  0.26783160583E+03  0.17266425286E+03 0.  0.
        -24    2    3    3    0    0  0.12216565721E+03  0.73125852980E+02  0.12790415631E+02  0.16423140178E+03  0.80848750276E+02 0.  0.
          6    2    1    2  501    0 -0.18029451133E+03 -0.36174675607E+02  0.15421923311E+04  0.15627732048E+04  0.17345946372E+03 0.  0.
         24    2    5    5    0    0 -0.53507278570E+02 -0.40426962100E+02  0.39714031254E+03  0.41070580246E+03  0.80383208450E+02 0.  0.
          5    1    5    5  501    0 -0.12678723276E+03  0.42522864930E+01  0.11450520186E+04  0.11520674023E+04  0.47000000000E+01 0. -1.
        -11    1    6    6    0    0 -0.61813366232E+02 -0.24616702501E+02  0.38057322562E+03  0.38634551161E+03  0.00000000000E+00 0.  1.
         12    1    6    6    0    0  0.83060876615E+01 -0.15810259599E+02  0.16567086928E+02  0.24360290846E+02  0.00000000000E+00 0. -1.
         -5    1    3    3    0  503  0.58128854115E+02 -0.36951177373E+02  0.77243505156E+02  0.10360020405E+03  0.47000000000E+01 0.  1.
         11    1    4    4    0    0  0.91463751114E+01 -0.78817808822E+01 -0.18130114210E+02  0.21782554690E+02  0.00000000000E+00 0. -1.
        -12    1    4    4    0    0  0.11301928210E+03  0.81007633862E+02  0.30920529841E+02  0.14244884709E+03  0.00000000000E+00 0.  1.
<mgrwt>
<rscale>  2 0.25265388E+03</rscale>
<asrwt>0</asrwt>
<pdfrwt beam="1">  1       21 0.26637160E+00 0.25279024E+03</pdfrwt>
<pdfrwt beam="2">  1       21 0.15259890E-01 0.25279024E+03</pdfrwt>
<totfact> 0.19048129E+03</totfact>
</mgrwt>
</event>
<event>
11    1  0.1050690E-001  0.3418262E+03  0.7546771E-02  0.1066232E+00
         21   -1    0    0  501  502  0.00000000000E+00  0.00000000000E+00  0.64051317201E+03  0.64051317201E+03  0.00000000000E+00 0. -1.
         21   -1    0    0  502  503 -0.00000000000E+00 -0.00000000000E+00 -0.24723413838E+03  0.24723413838E+03  0.00000000000E+00 0.  1.
         -6    2    1    2    0  503  0.28501691636E+03 -0.51970724198E+02  0.42617897653E+03  0.54632743309E+03  0.18140988212E+03 0.  0.
        -24    2    3    3    0    0  0.24569364529E+03 -0.82951967630E+01  0.41079826442E+03  0.48539691816E+03  0.80129747839E+02 0.  0.
          6    2    1    2  501    0 -0.28501691636E+03  0.51970724198E+02 -0.32899942900E+02  0.34141987730E+03  0.17762186687E+03 0.  0.
          5    1    5    5  501    0 -0.91567209883E+02  0.68795187921E+02 -0.24056550071E+02  0.11712446119E+03  0.47000000000E+01 0. -1.
        -13    1    5    5    0    0 -0.14794176541E+03 -0.49359660579E+00 -0.54629677058E+02  0.15770672530E+03  0.00000000000E+00 0.  1.
         14    1    5    5    0    0 -0.45507941063E+02 -0.16330867117E+02  0.45786284228E+02  0.66588690812E+02  0.00000000000E+00 0. -1.
         -5    1    3    3    0  503  0.39323271068E+02 -0.43675527435E+02  0.15380712108E+02  0.60930514927E+02  0.47000000000E+01 0.  1.
         11    1    4    4    0    0  0.23641703834E+03 -0.71343412049E+01  0.34114506495E+03  0.41511910362E+03  0.00000000000E+00 0. -1.
        -12    1    4    4    0    0  0.92766069439E+01 -0.11608555581E+01  0.69653199463E+02  0.70277814547E+02  0.00000000000E+00 0.  1.
<mgrwt>
<rscale>  2 0.34132630E+03</rscale>
<asrwt>0</asrwt>
<pdfrwt beam="1">  1       21 0.98540487E-01 0.34182619E+03</pdfrwt>
<pdfrwt beam="2">  1       21 0.38036022E-01 0.34182619E+03</pdfrwt>
<totfact> 0.51868995E+03</totfact>
</mgrwt>
</event>
<event>
12    1  0.1050690E-001  0.2597452E+03  0.7546771E-02  0.1107329E+00
         21   -1    0    0  501  502  0.00000000000E+00  0.00000000000E+00  0.17069527049E+04  0.17069527049E+04  0.00000000000E+00 0. -1.
         21   -1    0    0  502  503 -0.00000000000E+00 -0.00000000000E+00 -0.39653083970E+02  0.39653083970E+02  0.00000000000E+00 0.  1.
         -6    2    1    2    0  503  0.30661805560E+02 -0.19269924566E+03  0.77765198647E+03  0.81981535990E+03  0.17111828270E+03 0.  0.
        -24    2    3    3    0    0  0.83549366650E+02 -0.14238313358E+03  0.60629420131E+03  0.63349739033E+03  0.80453909859E+02 0.  0.
          6    2    1    2  501    0 -0.30661805560E+02  0.19269924566E+03  0.88964763442E+03  0.92679042893E+03  0.17144806829E+03 0.  0.
         24    2    5    5    0    0 -0.29214835406E+02  0.18683898984E+03  0.89252642150E+03  0.91861646197E+03  0.10719363969E+03 0.  0.
          5    1    5    5  501    0 -0.14469701547E+01  0.58602558202E+01 -0.28787870744E+01  0.81739669639E+01  0.47000000000E+01 0. -1.
        -13    1    6    6    0    0  0.28589359243E+02  0.88424059291E+01  0.14072204079E+03  0.14386880263E+03  0.00000000000E+00 0.  1.
         14    1    6    6    0    0 -0.57804194649E+02  0.17799658391E+03  0.75180438071E+03  0.77474765934E+03  0.00000000000E+00 0. -1.
         -5    1    3    3    0  503 -0.52887561090E+02 -0.50316112076E+02  0.17135778516E+03  0.18631796957E+03  0.47000000000E+01 0.  1.
         11    1    4    4    0    0  0.81196324623E+02 -0.71098127368E+02  0.42964334419E+03  0.44299118508E+03  0.00000000000E+00 0. -1.
        -12    1    4    4    0    0  0.23530420273E+01 -0.71285006216E+02  0.17665085712E+03  0.19050620525E+03  0.00000000000E+00 0.  1.
<mgrwt>
<rscale>  2 0.25969083E+03</rscale>
<asrwt>0</asrwt>
<pdfrwt beam="1">  1       21 0.26260805E+00 0.25974523E+03</pdfrwt>
<pdfrwt beam="2">  1       21 0.61004758E-02 0.25974523E+03</pdfrwt>
<totfact> 0.10153535E+04</totfact>
</mgrwt>
</event>
<event>
12    1  0.1050690E-001  0.2696711E+03  0.7546771E-02  0.1101529E+00
         21   -1    0    0  503  502  0.00000000000E+00  0.00000000000E+00  0.75422503419E+03  0.75422503419E+03  0.00000000000E+00 0. -1.
         21   -1    0    0  501  503 -0.00000000000E+00 -0.00000000000E+00 -0.43558501623E+03  0.43558501623E+03  0.00000000000E+00 0.  1.
          6    2    1    2  501    0 -0.20483349636E+03  0.30955619406E+02 -0.36577307163E+03  0.45418529863E+03  0.17198643538E+03 0.  0.
         24    2    3    3    0    0 -0.74810242797E+02 -0.21416039506E+02 -0.24400402025E+03  0.26844723306E+03  0.80440884300E+02 0.  0.
         -6    2    1    2    0  502  0.20483349636E+03 -0.30955619406E+02  0.68441308959E+03  0.73562475180E+03  0.17264844816E+03 0.  0.
        -24    2    5    5    0    0  0.38995882727E+02 -0.28554495128E+02  0.34568385050E+03  0.35844115339E+03  0.81527283077E+02 0.  0.
          5    1    3    3  501    0 -0.13002325357E+03  0.52371658913E+02 -0.12176905138E+03  0.18573806556E+03  0.47000000000E+01 0. -1.
        -13    1    4    4    0    0  0.33187402150E+01 -0.29428549447E+02 -0.39414421043E+02  0.49300609989E+02  0.00000000000E+00 0.  1.
         14    1    4    4    0    0 -0.78128983012E+02  0.80125099407E+01 -0.20458959921E+03  0.21914662308E+03  0.00000000000E+00 0. -1.
         -5    1    5    5    0  502  0.16583761364E+03 -0.24011242786E+01  0.33872923909E+03  0.37718359841E+03  0.47000000000E+01 0.  1.
         13    1    6    6    0    0 -0.20707506822E+02  0.66407675176E+01  0.13255932238E+03  0.13433121224E+03  0.00000000000E+00 0. -1.
        -14    1    6    6    0    0  0.59703389549E+02 -0.35195262645E+02  0.21312452812E+03  0.22410994116E+03  0.00000000000E+00 0.  1.
<mgrwt>
<rscale>  2 0.26956519E+03</rscale>
<asrwt>0</asrwt>
<pdfrwt beam="1">  1       21 0.11603462E+00 0.26967109E+03</pdfrwt>
<pdfrwt beam="2">  1       21 0.67013080E-01 0.26967109E+03</pdfrwt>
<totfact> 0.10949477E+03</totfact>
</mgrwt>
</event>
<event>
12    1  0.1050690E-001  0.2151211E+03  0.7546771E-02  0.1138235E+00
         21   -1    0    0  503  502  0.00000000000E+00  0.00000000000E+00  0.70808620189E+02  0.70808620189E+02  0.00000000000E+00 0. -1.
         21   -1    0    0  501  503 -0.00000000000E+00 -0.00000000000E+00 -0.79107574209E+03  0.79107574209E+03  0.00000000000E+00 0.  1.
          6    2    1    2  501    0  0.90234084396E+02  0.88785168619E+02 -0.54409873261E+03  0.58383328778E+03  0.16968465147E+03 0.  0.
         24    2    3    3    0    0  0.45718904719E+02  0.18378985819E+02 -0.44243818256E+03  0.45232059169E+03  0.80089742845E+02 0.  0.
         -6    2    1    2    0  502 -0.90234084396E+02 -0.88785168619E+02 -0.17616838930E+03  0.27805107450E+03  0.17393131544E+03 0.  0.
        -24    2    5    5    0    0 -0.31949620839E+02  0.78864775180E+01 -0.12809965194E+03  0.15527005248E+03  0.81340602212E+02 0.  0.
          5    1    3    3  501    0  0.44515179676E+02  0.70406182800E+02 -0.10166055005E+03  0.13151269609E+03  0.47000000000E+01 0. -1.
        -13    1    4    4    0    0  0.47022763226E+02  0.13708384567E+02 -0.11690238257E+03  0.12674867699E+03  0.00000000000E+00 0.  1.
         14    1    4    4    0    0 -0.13038585063E+01  0.46706012513E+01 -0.32553579999E+03  0.32557191469E+03  0.00000000000E+00 0. -1.
         -5    1    5    5    0  502 -0.58284463556E+02 -0.96671646137E+02 -0.48068737353E+02  0.12278102203E+03  0.47000000000E+01 0.  1.
         11    1    6    6    0    0  0.57654255466E+01 -0.59492491047E+01  0.91021680679E+01  0.12307849535E+02  0.00000000000E+00 0. -1.
        -12    1    6    6    0    0 -0.37715046386E+02  0.13835726623E+02 -0.13720182001E+03  0.14296220294E+03  0.00000000000E+00 0.  1.
<mgrwt>
<rscale>  2 0.21426129E+03</rscale>
<asrwt>0</asrwt>
<pdfrwt beam="1">  1       21 0.10893634E-01 0.21512113E+03</pdfrwt>
<pdfrwt beam="2">  1       21 0.12170396E+00 0.21512113E+03</pdfrwt>
<totfact> 0.35108842E+04</totfact>
</mgrwt>
</event>
<event>
12    1  0.1050690E-001  0.2186279E+03  0.7546771E-02  0.1135612E+00
         21   -1    0    0  501  502  0.00000000000E+00  0.00000000000E+00  0.15079836845E+04  0.15079836845E+04  0.00000000000E+00 0. -1.
         21   -1    0    0  502  503 -0.00000000000E+00 -0.00000000000E+00 -0.31251303864E+02  0.31251303864E+02  0.00000000000E+00 0.  1.
         -6    2    1    2    0  503  0.11404635882E+03  0.62217985395E+02  0.69095162797E+03  0.72360668134E+03  0.17121573355E+03 0.  0.
        -24    2    3    3    0    0  0.90309180446E+02  0.41321665080E+01  0.60670552908E+03  0.61845483318E+03  0.78879393973E+02 0.  0.
          6    2    1    2  501    0 -0.11404635882E+03 -0.62217985395E+02  0.78578075262E+03  0.81562830698E+03  0.17584224263E+03 0.  0.
         24    2    5    5    0    0 -0.14087564535E+03 -0.66362003170E+02  0.75075205561E+03  0.77106281458E+03  0.81604853421E+02 0.  0.
          5    1    5    5  501    0  0.26829286530E+02  0.41440177754E+01  0.35028697011E+02  0.44565492405E+02  0.47000000000E+01 0. -1.
        -13    1    6    6    0    0 -0.34450551045E+01 -0.10128368323E+02  0.73597495540E+01  0.12985305659E+02  0.00000000000E+00 0.  1.
         14    1    6    6    0    0 -0.13743059025E+03 -0.56233634848E+02  0.74339230606E+03  0.75807750892E+03  0.00000000000E+00 0. -1.
         -5    1    3    3    0  503  0.23737178376E+02  0.58085818887E+02  0.84246098890E+02  0.10515184816E+03  0.47000000000E+01 0.  1.
         13    1    4    4    0    0  0.84186425473E+02  0.77308875137E+00  0.29783799974E+03  0.30950836174E+03  0.00000000000E+00 0. -1.
        -14    1    4    4    0    0  0.61227549729E+01  0.33590777566E+01  0.30886752934E+03  0.30894647144E+03  0.00000000000E+00 0.  1.
<mgrwt>
<rscale>  2 0.21769605E+03</rscale>
<asrwt>0</asrwt>
<pdfrwt beam="1">  1       21 0.23199743E+00 0.21862787E+03</pdfrwt>
<pdfrwt beam="2">  1       21 0.48078941E-02 0.21862787E+03</pdfrwt>
<totfact> 0.23960697E+04</totfact>
</mgrwt>
</event>
<event>
12    1  0.1050690E-001  0.1741161E+03  0.7546771E-02  0.1174361E+00
         21   -1    0    0  503  502  0.00000000000E+00  0.00000000000E+00  0.80963809664E+02  0.80963809664E+02  0.00000000000E+00 0. -1.
         21   -1    0    0  501  503 -0.00000000000E+00 -0.00000000000E+00 -0.37756914216E+03  0.37756914216E+03  0.00000000000E+00 0. -1.
          6    2    1    2  501    0 -0.14925294711E+02  0.33355060541E+01 -0.18554877124E+03  0.25444994169E+03  0.17344317887E+03 0.  0.
         24    2    3    3    0    0 -0.16659554456E+02  0.13542779677E+02 -0.14313110669E+02  0.82837187089E+02  0.78715861119E+02 0.  0.
         -6    2    1    2    0  502  0.14925294711E+02 -0.33355060541E+01 -0.11105656126E+03  0.20408301013E+03  0.17053570067E+03 0.  0.
        -24    2    5    5    0    0  0.62404326564E+02 -0.19702961628E+02 -0.11399271889E+03  0.15355714459E+03  0.79391120555E+02 0.  0.
          5    1    3    3  501    0  0.17342597452E+01 -0.10207273623E+02 -0.17123566057E+03  0.17161275460E+03  0.47000000000E+01 0. -1.
        -11    1    4    4    0    0 -0.47975097775E+02  0.85394882811E+01 -0.15403364499E+02  0.51105738469E+02  0.00000000000E+00 0.  1.
         12    1    4    4    0    0  0.31315543318E+02  0.50032913957E+01  0.10902538297E+01  0.31731448620E+02  0.00000000000E+00 0. -1.
         -5    1    5    5    0  502 -0.47479031853E+02  0.16367455573E+02  0.29361576290E+01  0.50525865547E+02  0.47000000000E+01 0.  1.
         13    1    6    6    0    0  0.27883262897E+01 -0.36452412642E+02 -0.22012303624E+02  0.42674285720E+02  0.00000000000E+00 0. -1.
        -14    1    6    6    0    0  0.59616000275E+02  0.16749451014E+02 -0.91980415265E+02  0.11088285887E+03  0.00000000000E+00 0.  1.
<mgrwt>
<rscale>  2 0.17338756E+03</rscale>
<asrwt>0</asrwt>
<pdfrwt beam="1">  1       21 0.12455971E-01 0.17411613E+03</pdfrwt>
<pdfrwt beam="2">  1       21 0.58087561E-01 0.17411613E+03</pdfrwt>
<totfact> 0.15338162E+05</totfact>
</mgrwt>
</event>
<event>
12    1  0.1050690E-001  0.2318509E+03  0.7546771E-02  0.1125688E+00
         21   -1    0    0  503  502  0.00000000000E+00  0.00000000000E+00  0.15344835340E+03  0.15344835340E+03  0.00000000000E+00 0. -1.
         21   -1    0    0  501  503 -0.00000000000E+00 -0.00000000000E+00 -0.38066818501E+03  0.38066818501E+03  0.00000000000E+00 0.  1.
          6    2    1    2  501    0  0.14794513662E+03 -0.36200861826E+02 -0.19306786697E+03  0.30171186417E+03  0.17480441036E+03 0.  0.
         24    2    3    3    0    0  0.13218746826E+03 -0.94302826878E+01 -0.21466924518E+03  0.26358474050E+03  0.76364740556E+02 0.  0.
         -6    2    1    2    0  502 -0.14794513662E+03  0.36200861826E+02 -0.34151964651E+02  0.23240467423E+03  0.17218394255E+03 0.  0.
        -24    2    5    5    0    0 -0.10405177622E+03 -0.14566475918E+02  0.46655614856E+02  0.12725761258E+03  0.54578376732E+02 0.  0.
          5    1    3    3  501    0  0.15757668355E+02 -0.26770579138E+02  0.21601378210E+02  0.38127123678E+02  0.47000000000E+01 0. -1.
        -11    1    4    4    0    0  0.65754529426E+02 -0.25540554307E+02 -0.16390035686E+03  0.17843571681E+03  0.00000000000E+00 0.  1.
         12    1    4    4    0    0  0.66432938836E+02  0.16110271620E+02 -0.50768888322E+02  0.85149023691E+02  0.00000000000E+00 0. -1.
         -5    1    5    5    0  502 -0.43893360394E+02  0.50767337743E+02 -0.80807579507E+02  0.10514706165E+03  0.47000000000E+01 0.  1.
         13    1    6    6    0    0 -0.15283906679E+02 -0.13141492361E+02  0.31197315534E+02  0.37142551358E+02  0.00000000000E+00 0. -1.
        -14    1    6    6    0    0 -0.88767869545E+02 -0.14249835564E+01  0.15458299323E+02  0.90115061225E+02  0.00000000000E+00 0.  1.
<mgrwt>
<rscale>  2 0.23135703E+03</rscale>
<asrwt>0</asrwt>
<pdfrwt beam="1">  1       21 0.23607440E-01 0.23185092E+03</pdfrwt>
<pdfrwt beam="2">  1       21 0.58564335E-01 0.23185092E+03</pdfrwt>
<totfact> 0.45251814E+04</totfact>
</mgrwt>
</event>
<event>
12    1  0.1050690E-001  0.1891189E+03  0.7546771E-02  0.1159432E+00
         21   -1    0    0  503  502  0.00000000000E+00  0.00000000000E+00  0.48005270238E+02  0.48005270238E+02  0.00000000000E+00 0. -1.
         21   -1    0    0  501  503 -0.00000000000E+00 -0.00000000000E+00 -0.12585201300E+04  0.12585201300E+04  0.00000000000E+00 0.  1.
          6    2    1    2  501    0 -0.41332746389E+02  0.62879255279E+02 -0.10230247969E+04  0.10402201725E+04  0.17267331994E+03 0.  0.
         24    2    3    3    0    0 -0.39334731217E+02 -0.27594618748E+02 -0.42751030145E+03  0.43785058636E+03  0.81482477056E+02 0.  0.
         -6    2    1    2    0  502  0.41332746389E+02 -0.62879255279E+02 -0.18749006278E+03  0.26630522772E+03  0.17350433423E+03 0.  0.
        -24    2    5    5    0    0  0.22773182674E+02 -0.97283574039E+02 -0.18700055061E+03  0.22692954770E+03  0.80901805072E+02 0.  0.
          5    1    3    3  501    0 -0.19980151724E+01  0.90473874027E+02 -0.59551449549E+03  0.60236958612E+03  0.47000000000E+01 0. -1.
        -13    1    4    4    0    0  0.11074080628E+02  0.69285273564E+00 -0.26732336630E+03  0.26755354133E+03  0.00000000000E+00 0.  1.
         14    1    4    4    0    0 -0.50408811845E+02 -0.28287471484E+02 -0.16018693515E+03  0.17029704503E+03  0.00000000000E+00 0. -1.
         -5    1    5    5    0  502  0.18559563715E+02  0.34404318760E+02 -0.48951217329E+00  0.39375680016E+02  0.47000000000E+01 0.  1.
         11    1    6    6    0    0 -0.29810649564E+02 -0.23601039770E+02 -0.53653168772E+02  0.65759762963E+02  0.00000000000E+00 0. -1.
        -12    1    6    6    0    0  0.52583832238E+02 -0.73682534268E+02 -0.13334738184E+03  0.16116978474E+03  0.00000000000E+00 0.  1.
<mgrwt>
<rscale>  2 0.18892806E+03</rscale>
<asrwt>0</asrwt>
<pdfrwt beam="1">  1       21 0.73854258E-02 0.18911888E+03</pdfrwt>
<pdfrwt beam="2">  1       21 0.19361849E+00 0.18911888E+03</pdfrwt>
<totfact> 0.20413809E+04</totfact>
</mgrwt>
</event>
<event>
12    1  0.1050690E-001  0.1906596E+03  0.7546771E-02  0.1158203E+00
         21   -1    0    0  501  502  0.00000000000E+00  0.00000000000E+00  0.60046595352E+03  0.60046595352E+03  0.00000000000E+00 0. -1.
         21   -1    0    0  502  503 -0.00000000000E+00 -0.00000000000E+00 -0.79296381775E+02  0.79296381775E+02  0.00000000000E+00 0.  1.
         -6    2    1    2    0  503 -0.75919131843E+02 -0.84724651379E+01  0.93986579055E+02  0.21256659011E+03  0.17468709439E+03 0.  0.
        -24    2    3    3    0    0  0.21583403892E+02 -0.34576122819E+02  0.45568351139E+02  0.10051945622E+03  0.79789315456E+02 0.  0.
          6    2    1    2  501    0  0.75919131843E+02  0.84724651379E+01  0.42718299269E+03  0.46719574518E+03  0.17306373920E+03 0.  0.
         24    2    5    5    0    0 -0.17020446955E+01 -0.14116180093E+01  0.64771412096E+02  0.96403369456E+02  0.71367949361E+02 0.  0.
          5    1    5    5  501    0  0.77621176538E+02  0.98840831472E+01  0.36241158059E+03  0.37079237572E+03  0.47000000000E+01 0. -1.
        -11    1    6    6    0    0 -0.31416465208E+02 -0.82941544836E+01  0.55867141406E+02  0.64629132546E+02  0.00000000000E+00 0.  1.
         12    1    6    6    0    0  0.29714420512E+02  0.68825364743E+01  0.89042706899E+01  0.31774236910E+02  0.00000000000E+00 0. -1.
         -5    1    3    3    0  503 -0.97502535735E+02  0.26103657682E+02  0.48418227916E+02  0.11204713389E+03  0.47000000000E+01 0.  1.
         11    1    4    4    0    0  0.45136994801E+02 -0.38461082416E+01  0.69435849142E+01  0.45829621640E+02  0.00000000000E+00 0. -1.
        -12    1    4    4    0    0 -0.23553590909E+02 -0.30730014578E+02  0.38624766225E+02  0.54689834582E+02  0.00000000000E+00 0.  1.
<mgrwt>
<rscale>  2 0.19028694E+03</rscale>
<asrwt>0</asrwt>
<pdfrwt beam="1">  1       21 0.92379375E-01 0.19065959E+03</pdfrwt>
<pdfrwt beam="2">  1       21 0.12199444E-01 0.19065959E+03</pdfrwt>
<totfact> 0.56395370E+04</totfact>
</mgrwt>
</event>
<event>
12    1  0.1050690E-001  0.2226900E+03  0.7546771E-02  0.1134096E+00
         21   -1    0    0  501  502  0.00000000000E+00  0.00000000000E+00  0.10940160216E+03  0.10940160216E+03  0.00000000000E+00 0. -1.
         21   -1    0    0  502  503 -0.00000000000E+00 -0.00000000000E+00 -0.64630764951E+03  0.64630764951E+03  0.00000000000E+00 0. -1.
         -6    2    1    2    0  503  0.12200151806E+03 -0.26268339026E+01 -0.54641008941E+02  0.22929557042E+03  0.18627814711E+03 0.  0.
        -24    2    3    3    0    0  0.89232875207E+02  0.36845879815E+02 -0.99889065917E+02  0.16072913736E+03  0.80844945598E+02 0.  0.
          6    2    1    2  501    0 -0.12200151806E+03  0.26268339026E+01 -0.48226503840E+03  0.52641368125E+03  0.17216424101E+03 0.  0.
         24    2    5    5    0    0 -0.30175502452E+02 -0.52370514475E+02 -0.27754116437E+03  0.29534944761E+03  0.80925685349E+02 0.  0.
          5    1    5    5  501    0 -0.91826015603E+02  0.54997348378E+02 -0.20472387403E+03  0.23106423364E+03  0.47000000000E+01 0. -1.
        -13    1    6    6    0    0 -0.13726354788E+02 -0.11429594150E+02 -0.40411502732E+01  0.18313364894E+02  0.00000000000E+00 0.  1.
         14    1    6    6    0    0 -0.16449147664E+02 -0.40940920325E+02 -0.27350001410E+03  0.27703608272E+03  0.00000000000E+00 0. -1.
         -5    1    3    3    0  503  0.32768642849E+02 -0.39472713717E+02  0.45248056975E+02  0.68566433059E+02  0.47000000000E+01 0.  1.
         13    1    4    4    0    0  0.11980046159E+01  0.34034266294E+02 -0.11494817636E+02  0.35942973301E+02  0.00000000000E+00 0. -1.
        -14    1    4    4    0    0  0.88034870591E+02  0.28116135207E+01 -0.88394248281E+02  0.12478616406E+03  0.00000000000E+00 0.  1.
<mgrwt>
<rscale>  2 0.21971477E+03</rscale>
<asrwt>0</asrwt>
<pdfrwt beam="1">  1       21 0.16831016E-01 0.22268996E+03</pdfrwt>
<pdfrwt beam="2">  1       21 0.99431945E-01 0.22268996E+03</pdfrwt>
<totfact> 0.25992822E+04</totfact>
</mgrwt>
</event>
<event>
12    1  0.1050690E-001  0.1933222E+03  0.7546771E-02  0.1155683E+00
         21   -1    0    0  503  502  0.00000000000E+00  0.00000000000E+00  0.17878022455E+02  0.17878022455E+02  0.00000000000E+00 0.  1.
         21   -1    0    0  501  503 -0.00000000000E+00 -0.00000000000E+00 -0.22893891556E+04  0.22893891556E+04  0.00000000000E+00 0.  1.
          6    2    1    2  501    0 -0.80018065463E+02  0.28410511031E+02 -0.14856581606E+04  0.14981834453E+04  0.17367618575E+03 0.  0.
         24    2    3    3    0    0 -0.88068011683E+01  0.70116760012E+02 -0.48643802804E+03  0.49555020288E+03  0.62881862824E+02 0.  0.
         -6    2    1    2    0  502  0.80018065463E+02 -0.28410511031E+02 -0.78585297248E+03  0.80908373275E+03  0.17274705297E+03 0.  0.
        -24    2    5    5    0    0  0.69587746313E+02 -0.22286065462E+02 -0.78817907380E+03  0.79590036678E+03  0.83018180619E+02 0.  0.
          5    1    3    3  501    0 -0.71211264294E+02 -0.41706248981E+02 -0.99922013259E+03  0.10026332424E+04  0.47000000000E+01 0. -1.
        -13    1    4    4    0    0 -0.25238223671E+02  0.69869036455E+02 -0.44140249960E+03  0.44761011700E+03  0.00000000000E+00 0.  1.
         14    1    4    4    0    0  0.16431422502E+02  0.24772355700E+00 -0.45035528443E+02  0.47940085884E+02  0.00000000000E+00 0. -1.
         -5    1    5    5    0  502  0.10430319149E+02 -0.61244455685E+01  0.23261013170E+01  0.13183365974E+02  0.47000000000E+01 0.  1.
         13    1    6    6    0    0  0.10451119451E+02  0.29687623973E+02 -0.25652187755E+03  0.25844545764E+03  0.00000000000E+00 0. -1.
        -14    1    6    6    0    0  0.59136626863E+02 -0.51973689435E+02 -0.53165719625E+03  0.53745490914E+03  0.00000000000E+00 0.  1.
<mgrwt>
<rscale>  2 0.19311327E+03</rscale>
<asrwt>0</asrwt>
<pdfrwt beam="1">  1       21 0.27504654E-02 0.19332218E+03</pdfrwt>
<pdfrwt beam="2">  1       21 0.35221366E+00 0.19332218E+03</pdfrwt>
<totfact> 0.12381842E+04</totfact>
</mgrwt>
</event>
<event>
12    1  0.1050690E-001  0.2297362E+03  0.7546771E-02  0.1127262E+00
         21   -1    0    0  501  502  0.00000000000E+00  0.00000000000E+00  0.84922294479E+03  0.84922294479E+03  0.00000000000E+00 0. -1.
         21   -1    0    0  502  503 -0.00000000000E+00 -0.00000000000E+00 -0.62569209311E+02  0.62569209311E+02  0.00000000000E+00 0. -1.
         -6    2    1    2    0  503 -0.14218494896E+03  0.50297944051E+02  0.45124186237E+03  0.50524588880E+03  0.17002278350E+03 0.  0.
        -24    2    3    3    0    0 -0.10316497288E+03  0.14869902380E+02  0.15011696087E+03  0.19950743689E+03  0.80024932428E+02 0.  0.
          6    2    1    2  501    0  0.14218494896E+03 -0.50297944051E+02  0.33541187312E+03  0.40654626530E+03  0.17329829289E+03 0.  0.
         24    2    5    5    0    0  0.97082171828E+02 -0.44302096867E+02  0.10596841959E+03  0.17258772399E+03  0.84673447120E+02 0.  0.
          5    1    5    5  501    0  0.45102777133E+02 -0.59958471840E+01  0.22944345353E+03  0.23395854132E+03  0.47000000000E+01 0. -1.
        -13    1    6    6    0    0  0.54799159604E+02  0.19988423159E+02  0.35740358450E+02  0.68409488932E+02  0.00000000000E+00 0.  1.
         14    1    6    6    0    0  0.42283012224E+02 -0.64290520026E+02  0.70228061138E+02  0.10417823506E+03  0.00000000000E+00 0. -1.
         -5    1    3    3    0  503 -0.39019976079E+02  0.35428041671E+02  0.30112490150E+03  0.30573845191E+03  0.47000000000E+01 0.  1.
         11    1    4    4    0    0 -0.37640890457E+02 -0.29946390415E+02  0.34224584545E+02  0.59033423758E+02  0.00000000000E+00 0. -1.
        -12    1    4    4    0    0 -0.65524082424E+02  0.44816292795E+02  0.11589237632E+03  0.14047401314E+03  0.00000000000E+00 0.  1.
<mgrwt>
<rscale>  2 0.22911859E+03</rscale>
<asrwt>0</asrwt>
<pdfrwt beam="1">  1       21 0.13064968E+00 0.22973624E+03</pdfrwt>
<pdfrwt beam="2">  1       21 0.96260328E-02 0.22973624E+03</pdfrwt>
<totfact> 0.36294754E+04</totfact>
</mgrwt>
</event>
<event>
12    1  0.1050690E-001  0.2443293E+03  0.7546771E-02  0.1116953E+00
         21   -1    0    0  501  502  0.00000000000E+00  0.00000000000E+00  0.15573233508E+03  0.15573233508E+03  0.00000000000E+00 0.  1.
         21   -1    0    0  502  503 -0.00000000000E+00 -0.00000000000E+00 -0.40172784254E+03  0.40172784254E+03  0.00000000000E+00 0. -1.
         -6    2    1    2    0  503  0.14293990979E+03 -0.96324817624E+02 -0.18280143502E+03  0.30509080033E+03  0.17307149824E+03 0.  0.
        -24    2    3    3    0    0  0.95466277208E+02  0.95619960135E+01 -0.68802751446E+02  0.14235311893E+03  0.79532069070E+02 0.  0.
          6    2    1    2  501    0 -0.14293990979E+03  0.96324817624E+02 -0.63194072443E+02  0.25236937729E+03  0.17316617308E+03 0.  0.
         24    2    5    5    0    0 -0.16706152372E+02  0.73248379085E+02 -0.37040968641E+01  0.11084683236E+03  0.81417930126E+02 0.  0.
          5    1    5    5  501    0 -0.12623375742E+03  0.23076438539E+02 -0.59489975579E+02  0.14152254492E+03  0.47000000000E+01 0. -1.
        -11    1    6    6    0    0 -0.33411040963E+02  0.82655615635E+02 -0.12000757717E+02  0.89957026630E+02  0.00000000000E+00 0.  1.
         12    1    6    6    0    0  0.16704888591E+02 -0.94072365500E+01  0.82966608525E+01  0.20889805735E+02  0.00000000000E+00 0. -1.
         -5    1    3    3    0  503  0.47473632582E+02 -0.10588681364E+03 -0.11399868357E+03  0.16273768141E+03  0.47000000000E+01 0.  1.
         13    1    4    4    0    0  0.40140714222E+02 -0.73745237903E+01 -0.73742311332E+02  0.84282791956E+02  0.00000000000E+00 0. -1.
        -14    1    4    4    0    0  0.55325562987E+02  0.16936519804E+02  0.49395598858E+01  0.58070326973E+02  0.00000000000E+00 0.  1.
<mgrwt>
<rscale>  2 0.24431254E+03</rscale>
<asrwt>0</asrwt>
<pdfrwt beam="1">  1       21 0.23958821E-01 0.24432931E+03</pdfrwt>
<pdfrwt beam="2">  1       21 0.61804282E-01 0.24432931E+03</pdfrwt>
<totfact> 0.38952372E+04</totfact>
</mgrwt>
</event>
<event>
12    1  0.1050690E-001  0.2181935E+03  0.7546771E-02  0.1136458E+00
         21   -1    0    0  501  502  0.00000000000E+00  0.00000000000E+00  0.16856792379E+03  0.16856792379E+03  0.00000000000E+00 0.  1.
         21   -1    0    0  502  503 -0.00000000000E+00 -0.00000000000E+00 -0.15306185872E+04  0.15306185872E+04  0.00000000000E+00 0.  1.
         -6    2    1    2    0  503 -0.61675993707E+02 -0.10531557381E+03 -0.14525518851E+04  0.14688483132E+04  0.18086760338E+03 0.  0.
        -24    2    3    3    0    0 -0.33078711413E+02 -0.89663244582E+02 -0.46284519706E+03  0.47859369022E+03  0.75448958201E+02 0.  0.
          6    2    1    2  501    0  0.61675993707E+02  0.10531557381E+03  0.90501221692E+02  0.23033819780E+03  0.17311821380E+03 0.  0.
         24    2    5    5    0    0  0.51294488492E+02 -0.22338808608E+01  0.12426514409E+02  0.96950002040E+02  0.81294340896E+02 0.  0.
          5    1    5    5  501    0  0.10381505215E+02  0.10754945467E+03  0.78074707283E+02  0.13338819576E+03  0.47000000000E+01 0. -1.
        -11    1    6    6    0    0  0.65875331300E+02  0.33036997633E+01  0.30845649001E+02  0.72814337656E+02  0.00000000000E+00 0.  1.
         12    1    6    6    0    0 -0.14580842808E+02 -0.55375806241E+01 -0.18419134591E+02  0.24135664384E+02  0.00000000000E+00 0. -1.
         -5    1    3    3    0  503 -0.28597282294E+02 -0.15652329228E+02 -0.98970668803E+03  0.99025462296E+03  0.47000000000E+01 0.  1.
         13    1    4    4    0    0  0.14824288852E+02 -0.65248897171E+02 -0.22448870920E+03  0.23424849771E+03  0.00000000000E+00 0. -1.
        -14    1    4    4    0    0 -0.47903000265E+02 -0.24414347411E+02 -0.23835648787E+03  0.24434519251E+03  0.00000000000E+00 0.  1.
<mgrwt>
<rscale>  2 0.21658083E+03</rscale>
<asrwt>0</asrwt>
<pdfrwt beam="1">  1       21 0.25933526E-01 0.21819347E+03</pdfrwt>
<pdfrwt beam="2">  1       21 0.23547979E+00 0.21819347E+03</pdfrwt>
<totfact> 0.11121312E+03</totfact>
</mgrwt>
</event>
<event>
12    1  0.1050690E-001  0.2471044E+03  0.7546771E-02  0.1115212E+00
         21   -1    0    0  503  502  0.00000000000E+00  0.00000000000E+00  0.13365203603E+04  0.13365203603E+04  0.00000000000E+00 0. -1.
         21   -1    0    0  501  503 -0.00000000000E+00 -0.00000000000E+00 -0.51694013848E+02  0.51694013848E+02  0.00000000000E+00 0. -1.
          6    2    1    2  501    0  0.90394194270E+02  0.15201450546E+03  0.40388748922E+03  0.47327510311E+03  0.17200203212E+03 0.  0.
         24    2    3    3    0    0  0.12335332824E+02  0.10452069861E+02  0.10239339971E+03  0.13114371748E+03  0.80329696449E+02 0.  0.
         -6    2    1    2    0  502 -0.90394194270E+02 -0.15201450546E+03  0.88093885723E+03  0.91493927103E+03  0.17257195388E+03 0.  0.
        -24    2    5    5    0    0 -0.12566517490E+03 -0.92329767131E+02  0.57032291514E+03  0.59664591020E+03  0.80009952822E+02 0.  0.
          5    1    3    3  501    0  0.78058861445E+02  0.14156243560E+03  0.30149408951E+03  0.34213138563E+03  0.47000000000E+01 0. -1.
        -11    1    4    4    0    0 -0.65464439225E+01  0.28804887093E+02  0.46345939706E+01  0.29900784434E+02  0.00000000000E+00 0.  1.
         12    1    4    4    0    0  0.18881776747E+02 -0.18352817233E+02  0.97758805734E+02  0.10124293305E+03  0.00000000000E+00 0. -1.
         -5    1    5    5    0  502  0.35270980631E+02 -0.59684738332E+02  0.31061594209E+03  0.31829336082E+03  0.47000000000E+01 0.  1.
         11    1    6    6    0    0 -0.66335460674E+02 -0.73747179072E+02  0.22680245696E+03  0.24754473181E+03  0.00000000000E+00 0. -1.
        -12    1    6    6    0    0 -0.59329714226E+02 -0.18582588058E+02  0.34352045818E+03  0.34910117839E+03  0.00000000000E+00 0.  1.
<mgrwt>
<rscale>  2 0.24700495E+03</rscale>
<asrwt>0</asrwt>
<pdfrwt beam="1">  1       21 0.20561849E+00 0.24710443E+03</pdfrwt>
<pdfrwt beam="2">  1       21 0.79529262E-02 0.24710443E+03</pdfrwt>
<totfact> 0.14403655E+04</totfact>
</mgrwt>
</event>
<event>
12    1  0.1050690E-001  0.2806941E+03  0.7546771E-02  0.1095457E+00
         21   -1    0    0  503  502  0.00000000000E+00  0.00000000000E+00  0.17500752113E+03  0.17500752113E+03  0.00000000000E+00 0. -1.
         21   -1    0    0  501  503 -0.00000000000E+00 -0.00000000000E+00 -0.69916688606E+03  0.69916688606E+03  0.00000000000E+00 0.  1.
          6    2    1    2  501    0  0.61906894815E+02 -0.21267787339E+03 -0.52347915705E+03  0.59347952574E+03  0.17065514392E+03 0.  0.
         24    2    3    3    0    0  0.32661321226E+02 -0.64612786473E+02 -0.11827504210E+03  0.16105492154E+03  0.81903162880E+02 0.  0.
         -6    2    1    2    0  502 -0.61906894815E+02  0.21267787339E+03 -0.68020787696E+00  0.28069488146E+03  0.17240885226E+03 0.  0.
        -24    2    5    5    0    0  0.85209858731E+01  0.43809608384E+02 -0.29578449246E+02  0.95401126409E+02  0.78959491344E+02 0.  0.
          5    1    3    3  501    0  0.29245573590E+02 -0.14806508692E+03 -0.40520411495E+03  0.43242460420E+03  0.47000000000E+01 0. -1.
        -11    1    4    4    0    0  0.33877342489E+02 -0.54973762624E+02 -0.13040299832E+03  0.14551539740E+03  0.00000000000E+00 0.  1.
         12    1    4    4    0    0 -0.12160212631E+01 -0.96390238483E+01  0.12127956219E+02  0.15539524140E+02  0.00000000000E+00 0. -1.
         -5    1    5    5    0  502 -0.70427880688E+02  0.16886826501E+03  0.28898241369E+02  0.18529375505E+03  0.47000000000E+01 0.  1.
         13    1    6    6    0    0  0.25656973056E+02  0.26419864186E+01  0.17021776248E+02  0.30903094105E+02  0.00000000000E+00 0. -1.
        -14    1    6    6    0    0 -0.17135987183E+02  0.41167621966E+02 -0.46600225494E+02  0.64498032304E+02  0.00000000000E+00 0.  1.
<mgrwt>
<rscale>  2 0.28042524E+03</rscale>
<asrwt>0</asrwt>
<pdfrwt beam="1">  1       21 0.26924235E-01 0.28069406E+03</pdfrwt>
<pdfrwt beam="2">  1       21 0.10756413E+00 0.28069406E+03</pdfrwt>
<totfact> 0.85782894E+03</totfact>
</mgrwt>
</event>
<event>
12    1  0.1050690E-001  0.1830614E+03  0.7546771E-02  0.1165218E+00
         21   -1    0    0  501  502  0.00000000000E+00  0.00000000000E+00  0.98533974496E+03  0.98533974496E+03  0.00000000000E+00 0. -1.
         21   -1    0    0  502  503 -0.00000000000E+00 -0.00000000000E+00 -0.54273060426E+02  0.54273060426E+02  0.00000000000E+00 0. -1.
         -6    2    1    2    0  503 -0.53964107605E+02 -0.18238344404E+02  0.78409840829E+03  0.80485518610E+03  0.17244359829E+03 0.  0.
        -24    2    3    3    0    0 -0.13141795788E+02 -0.66597609579E+02  0.33845169944E+03  0.35471280998E+03  0.81631343925E+02 0.  0.
          6    2    1    2  501    0  0.53964107605E+02  0.18238344404E+02  0.14696827625E+03  0.23475761929E+03  0.17397328380E+03 0.  0.
         24    2    5    5    0    0 -0.26266077333E+02 -0.18198005618E+02  0.36735028608E+02  0.93555816668E+02  0.79888386382E+02 0.  0.
          5    1    5    5  501    0  0.80230184939E+02  0.36436350022E+02  0.11023324764E+03  0.14120180262E+03  0.47000000000E+01 0. -1.
        -13    1    6    6    0    0 -0.44636121211E+02  0.15773610840E+02  0.18215035877E+02  0.50724527083E+02  0.00000000000E+00 0.  1.
         14    1    6    6    0    0  0.18370043878E+02 -0.33971616458E+02  0.18519992730E+02  0.42831289586E+02  0.00000000000E+00 0. -1.
         -5    1    3    3    0  503 -0.40822311818E+02  0.48359265175E+02  0.44564670886E+03  0.45014237613E+03  0.47000000000E+01 0.  1.
         11    1    4    4    0    0 -0.29848400172E+02  0.56660267061E+01  0.72403222919E+02  0.78519153972E+02  0.00000000000E+00 0. -1.
        -12    1    4    4    0    0  0.16706604384E+02 -0.72263636285E+02  0.26604847652E+03  0.27619365600E+03  0.00000000000E+00 0.  1.
<mgrwt>
<rscale>  2 0.18269700E+03</rscale>
<asrwt>0</asrwt>
<pdfrwt beam="1">  1       21 0.15159072E+00 0.18306137E+03</pdfrwt>
<pdfrwt beam="2">  1       21 0.83497024E-02 0.18306137E+03</pdfrwt>
<totfact> 0.32569881E+04</totfact>
</mgrwt>
</event>
<event>
12    1  0.1050690E-001  0.2456322E+03  0.7546771E-02  0.1116468E+00
         21   -1    0    0  501  502  0.00000000000E+00  0.00000000000E+00  0.28918559394E+03  0.28918559394E+03  0.00000000000E+00 0.  1.
         21   -1    0    0  502  503 -0.00000000000E+00 -0.00000000000E+00 -0.20705550102E+03  0.20705550102E+03  0.00000000000E+00 0.  1.
         -6    2    1    2    0  503  0.52869896069E+02  0.16674905768E+03  0.30987763654E+02  0.24757911758E+03  0.17243753599E+03 0.  0.
        -24    2    3    3    0    0 -0.17706193005E+02  0.11326747144E+03 -0.33841817389E+02  0.13773272941E+03  0.68425191185E+02 0.  0.
          6    2    1    2  501    0 -0.52869896069E+02 -0.16674905768E+03  0.51142329272E+02  0.24866197738E+03  0.16916491068E+03 0.  0.
         24    2    5    5    0    0 -0.35817828341E+02 -0.14068398682E+03 -0.32676560798E+02  0.15911948878E+03  0.56359143962E+02 0.  0.
          5    1    5    5  501    0 -0.17052067728E+02 -0.26065070855E+02  0.83818890070E+02  0.89542488602E+02  0.47000000000E+01 0. -1.
        -11    1    6    6    0    0 -0.40096278613E+01 -0.94867113656E+01  0.13016316769E+02  0.16598171898E+02  0.00000000000E+00 0.  1.
         12    1    6    6    0    0 -0.31808200480E+02 -0.13119727546E+03 -0.45692877567E+02  0.14252131688E+03  0.00000000000E+00 0. -1.
         -5    1    3    3    0  503  0.70576089074E+02  0.53481586239E+02  0.64829581043E+02  0.10984638817E+03  0.47000000000E+01 0.  1.
         13    1    4    4    0    0  0.21676253778E+02  0.52457691581E+02 -0.32217465455E+02  0.65265875189E+02  0.00000000000E+00 0. -1.
        -14    1    4    4    0    0 -0.39382446783E+02  0.60809779858E+02 -0.16243519338E+01  0.72466854217E+02  0.00000000000E+00 0.  1.
<mgrwt>
<rscale>  2 0.24505863E+03</rscale>
<asrwt>0</asrwt>
<pdfrwt beam="1">  1       21 0.44490091E-01 0.24563220E+03</pdfrwt>
<pdfrwt beam="2">  1       21 0.31854693E-01 0.24563220E+03</pdfrwt>
<totfact> 0.44861559E+04</totfact>
</mgrwt>
</event>
<event>
12    1  0.1050690E-001  0.1958283E+03  0.7546771E-02  0.1153629E+00
         21   -1    0    0  501  502  0.00000000000E+00  0.00000000000E+00  0.81604965775E+03  0.81604965775E+03  0.00000000000E+00 0.  1.
         21   -1    0    0  502  503 -0.00000000000E+00 -0.00000000000E+00 -0.51218259327E+02  0.51218259327E+02  0.00000000000E+00 0.  1.
         -6    2    1    2    0  503 -0.57582686252E+02  0.67505629459E+02  0.51075738848E+03  0.54648401337E+03  0.17291295850E+03 0.  0.
        -24    2    3    3    0    0 -0.24114546543E+02  0.19724128374E+02  0.46192956983E+03  0.47026436960E+03  0.82456638533E+02 0.  0.
          6    2    1    2  501    0  0.57582686252E+02 -0.67505629459E+02  0.25407400995E+03  0.32078390371E+03  0.17457357929E+03 0.  0.
         24    2    5    5    0    0  0.68746979988E+02  0.13327960516E+02  0.18634501428E+03  0.21463298484E+03  0.80243828711E+02 0.  0.
          5    1    5    5  501    0 -0.11164293736E+02 -0.80833589975E+02  0.67728995665E+02  0.10615091887E+03  0.47000000000E+01 0. -1.
        -11    1    6    6    0    0 -0.12660694687E+02 -0.73938578006E+01  0.67642867587E+02  0.69213581460E+02  0.00000000000E+00 0.  1.
         12    1    6    6    0    0  0.81407674676E+02  0.20721818317E+02  0.11870214669E+03  0.14541940338E+03  0.00000000000E+00 0. -1.
         -5    1    3    3    0  503 -0.33468139710E+02  0.47781501085E+02  0.48827818644E+02  0.76219643761E+02  0.47000000000E+01 0.  1.
         13    1    4    4    0    0  0.14648184822E+02  0.20217306362E+02  0.36525078952E+03  0.36610305658E+03  0.00000000000E+00 0. -1.
        -14    1    4    4    0    0 -0.38762731365E+02 -0.49317798827E+00  0.96678780318E+02  0.10416131303E+03  0.00000000000E+00 0.  1.
<mgrwt>
<rscale>  2 0.19545748E+03</rscale>
<asrwt>0</asrwt>
<pdfrwt beam="1">  1       21 0.12554609E+00 0.19582827E+03</pdfrwt>
<pdfrwt beam="2">  1       21 0.78797328E-02 0.19582827E+03</pdfrwt>
<totfact> 0.58040089E+04</totfact>
</mgrwt>
</event>
<event>
12    1  0.1050690E-001  0.1950995E+03  0.7546771E-02  0.1154033E+00
         21   -1    0    0  501  502  0.00000000000E+00  0.00000000000E+00  0.58481813085E+03  0.58481813085E+03  0.00000000000E+00 0.  1.
         21   -1    0    0  502  503 -0.00000000000E+00 -0.00000000000E+00 -0.87977360403E+02  0.87977360403E+02  0.00000000000E+00 0.  1.
         -6    2    1    2    0  503  0.65783906927E+02  0.63463598651E+02  0.76099567587E+02  0.20902080848E+03  0.17188194619E+03 0.  0.
        -24    2    3    3    0    0  0.10346649071E+03  0.59381194482E+02  0.48334275081E+02  0.16180169570E+03  0.98041550503E+02 0.  0.
          6    2    1    2  501    0 -0.65783906927E+02 -0.63463598651E+02  0.42074120286E+03  0.46377468278E+03  0.17236196168E+03 0.  0.
         24    2    5    5    0    0 -0.27643108156E+02 -0.49645004409E+02  0.11443650492E+03  0.15475958273E+03  0.87327240286E+02 0.  0.
          5    1    5    5  501    0 -0.38140798772E+02 -0.13818594241E+02  0.30630469794E+03  0.30901510005E+03  0.47000000000E+01 0. -1.
        -13    1    6    6    0    0 -0.48426437242E+02 -0.63015521848E+02  0.87288098125E+02  0.11804782036E+03  0.00000000000E+00 0.  1.
         14    1    6    6    0    0  0.20783329086E+02  0.13370517438E+02  0.27148406794E+02  0.36711762364E+02  0.00000000000E+00 0. -1.
         -5    1    3    3    0  503 -0.37682583779E+02  0.40824041692E+01  0.27765292506E+02  0.47219112783E+02  0.47000000000E+01 0.  1.
         11    1    4    4    0    0  0.98547796562E+02  0.60878537099E+01  0.44032756875E+02  0.10810926810E+03  0.00000000000E+00 0. -1.
        -12    1    4    4    0    0  0.49186941447E+01  0.53293340772E+02  0.43015182051E+01  0.53692427600E+02  0.00000000000E+00 0.  1.
<mgrwt>
<rscale>  2 0.19499338E+03</rscale>
<asrwt>0</asrwt>
<pdfrwt beam="1">  1       21 0.89972018E-01 0.19509945E+03</pdfrwt>
<pdfrwt beam="2">  1       21 0.13534979E-01 0.19509945E+03</pdfrwt>
<totfact> 0.49632264E+04</totfact>
</mgrwt>
</event>
<event>
12    1  0.1050690E-001  0.3062829E+03  0.7546771E-02  0.1082178E+00
         21   -1    0    0  501  502  0.00000000000E+00  0.00000000000E+00  0.12957642873E+04  0.12957642873E+04  0.00000000000E+00 0.  1.
         21   -1    0    0  502  503 -0.00000000000E+00 -0.00000000000E+00 -0.72390797089E+02  0.72390797089E+02  0.00000000000E+00 0.  1.
         -6    2    1    2    0  503  0.89834740190E+02  0.23595946400E+03  0.63187873096E+03  0.70206557408E+03  0.17285308929E+03 0.  0.
        -24    2    3    3    0    0  0.77831868748E+02  0.25776366163E+03  0.56492709611E+03  0.63048273141E+03  0.76589461607E+02 0.  0.
          6    2    1    2  501    0 -0.89834740190E+02 -0.23595946400E+03  0.59149475925E+03  0.66608951031E+03  0.17338407170E+03 0.  0.
         24    2    5    5    0    0  0.22064897812E+02 -0.97651921608E+02  0.24913722850E+03  0.28023814756E+03  0.80257729937E+02 0.  0.
          5    1    5    5  501    0 -0.11189963800E+03 -0.13830754240E+03  0.34235753076E+03  0.38585136275E+03  0.47000000000E+01 0. -1.
        -11    1    6    6    0    0  0.44336146285E+02 -0.26027853513E+02  0.78422384075E+02  0.93772135253E+02  0.00000000000E+00 0.  1.
         12    1    6    6    0    0 -0.22271248473E+02 -0.71624068095E+02  0.17071484442E+03  0.18646601231E+03  0.00000000000E+00 0. -1.
         -5    1    3    3    0  503  0.12002871442E+02 -0.21804197629E+02  0.66951634844E+02  0.71582842674E+02  0.47000000000E+01 0.  1.
         11    1    4    4    0    0 -0.36675555461E+01  0.11178388365E+03  0.20196215956E+03  0.23086316618E+03  0.00000000000E+00 0. -1.
        -12    1    4    4    0    0  0.81499424295E+02  0.14597977798E+03  0.36296493656E+03  0.39961956522E+03  0.00000000000E+00 0.  1.
<mgrwt>
<rscale>  2 0.30620776E+03</rscale>
<asrwt>0</asrwt>
<pdfrwt beam="1">  1       21 0.19934834E+00 0.30628285E+03</pdfrwt>
<pdfrwt beam="2">  1       21 0.11137047E-01 0.30628285E+03</pdfrwt>
<totfact> 0.84038074E+03</totfact>
</mgrwt>
</event>
<event>
12    1  0.1050690E-001  0.2762444E+03  0.7546771E-02  0.1098538E+00
         21   -1    0    0  503  502  0.00000000000E+00  0.00000000000E+00  0.42602670074E+03  0.42602670074E+03  0.00000000000E+00 0.  1.
         21   -1    0    0  501  503 -0.00000000000E+00 -0.00000000000E+00 -0.22533013760E+03  0.22533013760E+03  0.00000000000E+00 0. -1.
          6    2    1    2  501    0 -0.46086820617E+02 -0.21000696728E+03 -0.51945814604E+02  0.28108603391E+03  0.17344759862E+03 0.  0.
         24    2    3    3    0    0 -0.95261660475E+02 -0.11655695983E+03 -0.44068222567E+02  0.17508973575E+03  0.77808087523E+02 0.  0.
         -6    2    1    2    0  502  0.46086820617E+02  0.21000696728E+03  0.25264237774E+03  0.37027080444E+03  0.16445478480E+03 0.  0.
        -24    2    5    5    0    0  0.41349812508E+02  0.75466541114E+02  0.47906177120E+02  0.12519414834E+03  0.77288855272E+02 0.  0.
          5    1    3    3  501    0  0.49174839858E+02 -0.93450007454E+02 -0.78775920363E+01  0.10599629816E+03  0.47000000000E+01 0. -1.
        -13    1    4    4    0    0  0.56455344887E+01 -0.34413109195E+02 -0.26489050649E+02  0.43792738535E+02  0.00000000000E+00 0.  1.
         14    1    4    4    0    0 -0.10090719496E+03 -0.82143850630E+02 -0.17579171919E+02  0.13129699721E+03  0.00000000000E+00 0. -1.
         -5    1    5    5    0  502  0.47370081083E+01  0.13454042617E+03  0.20473620063E+03  0.24507665610E+03  0.47000000000E+01 0.  1.
         13    1    6    6    0    0  0.59469358125E+02  0.58099408910E+02  0.54291549435E+02  0.99296113779E+02  0.00000000000E+00 0. -1.
        -14    1    6    6    0    0 -0.18119545617E+02  0.17367132203E+02 -0.63853723150E+01  0.25898034557E+02  0.00000000000E+00 0.  1.
<mgrwt>
<rscale>  2 0.27484487E+03</rscale>
<asrwt>0</asrwt>
<pdfrwt beam="1">  1       21 0.65542569E-01 0.27624444E+03</pdfrwt>
<pdfrwt beam="2">  1       21 0.34666175E-01 0.27624444E+03</pdfrwt>
<totfact> 0.16410404E+04</totfact>
</mgrwt>
</event>
<event>
12    1  0.1050690E-001  0.1783591E+03  0.7546771E-02  0.1169411E+00
         21   -1    0    0  503  502  0.00000000000E+00  0.00000000000E+00  0.80112472191E+03  0.80112472191E+03  0.00000000000E+00 0. -1.
         21   -1    0    0  501  503 -0.00000000000E+00 -0.00000000000E+00 -0.77270544307E+02  0.77270544307E+02  0.00000000000E+00 0. -1.
          6    2    1    2  501    0 -0.34014151390E+02  0.29457607622E+02  0.55698041281E+02  0.18685354483E+03  0.17258986723E+03 0.  0.
         24    2    3    3    0    0 -0.75685199818E+02  0.11955160356E+02 -0.58085387837E+01  0.11038158050E+03  0.79241269930E+02 0.  0.
         -6    2    1    2    0  502  0.34014151390E+02 -0.29457607622E+02  0.66815613632E+03  0.69154172139E+03  0.17254743340E+03 0.  0.
        -24    2    5    5    0    0  0.36254285703E+02 -0.71477578291E+02  0.30470305399E+03  0.32563062673E+03  0.82267469414E+02 0.  0.
          5    1    3    3  501    0  0.41671048428E+02  0.17502447265E+02  0.61506580065E+02  0.76471964331E+02  0.47000000000E+01 0. -1.
        -11    1    4    4    0    0 -0.36679553345E+02 -0.32448080602E+02  0.81693066580E+01  0.49648818109E+02  0.00000000000E+00 0.  1.
         12    1    4    4    0    0 -0.39005646473E+02  0.44403240958E+02 -0.13977845442E+02  0.60732762390E+02  0.00000000000E+00 0. -1.
         -5    1    5    5    0  502 -0.22401343133E+01  0.42019970669E+02  0.36345308233E+03  0.36591109466E+03  0.47000000000E+01 0.  1.
         13    1    6    6    0    0 -0.16856789935E+01 -0.29454730460E+02  0.23006642633E+03  0.23195038949E+03  0.00000000000E+00 0. -1.
        -14    1    6    6    0    0  0.37939964697E+02 -0.42022847831E+02  0.74636627660E+02  0.93680237241E+02  0.00000000000E+00 0.  1.
<mgrwt>
<rscale>  2 0.17834885E+03</rscale>
<asrwt>0</asrwt>
<pdfrwt beam="1">  1       21 0.12324995E+00 0.17835912E+03</pdfrwt>
<pdfrwt beam="2">  1       21 0.11887777E-01 0.17835912E+03</pdfrwt>
<totfact> 0.29738696E+04</totfact>
</mgrwt>
</event>
<event>
12    1  0.1050690E-001  0.1862144E+03  0.7546771E-02  0.1162800E+00
         21   -1    0    0  503  502  0.00000000000E+00  0.00000000000E+00  0.19433324999E+03  0.19433324999E+03  0.00000000000E+00 0.  1.
         21   -1    0    0  501  503 -0.00000000000E+00 -0.00000000000E+00 -0.20839080671E+03  0.20839080671E+03  0.00000000000E+00 0.  1.
          6    2    1    2  501    0  0.28607380299E+02  0.56196738530E+02 -0.87745079393E+02  0.20246013570E+03  0.17121463711E+03 0.  0.
         24    2    3    3    0    0 -0.30825648229E+02  0.32968050059E+02  0.20688279708E+01  0.92185547490E+02  0.80354105081E+02 0.  0.
         -6    2    1    2    0  502 -0.28607380299E+02 -0.56196738530E+02  0.73687522677E+02  0.20026392101E+03  0.17521224680E+03 0.  0.
        -24    2    5    5    0    0 -0.61779230292E+02 -0.30373306670E+02  0.10399997435E+03  0.14822397489E+03  0.80094575442E+02 0.  0.
          5    1    3    3  501    0  0.59433028528E+02  0.23228688471E+02 -0.89813907363E+02  0.11027458821E+03  0.47000000000E+01 0. -1.
        -13    1    4    4    0    0 -0.27945656651E+02  0.33306354267E+01 -0.34824322073E+02  0.44774839652E+02  0.00000000000E+00 0.  1.
         14    1    4    4    0    0 -0.28799915776E+01  0.29637414632E+02  0.36893150043E+02  0.47410707838E+02  0.00000000000E+00 0. -1.
         -5    1    5    5    0  502  0.33171849994E+02 -0.25823431860E+02 -0.30312451673E+02  0.52039946113E+02  0.47000000000E+01 0.  1.
         11    1    6    6    0    0 -0.21300101892E+02 -0.12010420896E+02 -0.95750203960E+01  0.26260722882E+02  0.00000000000E+00 0. -1.
        -12    1    6    6    0    0 -0.40479128401E+02 -0.18362885774E+02  0.11357499475E+03  0.12196325201E+03  0.00000000000E+00 0.  1.
<mgrwt>
<rscale>  2 0.18526807E+03</rscale>
<asrwt>0</asrwt>
<pdfrwt beam="1">  1       21 0.29897423E-01 0.18621436E+03</pdfrwt>
<pdfrwt beam="2">  1       21 0.32060124E-01 0.18621436E+03</pdfrwt>
<totfact> 0.10062694E+05</totfact>
</mgrwt>
</event>
<event>
12    1  0.1050690E-001  0.2382507E+03  0.7546771E-02  0.1121000E+00
         21   -1    0    0  501  502  0.00000000000E+00  0.00000000000E+00  0.62530935485E+02  0.62530935485E+02  0.00000000000E+00 0.  1.
         21   -1    0    0  502  503 -0.00000000000E+00 -0.00000000000E+00 -0.11354806161E+04  0.11354806161E+04  0.00000000000E+00 0.  1.
         -6    2    1    2    0  503  0.12933098837E+03 -0.98795448629E+02 -0.80540714847E+03  0.83990719386E+03  0.17400107547E+03 0.  0.
        -24    2    3    3    0    0  0.61533155076E+02 -0.49420248499E+02 -0.67703696837E+03  0.68649451600E+03  0.81651539042E+02 0.  0.
          6    2    1    2  501    0 -0.12933098837E+03  0.98795448629E+02 -0.26754253219E+03  0.35810435778E+03  0.17370284771E+03 0.  0.
         24    2    5    5    0    0 -0.91714238746E+01  0.57932688666E+02 -0.59818512508E+02  0.11463065397E+03  0.78240788327E+02 0.  0.
          5    1    5    5  501    0 -0.12015956450E+03  0.40862759963E+02 -0.20772401969E+03  0.24347370381E+03  0.47000000000E+01 0. -1.
        -13    1    6    6    0    0 -0.11641146942E+02  0.75985631889E+02 -0.58041436092E+02  0.96323106571E+02  0.00000000000E+00 0.  1.
         14    1    6    6    0    0  0.24697230672E+01 -0.18052943223E+02 -0.17770764153E+01  0.18307547395E+02  0.00000000000E+00 0. -1.
         -5    1    3    3    0  503  0.67797833298E+02 -0.49375200129E+02 -0.12837018010E+03  0.15341267786E+03  0.47000000000E+01 0.  1.
         13    1    4    4    0    0 -0.56741337270E+01  0.68633040101E+01 -0.87567801484E+01  0.12489272759E+02  0.00000000000E+00 0. -1.
        -14    1    4    4    0    0  0.67207288803E+02 -0.56283552510E+02 -0.66828018822E+03  0.67400524324E+03  0.00000000000E+00 0.  1.
<mgrwt>
<rscale>  2 0.23819630E+03</rscale>
<asrwt>0</asrwt>
<pdfrwt beam="1">  1       21 0.96201445E-02 0.23825075E+03</pdfrwt>
<pdfrwt beam="2">  1       21 0.17468932E+00 0.23825075E+03</pdfrwt>
<totfact> 0.16667551E+04</totfact>
</mgrwt>
</event>
<event>
12    1  0.1050690E-001  0.2014882E+03  0.7546771E-02  0.1148607E+00
         21   -1    0    0  503  502  0.00000000000E+00  0.00000000000E+00  0.28183463965E+04  0.28183463965E+04  0.00000000000E+00 0.  1.
         21   -1    0    0  501  503 -0.00000000000E+00 -0.00000000000E+00 -0.16345091300E+02  0.16345091300E+02  0.00000000000E+00 0.  1.
          6    2    1    2  501    0  0.99010864275E+02 -0.30705486027E+02  0.90934323301E+03  0.93139819577E+03  0.17277588239E+03 0.  0.
         24    2    3    3    0    0  0.69499671100E+02 -0.86665067760E+02  0.67690836807E+03  0.69046160297E+03  0.78684484823E+02 0.  0.
         -6    2    1    2    0  502 -0.99010864275E+02  0.30705486027E+02  0.18926580722E+04  0.19032932921E+04  0.17211856137E+03 0.  0.
        -24    2    5    5    0    0 -0.61379466553E+02 -0.48903668928E+02  0.87869113094E+03  0.88549921287E+03  0.76496696943E+02 0.  0.
          5    1    3    3  501    0  0.29511193175E+02  0.55959581733E+02  0.23243486494E+03  0.24093659280E+03  0.47000000000E+01 0. -1.
        -11    1    4    4    0    0  0.42700704779E+02 -0.49951442866E+02  0.18255107141E+03  0.19401904676E+03  0.00000000000E+00 0.  1.
         12    1    4    4    0    0  0.26798966321E+02 -0.36713624894E+02  0.49435729667E+03  0.49644255621E+03  0.00000000000E+00 0. -1.
         -5    1    5    5    0  502 -0.37631397722E+02  0.79609154956E+02  0.10139669413E+04  0.10177940792E+04  0.47000000000E+01 0.  1.
         13    1    6    6    0    0 -0.14061071313E+02 -0.57663797887E+02  0.56966053307E+03  0.57274422760E+03  0.00000000000E+00 0. -1.
        -14    1    6    6    0    0 -0.47318395240E+02  0.87601289583E+01  0.30903059788E+03  0.31275498527E+03  0.00000000000E+00 0.  1.
<mgrwt>
<rscale>  2 0.20134718E+03</rscale>
<asrwt>0</asrwt>
<pdfrwt beam="1">  1       21 0.43359137E+00 0.20148817E+03</pdfrwt>
<pdfrwt beam="2">  1       21 0.25146317E-02 0.20148817E+03</pdfrwt>
<totfact> 0.44573734E+03</totfact>
</mgrwt>
</event>
<event>
12    1  0.1050690E-001  0.1970989E+03  0.7546771E-02  0.1152857E+00
         21   -1    0    0  501  502  0.00000000000E+00  0.00000000000E+00  0.86066535300E+03  0.86066535300E+03  0.00000000000E+00 0.  1.
         21   -1    0    0  502  503 -0.00000000000E+00 -0.00000000000E+00 -0.77069574358E+02  0.77069574358E+02  0.00000000000E+00 0. -1.
         -6    2    1    2    0  503  0.75539161570E+02  0.47405980042E+02  0.85074545088E+02  0.21193889458E+03  0.17241497887E+03 0.  0.
        -24    2    3    3    0    0  0.91173549043E+02 -0.12090271716E+02  0.87356709682E+02  0.15020125355E+03  0.80438990079E+02 0.  0.
          6    2    1    2  501    0 -0.75539161570E+02 -0.47405980042E+02  0.69852123356E+03  0.72579603278E+03  0.17576824400E+03 0.  0.
         24    2    5    5    0    0 -0.29565585858E+02 -0.67454392723E+02  0.23242557912E+03  0.25698609518E+03  0.81215665483E+02 0.  0.
          5    1    5    5  501    0 -0.45973575712E+02  0.20048412682E+02  0.46609565443E+03  0.46880993761E+03  0.47000000000E+01 0. -1.
        -13    1    6    6    0    0 -0.22292538395E+02  0.92878661598E+01  0.10759750179E+03  0.11027440373E+03  0.00000000000E+00 0.  1.
         14    1    6    6    0    0 -0.72730474632E+01 -0.76742258883E+02  0.12482807733E+03  0.14671169145E+03  0.00000000000E+00 0. -1.
         -5    1    3    3    0  503 -0.15634387473E+02  0.59496251758E+02 -0.22821645941E+01  0.61737641032E+02  0.47000000000E+01 0.  1.
         11    1    4    4    0    0  0.40681710435E+02  0.34285928162E+02  0.44414670420E+02  0.69305045865E+02  0.00000000000E+00 0. -1.
        -12    1    4    4    0    0  0.50491838608E+02 -0.46376199878E+02  0.42942039262E+02  0.80896207681E+02  0.00000000000E+00 0.  1.
<mgrwt>
<rscale>  2 0.19634849E+03</rscale>
<asrwt>0</asrwt>
<pdfrwt beam="1">  1       21 0.13241005E+00 0.19709888E+03</pdfrwt>
<pdfrwt beam="2">  1       21 0.11856858E-01 0.19709888E+03</pdfrwt>
<totfact> 0.24670817E+04</totfact>
</mgrwt>
</event>
<event>
12    1  0.1050690E-001  0.1970909E+03  0.7546771E-02  0.1152704E+00
         21   -1    0    0  501  502  0.00000000000E+00  0.00000000000E+00  0.13354161254E+03  0.13354161254E+03  0.00000000000E+00 0.  1.
         21   -1    0    0  502  503 -0.00000000000E+00 -0.00000000000E+00 -0.41440735234E+03  0.41440735234E+03  0.00000000000E+00 0.  1.
         -6    2    1    2    0  503  0.31444191479E+02 -0.84646107928E+02 -0.29256612447E+03  0.35276020142E+03  0.17518881742E+03 0.  0.
        -24    2    3    3    0    0 -0.27437562468E+02 -0.40531553751E+02 -0.66250371272E+02  0.11473905743E+03  0.79876860993E+02 0.  0.
          6    2    1    2  501    0 -0.31444191479E+02  0.84646107928E+02  0.11700384669E+02  0.19518876346E+03  0.17265009011E+03 0.  0.
         24    2    5    5    0    0  0.14248492602E+02  0.11416022164E+03  0.96593966850E+01  0.14055214645E+03  0.80162498598E+02 0.  0.
          5    1    5    5  501    0 -0.45692684081E+02 -0.29514113709E+02  0.20409879838E+01  0.54636617012E+02  0.47000000000E+01 0. -1.
        -11    1    6    6    0    0  0.76684954426E+01  0.44599148947E+02  0.43629549163E+02  0.62860380760E+02  0.00000000000E+00 0.  1.
         12    1    6    6    0    0  0.65799971591E+01  0.69561072690E+02 -0.33970152478E+02  0.77691765689E+02  0.00000000000E+00 0. -1.
         -5    1    3    3    0  503  0.58881753947E+02 -0.44114554177E+02 -0.22631575320E+03  0.23802114399E+03  0.47000000000E+01 0.  1.
         11    1    4    4    0    0 -0.88775737758E+01  0.23938587834E+02 -0.26308801337E+02  0.36660882852E+02  0.00000000000E+00 0. -1.
        -12    1    4    4    0    0 -0.18559988693E+02 -0.64470141585E+02 -0.39941569935E+02  0.78078174576E+02  0.00000000000E+00 0.  1.
<mgrwt>
<rscale>  2 0.19652518E+03</rscale>
<asrwt>0</asrwt>
<pdfrwt beam="1">  1       21 0.20544864E-01 0.19709090E+03</pdfrwt>
<pdfrwt beam="2">  1       21 0.63754977E-01 0.19709090E+03</pdfrwt>
<totfact> 0.49787968E+04</totfact>
</mgrwt>
</event>
<event>
12    1  0.1050690E-001  0.2033838E+03  0.7546771E-02  0.1147261E+00
         21   -1    0    0  503  502  0.00000000000E+00  0.00000000000E+00  0.60220462913E+03  0.60220462913E+03  0.00000000000E+00 0.  1.
         21   -1    0    0  501  503 -0.00000000000E+00 -0.00000000000E+00 -0.89515747126E+02  0.89515747126E+02  0.00000000000E+00 0.  1.
          6    2    1    2  501    0 -0.82781927737E+02 -0.57933462816E+02  0.86483083762E+02  0.21947432301E+03  0.17458671487E+03 0.  0.
         24    2    3    3    0    0 -0.50834282388E+01 -0.81633489516E+02  0.23972076116E+02  0.11686601844E+03  0.79957100868E+02 0.  0.
         -6    2    1    2    0  502  0.82781927737E+02  0.57933462816E+02  0.42620579824E+03  0.47224605324E+03  0.17651010928E+03 0.  0.
        -24    2    5    5    0    0  0.37615925389E+02 -0.65402685070E+01  0.82599712380E+02  0.11970660575E+03  0.77776770440E+02 0.  0.
          5    1    3    3  501    0 -0.77698499498E+02  0.23700026701E+02  0.62511007647E+02  0.10260830457E+03  0.47000000000E+01 0. -1.
        -13    1    4    4    0    0 -0.39659939927E+02 -0.58786395434E+02  0.25594670462E+02  0.75391234764E+02  0.00000000000E+00 0.  1.
         14    1    4    4    0    0  0.34576511688E+02 -0.22847094082E+02 -0.16225943468E+01  0.41474783675E+02  0.00000000000E+00 0. -1.
         -5    1    5    5    0  502  0.45166002348E+02  0.64473731323E+02  0.34360608586E+03  0.35253944749E+03  0.47000000000E+01 0.  1.
         13    1    6    6    0    0  0.31727647820E+02  0.32363197491E+02  0.31406964609E+02  0.55139981991E+02  0.00000000000E+00 0. -1.
        -14    1    6    6    0    0  0.58882775689E+01 -0.38903465998E+02  0.51192747771E+02  0.64566623760E+02  0.00000000000E+00 0.  1.
<mgrwt>
<rscale>  2 0.20296572E+03</rscale>
<asrwt>0</asrwt>
<pdfrwt beam="1">  1       21 0.92646864E-01 0.20338376E+03</pdfrwt>
<pdfrwt beam="2">  1       21 0.13771654E-01 0.20338376E+03</pdfrwt>
<totfact> 0.44742024E+04</totfact>
</mgrwt>
</event>
<event>
12    1  0.1050690E-001  0.1887362E+03  0.7546771E-02  0.1159706E+00
         21   -1    0    0  503  502  0.00000000000E+00  0.00000000000E+00  0.99061502554E+03  0.99061502554E+03  0.00000000000E+00 0.  1.
         21   -1    0    0  501  503 -0.00000000000E+00 -0.00000000000E+00 -0.53161080611E+02  0.53161080611E+02  0.00000000000E+00 0.  1.
          6    2    1    2  501    0 -0.72996559905E+02 -0.11598672227E+02  0.17150126517E+03  0.25501773630E+03  0.17366155279E+03 0.  0.
         24    2    3    3    0    0 -0.55601073382E+02 -0.62392663595E+02  0.48482829561E+02  0.12071115415E+03  0.72362104320E+02 0.  0.
         -6    2    1    2    0  502  0.72996559905E+02  0.11598672227E+02  0.76595267976E+03  0.78875836985E+03  0.17318554045E+03 0.  0.
        -24    2    5    5    0    0  0.87051159517E+02  0.33062964277E+02  0.74358029275E+03  0.75439470730E+03  0.86767843407E+02 0.  0.
          5    1    3    3  501    0 -0.17395486523E+02  0.50793991368E+02  0.12301843561E+03  0.13430658216E+03  0.47000000000E+01 0. -1.
        -13    1    4    4    0    0 -0.11933591862E+01 -0.55244006074E+02  0.19102559753E+02  0.58465648909E+02  0.00000000000E+00 0.  1.
         14    1    4    4    0    0 -0.54407714196E+02 -0.71486575213E+01  0.29380269808E+02  0.62245505239E+02  0.00000000000E+00 0. -1.
         -5    1    5    5    0  502 -0.14054599611E+02 -0.21464292051E+02  0.22372387006E+02  0.34363662549E+02  0.47000000000E+01 0.  1.
         13    1    6    6    0    0 -0.43433788835E+01  0.18606602935E+02  0.35691402150E+02  0.40483907918E+02  0.00000000000E+00 0. -1.
        -14    1    6    6    0    0  0.91394538400E+02  0.14456361342E+02  0.70788889060E+03  0.71391079938E+03  0.00000000000E+00 0.  1.
<mgrwt>
<rscale>  2 0.18862665E+03</rscale>
<asrwt>0</asrwt>
<pdfrwt beam="1">  1       21 0.15240230E+00 0.18873622E+03</pdfrwt>
<pdfrwt beam="2">  1       21 0.81786285E-02 0.18873622E+03</pdfrwt>
<totfact> 0.33178085E+04</totfact>
</mgrwt>
</event>
<event>
12    1  0.1050690E-001  0.2022651E+03  0.7546771E-02  0.1148815E+00
         21   -1    0    0  501  502  0.00000000000E+00  0.00000000000E+00  0.81458285112E+03  0.81458285112E+03  0.00000000000E+00 0.  1.
         21   -1    0    0  502  503 -0.00000000000E+00 -0.00000000000E+00 -0.49451407165E+02  0.49451407165E+02  0.00000000000E+00 0.  1.
         -6    2    1    2    0  503 -0.95754888759E+02 -0.15699522402E+02  0.34083080703E+03  0.39398936104E+03  0.17218160143E+03 0.  0.
        -24    2    3    3    0    0  0.57730621716E+01 -0.18516406153E+02  0.85719934012E+02  0.11936323849E+03  0.80768125355E+02 0.  0.
          6    2    1    2  501    0  0.95754888759E+02  0.15699522402E+02  0.42430063693E+03  0.47004489725E+03  0.17747028259E+03 0.  0.
         24    2    5    5    0    0  0.11443676994E+03  0.89254843704E+01  0.19645010439E+03  0.24128114257E+03  0.80302600570E+02 0.  0.
          5    1    5    5  501    0 -0.18681881183E+02  0.67740380320E+01  0.22785053254E+03  0.22876375468E+03  0.47000000000E+01 0. -1.
        -11    1    6    6    0    0  0.27477487016E+02  0.11032953809E+02  0.12574717018E+03  0.12918625767E+03  0.00000000000E+00 0.  1.
         12    1    6    6    0    0  0.86959282926E+02 -0.21074694389E+01  0.70702934210E+02  0.11209488490E+03  0.00000000000E+00 0. -1.
         -5    1    3    3    0  503 -0.10152795093E+03  0.28168837506E+01  0.25511087301E+03  0.27462612255E+03  0.47000000000E+01 0.  1.
         13    1    4    4    0    0  0.34633483455E+02 -0.28771912534E+01  0.78362988509E+02  0.85723476211E+02  0.00000000000E+00 0. -1.
        -14    1    4    4    0    0 -0.28860421284E+02 -0.15639214899E+02  0.73569455030E+01  0.33639762283E+02  0.00000000000E+00 0.  1.
<mgrwt>
<rscale>  2 0.20109905E+03</rscale>
<asrwt>0</asrwt>
<pdfrwt beam="1">  1       21 0.12532043E+00 0.20226511E+03</pdfrwt>
<pdfrwt beam="2">  1       21 0.76079094E-02 0.20226511E+03</pdfrwt>
<totfact> 0.61764401E+04</totfact>
</mgrwt>
</event>
<event>
12    1  0.1050690E-001  0.2080264E+03  0.7546771E-02  0.1147128E+00
         21   -1    0    0  503  502  0.00000000000E+00  0.00000000000E+00  0.46937377339E+03  0.46937377339E+03  0.00000000000E+00 0.  1.
         21   -1    0    0  501  503 -0.00000000000E+00 -0.00000000000E+00 -0.20009213087E+03  0.20009213087E+03  0.00000000000E+00 0.  1.
          6    2    1    2  501    0 -0.73501976704E+02  0.14396101465E+02 -0.12289390065E+03  0.22553275128E+03  0.17364424196E+03 0.  0.
         24    2    3    3    0    0 -0.33695245358E+02  0.75620741763E+02 -0.69258197762E+02  0.13480287161E+03  0.80754257425E+02 0.  0.
         -6    2    1    2    0  502  0.73501976704E+02 -0.14396101465E+02  0.39217554317E+03  0.44393315299E+03  0.19407524144E+03 0.  0.
        -24    2    5    5    0    0  0.42952056881E+02 -0.88407182710E+02  0.21967088726E+03  0.25369413475E+03  0.80278927196E+02 0.  0.
          5    1    3    3  501    0 -0.39806731346E+02 -0.61224640299E+02 -0.53635702888E+02  0.90729879667E+02  0.47000000000E+01 0. -1.
        -11    1    4    4    0    0  0.27134666974E+01  0.59848277421E+02 -0.73585384782E+02  0.94889346427E+02  0.00000000000E+00 0.  1.
         12    1    4    4    0    0 -0.36408712056E+02  0.15772464342E+02  0.43271870202E+01  0.39913525182E+02  0.00000000000E+00 0. -1.
         -5    1    5    5    0  502  0.30549919823E+02  0.74011081245E+02  0.17250465591E+03  0.19023901823E+03  0.47000000000E+01 0.  1.
         13    1    6    6    0    0  0.46739680649E+02 -0.31421514945E+02  0.52340596799E+02  0.76885937738E+02  0.00000000000E+00 0. -1.
        -14    1    6    6    0    0 -0.37876237684E+01 -0.56985667765E+02  0.16733029046E+03  0.17680819701E+03  0.00000000000E+00 0.  1.
<mgrwt>
<rscale>  2 0.20312658E+03</rscale>
<asrwt>0</asrwt>
<pdfrwt beam="1">  1       21 0.72211349E-01 0.20802641E+03</pdfrwt>
<pdfrwt beam="2">  1       21 0.30783405E-01 0.20802641E+03</pdfrwt>
<totfact> 0.17362402E+04</totfact>
</mgrwt>
</event>
<event>
12    1  0.1050690E-001  0.1958517E+03  0.7546771E-02  0.1153454E+00
         21   -1    0    0  501  502  0.00000000000E+00  0.00000000000E+00  0.72859737342E+02  0.72859737342E+02  0.00000000000E+00 0. -1.
         21   -1    0    0  502  503 -0.00000000000E+00 -0.00000000000E+00 -0.55302074345E+03  0.55302074345E+03  0.00000000000E+00 0.  1.
         -6    2    1    2    0  503  0.82684496659E+02 -0.37903158024E+02 -0.31082376838E+03  0.36697318644E+03  0.17258194922E+03 0.  0.
        -24    2    3    3    0    0 -0.42473698602E+00  0.31590542916E+02 -0.15066039967E+03  0.17355417531E+03  0.80152061334E+02 0.  0.
          6    2    1    2  501    0 -0.82684496659E+02  0.37903158024E+02 -0.16933723773E+03  0.25890729436E+03  0.17344887320E+03 0.  0.
         24    2    5    5    0    0 -0.41733716413E+02  0.41709961718E+02 -0.18827796233E+03  0.21338478119E+03  0.81259151800E+02 0.  0.
          5    1    5    5  501    0 -0.40950780246E+02 -0.38068036935E+01  0.18940724599E+02  0.45522513172E+02  0.47000000000E+01 0. -1.
        -13    1    6    6    0    0 -0.26331524968E+02  0.66104735033E+02 -0.12484370906E+03  0.14369807547E+03  0.00000000000E+00 0.  1.
         14    1    6    6    0    0 -0.15402191445E+02 -0.24394773315E+02 -0.63434253267E+02  0.69686705719E+02  0.00000000000E+00 0. -1.
         -5    1    3    3    0  503  0.83109233645E+02 -0.69493700940E+02 -0.16016336871E+03  0.19341901112E+03  0.47000000000E+01 0.  1.
         11    1    4    4    0    0 -0.34753724440E+01  0.40330214302E+02 -0.25051047844E+02  0.47604195165E+02  0.00000000000E+00 0. -1.
        -12    1    4    4    0    0  0.30506354580E+01 -0.87396713857E+01 -0.12560935183E+03  0.12594998015E+03  0.00000000000E+00 0.  1.
<mgrwt>
<rscale>  2 0.19565958E+03</rscale>
<asrwt>0</asrwt>
<pdfrwt beam="1">  1       21 0.11209190E-01 0.19585170E+03</pdfrwt>
<pdfrwt beam="2">  1       21 0.85080116E-01 0.19585170E+03</pdfrwt>
<totfact> 0.79131131E+04</totfact>
</mgrwt>
</event>
<event>
12    1  0.1050690E-001  0.1913611E+03  0.7546771E-02  0.1157423E+00
         21   -1    0    0  503  502  0.00000000000E+00  0.00000000000E+00  0.16989942783E+03  0.16989942783E+03  0.00000000000E+00 0. -1.
         21   -1    0    0  501  503 -0.00000000000E+00 -0.00000000000E+00 -0.21704841297E+03  0.21704841297E+03  0.00000000000E+00 0.  1.
          6    2    1    2  501    0  0.29928977618E+02 -0.77494484221E+02 -0.44123514369E+02  0.19638215789E+03  0.17238888779E+03 0.  0.
         24    2    3    3    0    0  0.55668442801E+02 -0.10874748306E+03 -0.31364161615E+02  0.15367195903E+03  0.87785931449E+02 0.  0.
         -6    2    1    2    0  502 -0.29928977618E+02  0.77494484221E+02 -0.30254707722E+01  0.19056568290E+03  0.17147882447E+03 0.  0.
        -24    2    5    5    0    0 -0.62527200674E+02  0.37315785316E+02  0.46429476718E+02  0.11883804650E+03  0.81637407665E+02 0.  0.
          5    1    3    3  501    0 -0.25739465183E+02  0.31252998843E+02 -0.12759352755E+02  0.42710198868E+02  0.47000000000E+01 0. -1.
        -13    1    4    4    0    0 -0.16141639977E+02 -0.79269560326E+01 -0.23570104189E+02  0.29646905143E+02  0.00000000000E+00 0.  1.
         14    1    4    4    0    0  0.71810082777E+02 -0.10082052703E+03 -0.77940574256E+01  0.12402505388E+03  0.00000000000E+00 0. -1.
         -5    1    5    5    0  502  0.32598223057E+02  0.40178698905E+02 -0.49454947490E+02  0.71727636399E+02  0.47000000000E+01 0.  1.
         11    1    6    6    0    0 -0.32167642967E+02 -0.78888765677E+01 -0.15333733969E+02  0.36498150980E+02  0.00000000000E+00 0. -1.
        -12    1    6    6    0    0 -0.30359557708E+02  0.45204661883E+02  0.61763210687E+02  0.82339895522E+02  0.00000000000E+00 0.  1.
<mgrwt>
<rscale>  2 0.19115591E+03</rscale>
<asrwt>0</asrwt>
<pdfrwt beam="1">  1       21 0.26138373E-01 0.19136109E+03</pdfrwt>
<pdfrwt beam="2">  1       21 0.33392064E-01 0.19136109E+03</pdfrwt>
<totfact> 0.12019760E+05</totfact>
</mgrwt>
</event>
<event>
12    1  0.1050690E-001  0.1758359E+03  0.7546771E-02  0.1172063E+00
         21   -1    0    0  501  502  0.00000000000E+00  0.00000000000E+00  0.72441944753E+02  0.72441944753E+02  0.00000000000E+00 0.  1.
         21   -1    0    0  502  503 -0.00000000000E+00 -0.00000000000E+00 -0.17059691760E+04  0.17059691760E+04  0.00000000000E+00 0.  1.
         -6    2    1    2    0  503  0.28870968375E+02 -0.27167596200E+01 -0.15868459268E+04  0.15964842094E+04  0.17274525077E+03 0.  0.
        -24    2    3    3    0    0  0.15889122471E+02  0.64097027512E+02 -0.79865601151E+03  0.80534702589E+03  0.79821765412E+02 0.  0.
          6    2    1    2  501    0 -0.28870968375E+02  0.27167596200E+01 -0.46681304386E+02  0.18192691135E+03  0.17342820791E+03 0.  0.
         24    2    5    5    0    0  0.33122809445E+02  0.33038811461E+02  0.64365544589E+00  0.98115234726E+02  0.86240949813E+02 0.  0.
          5    1    5    5  501    0 -0.61993777820E+02 -0.30322051841E+02 -0.47324959832E+02  0.83811676629E+02  0.47000000000E+01 0. -1.
        -13    1    6    6    0    0  0.64622570909E+01 -0.22670059822E+02  0.22514352387E+02  0.32597368643E+02  0.00000000000E+00 0.  1.
         14    1    6    6    0    0  0.26660552354E+02  0.55708871283E+02 -0.21870696941E+02  0.65517866083E+02  0.00000000000E+00 0. -1.
         -5    1    3    3    0  503  0.12981845904E+02 -0.66813787132E+02 -0.78818991531E+03  0.79113718347E+03  0.47000000000E+01 0.  1.
         13    1    4    4    0    0 -0.21461386408E+02  0.30184106769E+02 -0.14181223322E+03  0.14656869003E+03  0.00000000000E+00 0. -1.
        -14    1    4    4    0    0  0.37350508879E+02  0.33912920743E+02 -0.65684377829E+03  0.65877833585E+03  0.00000000000E+00 0.  1.
<mgrwt>
<rscale>  2 0.17566725E+03</rscale>
<asrwt>0</asrwt>
<pdfrwt beam="1">  1       21 0.11144915E-01 0.17583588E+03</pdfrwt>
<pdfrwt beam="2">  1       21 0.26245678E+00 0.17583588E+03</pdfrwt>
<totfact> 0.38378783E+03</totfact>
</mgrwt>
</event>
<event>
12    1  0.1050690E-001  0.2120349E+03  0.7546771E-02  0.1140468E+00
         21   -1    0    0  503  502  0.00000000000E+00  0.00000000000E+00  0.14470123262E+04  0.14470123262E+04  0.00000000000E+00 0.  1.
         21   -1    0    0  501  503 -0.00000000000E+00 -0.00000000000E+00 -0.30813682566E+02  0.30813682566E+02  0.00000000000E+00 0.  1.
          6    2    1    2  501    0 -0.10893753076E+03  0.54436185658E+02  0.66678032230E+03  0.69968192366E+03  0.17357451479E+03 0.  0.
         24    2    3    3    0    0 -0.12196521890E+03  0.53680484932E+02  0.35875761095E+03  0.39134708546E+03  0.81782692567E+02 0.  0.
         -6    2    1    2    0  502  0.10893753076E+03 -0.54436185658E+02  0.74941832136E+03  0.77814408512E+03  0.17043976328E+03 0.  0.
        -24    2    5    5    0    0  0.94669559455E+02 -0.81053875601E+02  0.72156045916E+03  0.73678919534E+03  0.81711479619E+02 0.  0.
          5    1    3    3  501    0  0.13027688142E+02  0.75570072619E+00  0.30802271135E+03  0.30833483820E+03  0.47000000000E+01 0. -1.
        -13    1    4    4    0    0 -0.70854936905E+02  0.86622291981E+01  0.27109371049E+03  0.28033418658E+03  0.00000000000E+00 0.  1.
         14    1    4    4    0    0 -0.51110281993E+02  0.45018255734E+02  0.87663900459E+02  0.11101289888E+03  0.00000000000E+00 0. -1.
         -5    1    5    5    0  502  0.14267971301E+02  0.26617689943E+02  0.27857862192E+02  0.41354889781E+02  0.47000000000E+01 0.  1.
         13    1    6    6    0    0 -0.77385792663E+01 -0.53075596632E+01  0.18803695393E+03  0.18827095326E+03  0.00000000000E+00 0. -1.
        -14    1    6    6    0    0  0.10240813872E+03 -0.75746315938E+02  0.53352350523E+03  0.54851824208E+03  0.00000000000E+00 0.  1.
<mgrwt>
<rscale>  2 0.21139238E+03</rscale>
<asrwt>0</asrwt>
<pdfrwt beam="1">  1       21 0.22261723E+00 0.21203489E+03</pdfrwt>
<pdfrwt beam="2">  1       21 0.47405677E-02 0.21203489E+03</pdfrwt>
<totfact> 0.28128759E+04</totfact>
</mgrwt>
</event>
<event>
12    1  0.1050690E-001  0.2529522E+03  0.7546771E-02  0.1111563E+00
         21   -1    0    0  501  502  0.00000000000E+00  0.00000000000E+00  0.18475000522E+03  0.18475000522E+03  0.00000000000E+00 0.  1.
         21   -1    0    0  502  503 -0.00000000000E+00 -0.00000000000E+00 -0.37854202471E+03  0.37854202471E+03  0.00000000000E+00 0. -1.
         -6    2    1    2    0  503  0.16955107077E+03 -0.72202951070E+02 -0.18039605393E+03  0.31068883772E+03  0.17327430816E+03 0.  0.
        -24    2    3    3    0    0  0.96061422210E+01 -0.51048701426E+02 -0.85245587535E+02  0.12332399656E+03  0.72413742124E+02 0.  0.
          6    2    1    2  501    0 -0.16955107077E+03  0.72202951070E+02 -0.13395965561E+02  0.25260319221E+03  0.17224427155E+03 0.  0.
         24    2    5    5    0    0 -0.22276142108E+02  0.46141251076E+02 -0.35325561213E+02  0.10136789876E+03  0.80014461610E+02 0.  0.
          5    1    5    5  501    0 -0.14727492866E+03  0.26061699994E+02  0.21929595652E+02  0.15123529345E+03  0.47000000000E+01 0. -1.
        -13    1    6    6    0    0 -0.35551981023E+02 -0.23859501400E+01  0.61582506005E+01  0.36160201371E+02  0.00000000000E+00 0.  1.
         14    1    6    6    0    0  0.13275838915E+02  0.48527201216E+02 -0.41483811814E+02  0.65207697394E+02  0.00000000000E+00 0. -1.
         -5    1    3    3    0  503  0.15994492855E+03 -0.21154249645E+02 -0.95150466399E+02  0.18736484116E+03  0.47000000000E+01 0.  1.
         13    1    4    4    0    0 -0.52913644933E+01 -0.33246372150E+01  0.12252913198E+02  0.13754476822E+02  0.00000000000E+00 0. -1.
        -14    1    4    4    0    0  0.14897506714E+02 -0.47724064211E+02 -0.97498500732E+02  0.10956951974E+03  0.00000000000E+00 0.  1.
<mgrwt>
<rscale>  2 0.25277590E+03</rscale>
<asrwt>0</asrwt>
<pdfrwt beam="1">  1       21 0.28423078E-01 0.25295220E+03</pdfrwt>
<pdfrwt beam="2">  1       21 0.58237234E-01 0.25295220E+03</pdfrwt>
<totfact> 0.31732815E+04</totfact>
</mgrwt>
</event>
<event>
12    1  0.1050690E-001  0.2807818E+03  0.7546771E-02  0.1095300E+00
         21   -1    0    0  501  502  0.00000000000E+00  0.00000000000E+00  0.46082272794E+03  0.46082272794E+03  0.00000000000E+00 0. -1.
         21   -1    0    0  502  503 -0.00000000000E+00 -0.00000000000E+00 -0.17097440455E+03  0.17097440455E+03  0.00000000000E+00 0. -1.
         -6    2    1    2    0  503  0.20464358568E+03 -0.83333162061E+02  0.13902557433E+03  0.31331537112E+03  0.17324837202E+03 0.  0.
        -24    2    3    3    0    0  0.22606880519E+03 -0.61113423389E+02  0.11814726058E+03  0.27575540836E+03  0.85090039697E+02 0.  0.
          6    2    1    2  501    0 -0.20464358568E+03  0.83333162061E+02  0.15082274907E+03  0.31848176137E+03  0.17279964592E+03 0.  0.
         24    2    5    5    0    0 -0.16913385607E+03  0.92990637290E+02  0.56786851584E+02  0.21739245560E+03  0.82348122921E+02 0.  0.
          5    1    5    5  501    0 -0.35509729606E+02 -0.96574752290E+01  0.94035897483E+02  0.10108930576E+03  0.47000000000E+01 0. -1.
        -11    1    6    6    0    0 -0.28830855727E+02  0.31661277858E+02 -0.18638950747E+02  0.46701876220E+02  0.00000000000E+00 0.  1.
         12    1    6    6    0    0 -0.14030300034E+03  0.61329359432E+02  0.75425802331E+02  0.17069057938E+03  0.00000000000E+00 0. -1.
         -5    1    3    3    0  503 -0.21425219517E+02 -0.22219738671E+02  0.20878313748E+02  0.37559962766E+02  0.47000000000E+01 0.  1.
         13    1    4    4    0    0  0.35172259670E+02 -0.44991650641E+02  0.34447606054E+02  0.66693133384E+02  0.00000000000E+00 0. -1.
        -14    1    4    4    0    0  0.19089654552E+03 -0.16121772748E+02  0.83699654524E+02  0.20906227497E+03  0.00000000000E+00 0.  1.
<mgrwt>
<rscale>  2 0.28071260E+03</rscale>
<asrwt>0</asrwt>
<pdfrwt beam="1">  1       21 0.70895804E-01 0.28078179E+03</pdfrwt>
<pdfrwt beam="2">  1       21 0.26303755E-01 0.28078179E+03</pdfrwt>
<totfact> 0.23693743E+04</totfact>
</mgrwt>
</event>
<event>
12    1  0.1050690E-001  0.1875287E+03  0.7546771E-02  0.1161088E+00
         21   -1    0    0  501  502  0.00000000000E+00  0.00000000000E+00  0.30460756514E+02  0.30460756514E+02  0.00000000000E+00 0.  1.
         21   -1    0    0  502  503 -0.00000000000E+00 -0.00000000000E+00 -0.12094225821E+04  0.12094225821E+04  0.00000000000E+00 0.  1.
         -6    2    1    2    0  503 -0.89610749058E+01 -0.68022388494E+02 -0.44329615741E+03  0.48069233456E+03  0.17276079163E+03 0.  0.
        -24    2    3    3    0    0 -0.51178819170E+02 -0.67016919771E+02 -0.41238138873E+03  0.42814557613E+03  0.78356145422E+02 0.  0.
          6    2    1    2  501    0  0.89610749058E+01  0.68022388494E+02 -0.73566566817E+03  0.75919100405E+03  0.17452695812E+03 0.  0.
         24    2    5    5    0    0  0.38757795619E+02  0.34377982769E+02 -0.68369209205E+03  0.69032059519E+03  0.80147582584E+02 0.  0.
          5    1    5    5  501    0 -0.29796720713E+02  0.33644405725E+02 -0.51973576118E+02  0.68870408858E+02  0.47000000000E+01 0. -1.
        -13    1    6    6    0    0 -0.22933969360E+02  0.73372040897E+01 -0.10521606566E+03  0.10793619406E+03  0.00000000000E+00 0.  1.
         14    1    6    6    0    0  0.61691764979E+02  0.27040778679E+02 -0.57847602639E+03  0.58238440113E+03  0.00000000000E+00 0. -1.
         -5    1    3    3    0  503  0.42217744264E+02 -0.10054687228E+01 -0.30914768683E+02  0.52546758424E+02  0.47000000000E+01 0.  1.
         13    1    4    4    0    0  0.15299654514E+02  0.65266403407E-01 -0.11794900140E+03  0.11893717089E+03  0.00000000000E+00 0. -1.
        -14    1    4    4    0    0 -0.66478473684E+02 -0.67082186174E+02 -0.29443238733E+03  0.30920840524E+03  0.00000000000E+00 0.  1.
<mgrwt>
<rscale>  2 0.18711667E+03</rscale>
<asrwt>0</asrwt>
<pdfrwt beam="1">  1       21 0.46862706E-02 0.18752868E+03</pdfrwt>
<pdfrwt beam="2">  1       21 0.18606500E+00 0.18752868E+03</pdfrwt>
<totfact> 0.49874651E+04</totfact>
</mgrwt>
</event>
<event>
12    1  0.1050690E-001  0.2048307E+03  0.7546771E-02  0.1145970E+00
         21   -1    0    0  501  502  0.00000000000E+00  0.00000000000E+00  0.32483070955E+03  0.32483070955E+03  0.00000000000E+00 0. -1.
         21   -1    0    0  502  503 -0.00000000000E+00 -0.00000000000E+00 -0.13468281161E+03  0.13468281161E+03  0.00000000000E+00 0. -1.
         -6    2    1    2    0  503  0.68313237733E+02  0.86230375497E+02  0.45237237983E+02  0.20860577234E+03  0.17136973024E+03 0.  0.
        -24    2    3    3    0    0  0.98216987706E+02  0.76510413494E+02 -0.56563485491E+01  0.14859778059E+03  0.80925188102E+02 0.  0.
          6    2    1    2  501    0 -0.68313237733E+02 -0.86230375497E+02  0.14491065996E+03  0.25090774882E+03  0.17278085236E+03 0.  0.
         24    2    5    5    0    0 -0.85774819295E+02 -0.47722099996E+02  0.16083434599E+03  0.20548255879E+03  0.81979733253E+02 0.  0.
          5    1    5    5  501    0  0.17461581563E+02 -0.38508275501E+02 -0.15923686028E+02  0.45425190032E+02  0.47000000000E+01 0. -1.
        -11    1    6    6    0    0 -0.42271404664E+02  0.13003567445E+02  0.25903395718E+02  0.51253783551E+02  0.00000000000E+00 0.  1.
         12    1    6    6    0    0 -0.43503414631E+02 -0.60725667442E+02  0.13493095027E+03  0.15422877524E+03  0.00000000000E+00 0. -1.
         -5    1    3    3    0  503 -0.29903749973E+02  0.97199620034E+01  0.50893586532E+02  0.60007991750E+02  0.47000000000E+01 0.  1.
         13    1    4    4    0    0  0.24464446131E+02  0.50717446412E+02  0.28750644059E+02  0.63224742220E+02  0.00000000000E+00 0. -1.
        -14    1    4    4    0    0  0.73752541575E+02  0.25792967082E+02 -0.34406992608E+02  0.85373038367E+02  0.00000000000E+00 0.  1.
<mgrwt>
<rscale>  2 0.20453278E+03</rscale>
<asrwt>0</asrwt>
<pdfrwt beam="1">  1       21 0.49973955E-01 0.20483066E+03</pdfrwt>
<pdfrwt beam="2">  1       21 0.20720433E-01 0.20483066E+03</pdfrwt>
<totfact> 0.81981654E+04</totfact>
</mgrwt>
</event>
<event>
12    1  0.1050690E-001  0.2260279E+03  0.7546771E-02  0.1129508E+00
         21   -1    0    0  501  502  0.00000000000E+00  0.00000000000E+00  0.58024654046E+02  0.58024654046E+02  0.00000000000E+00 0.  1.
         21   -1    0    0  502  503 -0.00000000000E+00 -0.00000000000E+00 -0.13960590433E+04  0.13960590433E+04  0.00000000000E+00 0. -1.
         -6    2    1    2    0  503  0.14618254215E+03 -0.40797189912E+00 -0.11114436398E+04  0.11341938048E+04  0.17239234454E+03 0.  0.
        -24    2    3    3    0    0  0.17156831564E+03 -0.22762611789E+01 -0.10590825133E+04  0.10757839977E+04  0.78832553469E+02 0.  0.
          6    2    1    2  501    0 -0.14618254215E+03  0.40797189912E+00 -0.22659074947E+03  0.31988989251E+03  0.17209495493E+03 0.  0.
         24    2    5    5    0    0 -0.10978056273E+03  0.30104052385E+02 -0.23446789184E+03  0.27202444909E+03  0.77872220180E+02 0.  0.
          5    1    5    5  501    0 -0.36401979412E+02 -0.29696080486E+02  0.78771423684E+01  0.47865443414E+02  0.47000000000E+01 0. -1.
        -13    1    6    6    0    0 -0.86069602136E+01  0.33361239208E+02 -0.40032430614E+02  0.52817114143E+02  0.00000000000E+00 0.  1.
         14    1    6    6    0    0 -0.10117360252E+03 -0.32571868229E+01 -0.19443546123E+03  0.21920733495E+03  0.00000000000E+00 0. -1.
         -5    1    3    3    0  503 -0.25385773496E+02  0.18682892798E+01 -0.52361126493E+02  0.58409807126E+02  0.47000000000E+01 0.  1.
         11    1    4    4    0    0  0.67194161981E+02 -0.32804140848E+01 -0.65470893762E+03  0.65815621969E+03  0.00000000000E+00 0. -1.
        -12    1    4    4    0    0  0.10437415366E+03  0.10041529060E+01 -0.40437357564E+03  0.41762777800E+03  0.00000000000E+00 0.  1.
<mgrwt>
<rscale>  2 0.22597122E+03</rscale>
<asrwt>0</asrwt>
<pdfrwt beam="1">  1       21 0.89268707E-02 0.22602792E+03</pdfrwt>
<pdfrwt beam="2">  1       21 0.21477829E+00 0.22602792E+03</pdfrwt>
<totfact> 0.10445015E+04</totfact>
</mgrwt>
</event>
<event>
12    1  0.1050690E-001  0.2375318E+03  0.7546771E-02  0.1121946E+00
         21   -1    0    0  501  502  0.00000000000E+00  0.00000000000E+00  0.68852017689E+03  0.68852017689E+03  0.00000000000E+00 0. -1.
         21   -1    0    0  502  503 -0.00000000000E+00 -0.00000000000E+00 -0.80937960216E+02  0.80937960216E+02  0.00000000000E+00 0.  1.
         -6    2    1    2    0  503 -0.58345220244E+02  0.15165800288E+03  0.30182888913E+03  0.38228058771E+03  0.16921422772E+03 0.  0.
        -24    2    3    3    0    0 -0.92439991285E+02  0.59643150983E+02  0.18631315834E+03  0.23063903522E+03  0.79870608787E+02 0.  0.
          6    2    1    2  501    0  0.58345220244E+02 -0.15165800288E+03  0.30575332755E+03  0.38717754940E+03  0.17325427235E+03 0.  0.
         24    2    5    5    0    0  0.10214176529E+03 -0.13895035117E+03  0.24897562684E+03  0.31420208045E+03  0.83629805047E+02 0.  0.
          5    1    5    5  501    0 -0.43796545048E+02 -0.12707651718E+02  0.56777700709E+02  0.72975468948E+02  0.47000000000E+01 0. -1.
        -11    1    6    6    0    0  0.95490265412E+02 -0.11839619039E+03  0.15269251213E+03  0.21552506106E+03  0.00000000000E+00 0.  1.
         12    1    6    6    0    0  0.66514998805E+01 -0.20554160778E+02  0.96283114714E+02  0.98677019387E+02  0.00000000000E+00 0. -1.
         -5    1    3    3    0  503  0.34094771040E+02  0.92014851901E+02  0.11551573079E+03  0.15164155250E+03  0.47000000000E+01 0.  1.
         13    1    4    4    0    0 -0.66413284577E+02  0.77194825601E+02  0.12081314925E+03  0.15800500783E+03  0.00000000000E+00 0. -1.
        -14    1    4    4    0    0 -0.26026706708E+02 -0.17551674617E+02  0.65500009083E+02  0.72634027383E+02  0.00000000000E+00 0.  1.
<mgrwt>
<rscale>  2 0.23679576E+03</rscale>
<asrwt>0</asrwt>
<pdfrwt beam="1">  1       21 0.10592618E+00 0.23753180E+03</pdfrwt>
<pdfrwt beam="2">  1       21 0.12451994E-01 0.23753180E+03</pdfrwt>
<totfact> 0.38392549E+04</totfact>
</mgrwt>
</event>
<event>
12    1  0.1050690E-001  0.3196328E+03  0.7546771E-02  0.1075872E+00
         21   -1    0    0  503  502  0.00000000000E+00  0.00000000000E+00  0.17090839921E+04  0.17090839921E+04  0.00000000000E+00 0.  1.
         21   -1    0    0  501  503 -0.00000000000E+00 -0.00000000000E+00 -0.59701261371E+02  0.59701261371E+02  0.00000000000E+00 0.  1.
          6    2    1    2  501    0 -0.26697550756E+03  0.28422207626E+02  0.83652958300E+03  0.89551487064E+03  0.17343989385E+03 0.  0.
         24    2    3    3    0    0 -0.18505982381E+03  0.28105806318E+02  0.37507311874E+03  0.42682047366E+03  0.80366644782E+02 0.  0.
         -6    2    1    2    0  502  0.26697550756E+03 -0.28422207626E+02  0.81285314774E+03  0.87327038285E+03  0.17258962379E+03 0.  0.
        -24    2    5    5    0    0  0.15356276169E+03 -0.79583377574E+02  0.42367398517E+03  0.46466002221E+03  0.80586939207E+02 0.  0.
          5    1    3    3  501    0 -0.81915683744E+02  0.31640130779E+00  0.46145646426E+03  0.46869439698E+03  0.47000000000E+01 0. -1.
        -11    1    4    4    0    0 -0.18902066784E+03  0.25452409596E+02  0.37632002278E+03  0.42189263749E+03  0.00000000000E+00 0.  1.
         12    1    4    4    0    0  0.39608440233E+01  0.26533967220E+01 -0.12469040457E+01  0.49278361621E+01  0.00000000000E+00 0. -1.
         -5    1    5    5    0  502  0.11341274587E+03  0.51161169949E+02  0.38917916257E+03  0.40861036063E+03  0.47000000000E+01 0.  1.
         13    1    6    6    0    0  0.14380450497E+03 -0.72799192343E+02  0.30123864936E+03  0.34164920887E+03  0.00000000000E+00 0. -1.
        -14    1    6    6    0    0  0.97582567129E+01 -0.67841852318E+01  0.12243533581E+03  0.12301081334E+03  0.00000000000E+00 0.  1.
<mgrwt>
<rscale>  2 0.31951761E+03</rscale>
<asrwt>0</asrwt>
<pdfrwt beam="1">  1       21 0.26293596E+00 0.31963282E+03</pdfrwt>
<pdfrwt beam="2">  1       21 0.91848107E-02 0.31963282E+03</pdfrwt>
<totfact> 0.47412978E+03</totfact>
</mgrwt>
</event>
<event>
12    1  0.1050690E-001  0.2110443E+03  0.7546771E-02  0.1140808E+00
         21   -1    0    0  501  502  0.00000000000E+00  0.00000000000E+00  0.30022849267E+03  0.30022849267E+03  0.00000000000E+00 0.  1.
         21   -1    0    0  502  503 -0.00000000000E+00 -0.00000000000E+00 -0.17428197313E+03  0.17428197313E+03  0.00000000000E+00 0.  1.
         -6    2    1    2    0  503  0.11458769079E+03 -0.35241993770E+02 -0.28912405696E+02  0.21301550243E+03  0.17368747815E+03 0.  0.
        -24    2    3    3    0    0  0.35133025292E+02 -0.71291300035E+02  0.17072310378E+02  0.11427705771E+03  0.80318137499E+02 0.  0.
          6    2    1    2  501    0 -0.11458769079E+03  0.35241993770E+02  0.15485892523E+03  0.26149496337E+03  0.17328009735E+03 0.  0.
         24    2    5    5    0    0 -0.31043407992E+02  0.69743052158E+02  0.49504401928E+02  0.12260063016E+03  0.82173245038E+02 0.  0.
          5    1    5    5  501    0 -0.83544282802E+02 -0.34501058387E+02  0.10535452330E+03  0.13889433322E+03  0.47000000000E+01 0. -1.
        -11    1    6    6    0    0  0.26421583587E+02  0.79382611857E+01  0.15238446107E+02  0.31517079650E+02  0.00000000000E+00 0.  1.
         12    1    6    6    0    0 -0.57464991579E+02  0.61804790972E+02  0.34265955821E+02  0.91083550505E+02  0.00000000000E+00 0. -1.
         -5    1    3    3    0  503  0.79454665502E+02  0.36049306264E+02 -0.45984716074E+02  0.98738444714E+02  0.47000000000E+01 0.  1.
         11    1    4    4    0    0  0.24871602600E+00  0.12873725824E+02  0.19230879866E+02  0.23143496207E+02  0.00000000000E+00 0. -1.
        -12    1    4    4    0    0  0.34884309266E+02 -0.84165025859E+02 -0.21585694882E+01  0.91133561507E+02  0.00000000000E+00 0.  1.
<mgrwt>
<rscale>  2 0.21096042E+03</rscale>
<asrwt>0</asrwt>
<pdfrwt beam="1">  1       21 0.46188999E-01 0.21104425E+03</pdfrwt>
<pdfrwt beam="2">  1       21 0.26812611E-01 0.21104425E+03</pdfrwt>
<totfact> 0.58983129E+04</totfact>
</mgrwt>
</event>
<event>
12    1  0.1050690E-001  0.4521288E+03  0.7546771E-02  0.1027186E+00
         21   -1    0    0  503  502  0.00000000000E+00  0.00000000000E+00  0.16524798221E+04  0.16524798221E+04  0.00000000000E+00 0. -1.
         21   -1    0    0  501  503 -0.00000000000E+00 -0.00000000000E+00 -0.30885559764E+03  0.30885559764E+03  0.00000000000E+00 0.  1.
          6    2    1    2  501    0  0.33808037016E+03  0.24482054635E+03 -0.87818704573E+02  0.46057849841E+03  0.17373828513E+03 0.  0.
         24    2    3    3    0    0  0.30353804599E+03  0.24696241889E+03 -0.11557381007E+03  0.41596688940E+03  0.80903435006E+02 0.  0.
         -6    2    1    2    0  502 -0.33808037016E+03 -0.24482054635E+03  0.14314429290E+04  0.15007569213E+04  0.17031453612E+03 0.  0.
        -24    2    5    5    0    0 -0.29802713735E+03 -0.26416316223E+03  0.12967378388E+04  0.13588204933E+04  0.79131281568E+02 0.  0.
          5    1    3    3  501    0  0.34542324173E+02 -0.21418725420E+01  0.27755105496E+02  0.44611609008E+02  0.47000000000E+01 0. -1.
        -11    1    4    4    0    0  0.12300383618E+03  0.63854188229E+02 -0.68341047744E+02  0.15452443133E+03  0.00000000000E+00 0.  1.
         12    1    4    4    0    0  0.18053420981E+03  0.18310823066E+03 -0.47232762325E+02  0.26144245807E+03  0.00000000000E+00 0. -1.
         -5    1    5    5    0  502 -0.40053232815E+02  0.19342615883E+02  0.13470509026E+03  0.14193642799E+03  0.47000000000E+01 0.  1.
         13    1    6    6    0    0 -0.21962507796E+03 -0.21325941973E+03  0.87997914833E+03  0.93170706580E+03  0.00000000000E+00 0. -1.
        -14    1    6    6    0    0 -0.78402059386E+02 -0.50903742504E+02  0.41675869046E+03  0.42711342754E+03  0.00000000000E+00 0.  1.
<mgrwt>
<rscale>  2 0.45180228E+03</rscale>
<asrwt>0</asrwt>
<pdfrwt beam="1">  1       21 0.25422766E+00 0.45212877E+03</pdfrwt>
<pdfrwt beam="2">  1       21 0.47516247E-01 0.45212877E+03</pdfrwt>
<totfact> 0.21152470E+02</totfact>
</mgrwt>
</event>
<event>
12    1  0.1050690E-001  0.1895548E+03  0.7546771E-02  0.1158866E+00
         21   -1    0    0  501  502  0.00000000000E+00  0.00000000000E+00  0.60572349351E+03  0.60572349351E+03  0.00000000000E+00 0.  1.
         21   -1    0    0  502  503 -0.00000000000E+00 -0.00000000000E+00 -0.91664943777E+02  0.91664943777E+02  0.00000000000E+00 0. -1.
         -6    2    1    2    0  503  0.42377883749E+02 -0.66462497989E+02  0.49882297151E+02  0.19599975879E+03  0.17237898133E+03 0.  0.
        -24    2    3    3    0    0  0.92341168941E+02 -0.43920133389E+02  0.51936448822E+02  0.14094707849E+03  0.81931768074E+02 0.  0.
          6    2    1    2  501    0 -0.42377883749E+02  0.66462497989E+02  0.46417625258E+03  0.50138867850E+03  0.17238870264E+03 0.  0.
         24    2    5    5    0    0  0.33760730719E+02  0.31936883899E+02  0.34383735348E+03  0.35478497023E+03  0.74084397564E+02 0.  0.
          5    1    5    5  501    0 -0.76138614468E+02  0.34525614090E+02  0.12033889910E+03  0.14660370827E+03  0.47000000000E+01 0. -1.
        -13    1    6    6    0    0  0.44044393743E+02  0.16286115637E+02  0.10275890088E+03  0.11298025444E+03  0.00000000000E+00 0.  1.
         14    1    6    6    0    0 -0.10283663024E+02  0.15650768262E+02  0.24107845260E+03  0.24180471579E+03  0.00000000000E+00 0. -1.
         -5    1    3    3    0  503 -0.49963285191E+02 -0.22542364600E+02 -0.20541516713E+01  0.55052680298E+02  0.47000000000E+01 0.  1.
         13    1    4    4    0    0  0.54767580995E+02 -0.43867910657E+02 -0.75631390904E+01  0.70576785039E+02  0.00000000000E+00 0. -1.
        -14    1    4    4    0    0  0.37573587945E+02 -0.52222731925E-01  0.59499587913E+02  0.70370293449E+02  0.00000000000E+00 0.  1.
<mgrwt>
<rscale>  2 0.18955257E+03</rscale>
<asrwt>0</asrwt>
<pdfrwt beam="1">  1       21 0.93188227E-01 0.18955478E+03</pdfrwt>
<pdfrwt beam="2">  1       21 0.14102299E-01 0.18955478E+03</pdfrwt>
<totfact> 0.42588093E+04</totfact>
</mgrwt>
</event>
<event>
12    1  0.1050690E-001  0.2087156E+03  0.7546771E-02  0.1142625E+00
         21   -1    0    0  503  502  0.00000000000E+00  0.00000000000E+00  0.62608087128E+03  0.62608087128E+03  0.00000000000E+00 0.  1.
         21   -1    0    0  501  503 -0.00000000000E+00 -0.00000000000E+00 -0.78932991934E+02  0.78932991934E+02  0.00000000000E+00 0.  1.
          6    2    1    2  501    0 -0.74123652724E+02 -0.92270705663E+02  0.39522494405E+03  0.44686125586E+03  0.17168001216E+03 0.  0.
         24    2    3    3    0    0 -0.30763022411E+02 -0.12528959519E+03  0.27454085642E+03  0.31435793389E+03  0.82488681304E+02 0.  0.
         -6    2    1    2    0  502  0.74123652724E+02  0.92270705663E+02  0.15192293530E+03  0.25815260735E+03  0.17191274355E+03 0.  0.
        -24    2    5    5    0    0  0.11636246424E+03  0.86268729518E+02  0.11561799882E+03  0.20193624560E+03  0.80176111534E+02 0.  0.
          5    1    3    3  501    0 -0.43360630313E+02  0.33018889531E+02  0.12068408763E+03  0.13250332197E+03  0.47000000000E+01 0. -1.
        -13    1    4    4    0    0 -0.31719523682E+02 -0.62897867405E+02  0.65454424702E+02  0.96158991362E+02  0.00000000000E+00 0.  1.
         14    1    4    4    0    0  0.95650127111E+00 -0.62391727790E+02  0.20908643172E+03  0.21819894253E+03  0.00000000000E+00 0. -1.
         -5    1    5    5    0  502 -0.42238811514E+02  0.60019761455E+01  0.36304936472E+02  0.56216361746E+02  0.47000000000E+01 0.  1.
         13    1    6    6    0    0  0.28947905316E+02  0.95955354317E+01 -0.87021561343E+01  0.31714082736E+02  0.00000000000E+00 0. -1.
        -14    1    6    6    0    0  0.87414558922E+02  0.76673194086E+02  0.12432015496E+03  0.17022216287E+03  0.00000000000E+00 0.  1.
<mgrwt>
<rscale>  2 0.20866764E+03</rscale>
<asrwt>0</asrwt>
<pdfrwt beam="1">  1       21 0.96320131E-01 0.20871557E+03</pdfrwt>
<pdfrwt beam="2">  1       21 0.12143538E-01 0.20871557E+03</pdfrwt>
<totfact> 0.51105531E+04</totfact>
</mgrwt>
</event>
<event>
12    1  0.1050690E-001  0.1793971E+03  0.7546771E-02  0.1168772E+00
         21   -1    0    0  503  502  0.00000000000E+00  0.00000000000E+00  0.58709074331E+02  0.58709074331E+02  0.00000000000E+00 0.  1.
         21   -1    0    0  501  503 -0.00000000000E+00 -0.00000000000E+00 -0.56466528548E+03  0.56466528548E+03  0.00000000000E+00 0. -1.
          6    2    1    2  501    0  0.40122707045E+02 -0.24996017840E+02 -0.31241541394E+03  0.35947788794E+03  0.17142441051E+03 0.  0.
         24    2    3    3    0    0 -0.11414768417E+02 -0.67569340615E+02 -0.14317002732E+03  0.17744852195E+03  0.79337308313E+02 0.  0.
         -6    2    1    2    0  502 -0.40122707045E+02  0.24996017840E+02 -0.19354079720E+03  0.26389647187E+03  0.17305685527E+03 0.  0.
        -24    2    5    5    0    0 -0.65276333512E+02  0.70304688568E+02 -0.15587732352E+03  0.19966090682E+03  0.79768344427E+02 0.  0.
          5    1    3    3  501    0  0.51537475462E+02  0.42573322774E+02 -0.16924538662E+03  0.18202936599E+03  0.47000000000E+01 0. -1.
        -11    1    4    4    0    0 -0.20154072679E+02  0.11018667005E+02 -0.51481150022E+02  0.56372923250E+02  0.00000000000E+00 0.  1.
         12    1    4    4    0    0  0.87393042624E+01 -0.78588007619E+02 -0.91688877301E+02  0.12107559870E+03  0.00000000000E+00 0. -1.
         -5    1    5    5    0  502  0.25153626467E+02 -0.45308670728E+02 -0.37663473688E+02  0.64235565054E+02  0.47000000000E+01 0.  1.
         13    1    6    6    0    0 -0.26519591261E+02 -0.12695134485E+02 -0.19163027673E+02  0.35095253095E+02  0.00000000000E+00 0. -1.
        -14    1    6    6    0    0 -0.38756742251E+02  0.82999823053E+02 -0.13671429584E+03  0.16456565372E+03  0.00000000000E+00 0.  1.
<mgrwt>
<rscale>  2 0.17900221E+03</rscale>
<asrwt>0</asrwt>
<pdfrwt beam="1">  1       21 0.90321655E-02 0.17939707E+03</pdfrwt>
<pdfrwt beam="2">  1       21 0.86871580E-01 0.17939707E+03</pdfrwt>
<totfact> 0.11122057E+05</totfact>
</mgrwt>
</event>
<event>
12    1  0.1050690E-001  0.1832023E+03  0.7546771E-02  0.1164829E+00
         21   -1    0    0  501  502  0.00000000000E+00  0.00000000000E+00  0.14067827774E+03  0.14067827774E+03  0.00000000000E+00 0.  1.
         21   -1    0    0  502  503 -0.00000000000E+00 -0.00000000000E+00 -0.24981615948E+03  0.24981615948E+03  0.00000000000E+00 0.  1.
         -6    2    1    2    0  503 -0.19116579784E+02  0.57211506556E+02 -0.96927033353E+02  0.20726295570E+03  0.17298694432E+03 0.  0.
        -24    2    3    3    0    0 -0.10328385690E+02 -0.31364048018E+02 -0.12384053008E+02  0.84411554613E+02  0.76691373206E+02 0.  0.
          6    2    1    2  501    0  0.19116579784E+02 -0.57211506556E+02 -0.12210848387E+02  0.18323148152E+03  0.17258641574E+03 0.  0.
         24    2    5    5    0    0  0.57642717028E+02 -0.14110627830E+02  0.38305365696E+02  0.10631641874E+03  0.79461230848E+02 0.  0.
          5    1    5    5  501    0 -0.38526137244E+02 -0.43100878726E+02 -0.50516214083E+02  0.76915062784E+02  0.47000000000E+01 0. -1.
        -13    1    6    6    0    0  0.40184858088E+02  0.91133791055E+00  0.61602856185E+02  0.73556544552E+02  0.00000000000E+00 0.  1.
         14    1    6    6    0    0  0.17457858940E+02 -0.15021965741E+02 -0.23297490490E+02  0.32759874185E+02  0.00000000000E+00 0. -1.
         -5    1    3    3    0  503 -0.87881940943E+01  0.88575554573E+02 -0.84542980345E+02  0.12285140109E+03  0.47000000000E+01 0.  1.
         11    1    4    4    0    0  0.31637419039E+02 -0.26397817704E+02 -0.73448031645E+01  0.41853520718E+02  0.00000000000E+00 0. -1.
        -12    1    4    4    0    0 -0.41965804728E+02 -0.49662303135E+01 -0.50392498431E+01  0.42558033895E+02  0.00000000000E+00 0.  1.
<mgrwt>
<rscale>  2 0.18310769E+03</rscale>
<asrwt>0</asrwt>
<pdfrwt beam="1">  1       21 0.21642812E-01 0.18320230E+03</pdfrwt>
<pdfrwt beam="2">  1       21 0.38433255E-01 0.18320230E+03</pdfrwt>
<totfact> 0.13038054E+05</totfact>
</mgrwt>
</event>
<event>
12    1  0.1050690E-001  0.4085641E+03  0.7546771E-02  0.1040888E+00
         21   -1    0    0  501  502  0.00000000000E+00  0.00000000000E+00  0.11127329349E+03  0.11127329349E+03  0.00000000000E+00 0. -1.
         21   -1    0    0  502  503 -0.00000000000E+00 -0.00000000000E+00 -0.15713879480E+04  0.15713879480E+04  0.00000000000E+00 0.  1.
         -6    2    1    2    0  503 -0.14152299785E+02  0.36906598557E+03 -0.91072301652E+03  0.99800383316E+03  0.17373902522E+03 0.  0.
        -24    2    3    3    0    0  0.32028658549E+02  0.20079397836E+03 -0.37109938071E+03  0.43084961458E+03  0.81071470363E+02 0.  0.
          6    2    1    2  501    0  0.14152299785E+02 -0.36906598557E+03 -0.54939163796E+03  0.68465740831E+03  0.17468430267E+03 0.  0.
         24    2    5    5    0    0  0.17853110902E+02 -0.15674303780E+03 -0.14541198214E+03  0.22824051283E+03  0.77858677643E+02 0.  0.
          5    1    5    5  501    0 -0.37008111172E+01 -0.21232294778E+03 -0.40397965582E+03  0.45641689547E+03  0.47000000000E+01 0. -1.
        -13    1    6    6    0    0  0.15417110612E+02 -0.84176102349E+02 -0.12732966886E+03  0.15341495389E+03  0.00000000000E+00 0.  1.
         14    1    6    6    0    0  0.24360002902E+01 -0.72566935446E+02 -0.18082313276E+02  0.74825558941E+02  0.00000000000E+00 0. -1.
         -5    1    3    3    0  503 -0.46180958334E+02  0.16827200721E+03 -0.53962363582E+03  0.56715421858E+03  0.47000000000E+01 0.  1.
         13    1    4    4    0    0  0.55528062080E+02  0.11707101332E+03 -0.19028413220E+03  0.23021085727E+03  0.00000000000E+00 0. -1.
        -14    1    4    4    0    0 -0.23499403531E+02  0.83722965042E+02 -0.18081524850E+03  0.20063875731E+03  0.00000000000E+00 0.  1.
<mgrwt>
<rscale>  2 0.40846321E+03</rscale>
<asrwt>0</asrwt>
<pdfrwt beam="1">  1       21 0.17118969E-01 0.40856406E+03</pdfrwt>
<pdfrwt beam="2">  1       21 0.24175199E+00 0.40856406E+03</pdfrwt>
<totfact> 0.19484272E+03</totfact>
</mgrwt>
</event>
<event>
12    1  0.1050690E-001  0.1771845E+03  0.7546771E-02  0.1171269E+00
         21   -1    0    0  503  502  0.00000000000E+00  0.00000000000E+00  0.23257385849E+03  0.23257385849E+03  0.00000000000E+00 0.  1.
         21   -1    0    0  501  503 -0.00000000000E+00 -0.00000000000E+00 -0.36487960945E+03  0.36487960945E+03  0.00000000000E+00 0.  1.
          6    2    1    2  501    0  0.53413378287E+01 -0.36177498477E+02 -0.30457979690E+03  0.35236800821E+03  0.17336960299E+03 0.  0.
         24    2    3    3    0    0  0.44769360003E+02 -0.35103275707E+02 -0.29578584313E+03  0.31168451635E+03  0.80133870319E+02 0.  0.
         -6    2    1    2    0  502 -0.53413378287E+01  0.36177498477E+02  0.17227404595E+03  0.24508545973E+03  0.17044410926E+03 0.  0.
        -24    2    5    5    0    0  0.17288520243E+02 -0.42225678610E+02  0.62618014298E+02  0.10831666238E+03  0.75694007474E+02 0.  0.
          5    1    3    3  501    0 -0.39428022174E+02 -0.10742227697E+01 -0.87939537690E+01  0.40683491861E+02  0.47000000000E+01 0. -1.
        -13    1    4    4    0    0  0.13017978632E+02 -0.56952758373E+02 -0.20225093639E+03  0.21051965638E+03  0.00000000000E+00 0.  1.
         14    1    4    4    0    0  0.31751381371E+02  0.21849482666E+02 -0.93534906745E+02  0.10116485996E+03  0.00000000000E+00 0. -1.
         -5    1    5    5    0  502 -0.22629858071E+02  0.78403177086E+02  0.10965603165E+03  0.13676879736E+03  0.47000000000E+01 0.  1.
         11    1    6    6    0    0  0.10475732970E+02 -0.41152240788E+02  0.79472213491E+02  0.90105941093E+02  0.00000000000E+00 0. -1.
        -12    1    6    6    0    0  0.68127872728E+01 -0.10734378220E+01 -0.16854199194E+02  0.18210721283E+02  0.00000000000E+00 0.  1.
<mgrwt>
<rscale>  2 0.17646480E+03</rscale>
<asrwt>0</asrwt>
<pdfrwt beam="1">  1       21 0.35780594E-01 0.17718454E+03</pdfrwt>
<pdfrwt beam="2">  1       21 0.56135325E-01 0.17718454E+03</pdfrwt>
<totfact> 0.22701566E+04</totfact>
</mgrwt>
</event>
<event>
12    1  0.1050690E-001  0.1902264E+03  0.7546771E-02  0.1158346E+00
         21   -1    0    0  503  502  0.00000000000E+00  0.00000000000E+00  0.67261769836E+02  0.67261769836E+02  0.00000000000E+00 0. -1.
         21   -1    0    0  501  503 -0.00000000000E+00 -0.00000000000E+00 -0.16869772469E+04  0.16869772469E+04  0.00000000000E+00 0. -1.
          6    2    1    2  501    0  0.43397366323E+01 -0.78142148997E+02 -0.15343458066E+04  0.15460928640E+04  0.17338125886E+03 0.  0.
         24    2    3    3    0    0 -0.47772567065E+02 -0.78000298489E+02 -0.74842620052E+03  0.75843340101E+03  0.81934006457E+02 0.  0.
         -6    2    1    2    0  502 -0.43397366323E+01  0.78142148997E+02 -0.85369670472E+02  0.20814615281E+03  0.17295031520E+03 0.  0.
        -24    2    5    5    0    0 -0.13930051667E+02  0.99834242623E+01  0.19764332323E+02  0.82397059595E+02  0.78134061064E+02 0.  0.
          5    1    3    3  501    0  0.52112303697E+02 -0.14185050762E+00 -0.78591960610E+03  0.78765946294E+03  0.47000000000E+01 0. -1.
        -13    1    4    4    0    0 -0.42601721267E+02  0.55735672604E+00 -0.32127346541E+03  0.32408618742E+03  0.00000000000E+00 0.  1.
         14    1    4    4    0    0 -0.51708457978E+01 -0.78557655215E+02 -0.42715273512E+03  0.43434721359E+03  0.00000000000E+00 0. -1.
         -5    1    5    5    0  502  0.95903150347E+01  0.68158724734E+02 -0.10513400280E+03  0.12574909321E+03  0.47000000000E+01 0.  1.
         11    1    6    6    0    0 -0.40562487992E+02  0.16596760436E+02 -0.66265966738E+01  0.44324707247E+02  0.00000000000E+00 0. -1.
        -12    1    6    6    0    0  0.26632436325E+02 -0.66133361741E+01  0.26390928997E+02  0.38072352348E+02  0.00000000000E+00 0.  1.
<mgrwt>
<rscale>  2 0.19012817E+03</rscale>
<asrwt>0</asrwt>
<pdfrwt beam="1">  1       21 0.10347966E-01 0.19022642E+03</pdfrwt>
<pdfrwt beam="2">  1       21 0.25953494E+00 0.19022642E+03</pdfrwt>
<totfact> 0.44779735E+03</totfact>
</mgrwt>
</event>
<event>
12    1  0.1050690E-001  0.1880813E+03  0.7546771E-02  0.1160388E+00
         21   -1    0    0  503  502  0.00000000000E+00  0.00000000000E+00  0.17461138543E+03  0.17461138543E+03  0.00000000000E+00 0.  1.
         21   -1    0    0  501  503 -0.00000000000E+00 -0.00000000000E+00 -0.56157628866E+03  0.56157628866E+03  0.00000000000E+00 0.  1.
          6    2    1    2  501    0 -0.70488582832E+02  0.23728379032E+02 -0.48799003925E+03  0.52269137196E+03  0.17187296365E+03 0.  0.
         24    2    3    3    0    0 -0.13353702722E+02  0.36200553025E+02 -0.11678131795E+03  0.14687498805E+03  0.80284397464E+02 0.  0.
         -6    2    1    2    0  502  0.70488582832E+02 -0.23728379032E+02  0.10102513602E+03  0.21349630213E+03  0.17275102498E+03 0.  0.
        -24    2    5    5    0    0  0.10997516164E+03 -0.30290538709E+02  0.51200891329E+02  0.14941200448E+03  0.81794638555E+02 0.  0.
          5    1    3    3  501    0 -0.57134880109E+02 -0.12472173993E+02 -0.37120872130E+03  0.37581638391E+03  0.47000000000E+01 0. -1.
        -11    1    4    4    0    0 -0.58546804024E+01  0.18520172264E+02 -0.12462532527E+03  0.12612987657E+03  0.00000000000E+00 0.  1.
         12    1    4    4    0    0 -0.74990223197E+01  0.17680380761E+02  0.78440073202E+01  0.20745111483E+02  0.00000000000E+00 0. -1.
         -5    1    5    5    0  502 -0.39486578811E+02  0.65621596765E+01  0.49824244689E+02  0.64084297645E+02  0.47000000000E+01 0.  1.
         13    1    6    6    0    0 -0.56658160634E+01 -0.29899785324E+00 -0.12713887577E+02  0.13922421079E+02  0.00000000000E+00 0. -1.
        -14    1    6    6    0    0  0.11564097771E+03 -0.29991540855E+02  0.63914778906E+02  0.13548958340E+03  0.00000000000E+00 0.  1.
<mgrwt>
<rscale>  2 0.18787948E+03</rscale>
<asrwt>0</asrwt>
<pdfrwt beam="1">  1       21 0.26863290E-01 0.18808135E+03</pdfrwt>
<pdfrwt beam="2">  1       21 0.86396351E-01 0.18808135E+03</pdfrwt>
<totfact> 0.15279149E+04</totfact>
</mgrwt>
</event>
<event>
12    1  0.1050690E-001  0.3270349E+03  0.7546771E-02  0.1072527E+00
         21   -1    0    0  503  502  0.00000000000E+00  0.00000000000E+00  0.35679178960E+03  0.35679178960E+03  0.00000000000E+00 0. -1.
         21   -1    0    0  501  503 -0.00000000000E+00 -0.00000000000E+00 -0.47021862828E+03  0.47021862828E+03  0.00000000000E+00 0. -1.
          6    2    1    2  501    0  0.15603223335E+03  0.22927220857E+03 -0.30606407676E+03  0.44745679436E+03  0.17213529641E+03 0.  0.
         24    2    3    3    0    0  0.20314077167E+02  0.16310445087E+03 -0.18586910270E+03  0.25441143216E+03  0.56232818284E+02 0.  0.
         -6    2    1    2    0  502 -0.15603223335E+03 -0.22927220857E+03  0.19263723809E+03  0.37955362351E+03  0.17332063973E+03 0.  0.
        -24    2    5    5    0    0 -0.13589190409E+03 -0.15785298347E+03  0.20610421597E+03  0.30399048388E+03  0.80914105470E+02 0.  0.
          5    1    3    3  501    0  0.13571815619E+03  0.66167757708E+02 -0.12019497407E+03  0.19304536221E+03  0.47000000000E+01 0. -1.
        -13    1    4    4    0    0 -0.13206777736E+02  0.65404171923E+02 -0.99327524565E+02  0.11965818743E+03  0.00000000000E+00 0.  1.
         14    1    4    4    0    0  0.33520854903E+02  0.97700278943E+02 -0.86541578131E+02  0.13475324473E+03  0.00000000000E+00 0. -1.
         -5    1    5    5    0  502 -0.20140329263E+02 -0.71419225103E+02 -0.13466977885E+02  0.75563139629E+02  0.47000000000E+01 0.  1.
         11    1    6    6    0    0 -0.63443975558E+02 -0.11819481433E+03  0.90129642008E+02  0.16161220417E+03  0.00000000000E+00 0. -1.
        -12    1    6    6    0    0 -0.72447928531E+02 -0.39658169142E+02  0.11597457396E+03  0.14237827971E+03  0.00000000000E+00 0.  1.
<mgrwt>
<rscale>  2 0.32687816E+03</rscale>
<asrwt>0</asrwt>
<pdfrwt beam="1">  1       21 0.54891045E-01 0.32703493E+03</pdfrwt>
<pdfrwt beam="2">  1       21 0.72341327E-01 0.32703493E+03</pdfrwt>
<totfact> 0.49766209E+03</totfact>
</mgrwt>
</event>
<event>
12    1  0.1050690E-001  0.2008069E+03  0.7546771E-02  0.1149759E+00
         21   -1    0    0  501  502  0.00000000000E+00  0.00000000000E+00  0.19711474347E+04  0.19711474347E+04  0.00000000000E+00 0.  1.
         21   -1    0    0  502  503 -0.00000000000E+00 -0.00000000000E+00 -0.31181708268E+02  0.31181708268E+02  0.00000000000E+00 0. -1.
         -6    2    1    2    0  503  0.78526738503E+02 -0.57847524530E+02  0.15714194367E+04  0.15841977329E+04  0.17552955978E+03 0.  0.
        -24    2    3    3    0    0 -0.10784423586E+02 -0.47926431873E+02  0.11133158518E+04  0.11173402641E+04  0.81017487123E+02 0.  0.
          6    2    1    2  501    0 -0.78526738503E+02  0.57847524530E+02  0.36854628977E+03  0.41813141004E+03  0.17174027949E+03 0.  0.
         24    2    5    5    0    0 -0.38438410088E+02  0.23120822880E+02  0.34899290368E+03  0.36140890313E+03  0.82512208898E+02 0.  0.
          5    1    5    5  501    0 -0.40088328414E+02  0.34726701650E+02  0.19553386088E+02  0.56722506909E+02  0.47000000000E+01 0. -1.
        -11    1    6    6    0    0 -0.46738295736E+02  0.42253581114E+02  0.31712340823E+03  0.32332195943E+03  0.00000000000E+00 0.  1.
         12    1    6    6    0    0  0.82998856476E+01 -0.19132758234E+02  0.31869495457E+02  0.38086943696E+02  0.00000000000E+00 0. -1.
         -5    1    3    3    0  503  0.89311162089E+02 -0.99210926564E+01  0.45810358489E+03  0.46685746888E+03  0.47000000000E+01 0.  1.
         11    1    4    4    0    0 -0.13053118673E+02 -0.20940941945E+02  0.81140330288E+02  0.84809552268E+02  0.00000000000E+00 0. -1.
        -12    1    4    4    0    0  0.22686950874E+01 -0.26985489928E+02  0.10321755215E+04  0.10325307118E+04  0.00000000000E+00 0.  1.
<mgrwt>
<rscale>  2 0.19997583E+03</rscale>
<asrwt>0</asrwt>
<pdfrwt beam="1">  1       21 0.30325335E+00 0.20080690E+03</pdfrwt>
<pdfrwt beam="2">  1       21 0.47971874E-02 0.20080690E+03</pdfrwt>
<totfact> 0.93512231E+03</totfact>
</mgrwt>
</event>
<event>
12    1  0.1050690E-001  0.2192564E+03  0.7546771E-02  0.1136701E+00
         21   -1    0    0  503  502  0.00000000000E+00  0.00000000000E+00  0.52408486011E+02  0.52408486011E+02  0.00000000000E+00 0. -1.
         21   -1    0    0  501  503 -0.00000000000E+00 -0.00000000000E+00 -0.19328037864E+04  0.19328037864E+04  0.00000000000E+00 0. -1.
          6    2    1    2  501    0 -0.49997405120E+02 -0.97688614632E+02 -0.16649047839E+04  0.16777882168E+04  0.17613220843E+03 0.  0.
         24    2    3    3    0    0 -0.80746586581E+02 -0.47868996260E+02 -0.70284727777E+03  0.71393955558E+03  0.83089957878E+02 0.  0.
         -6    2    1    2    0  502  0.49997405120E+02  0.97688614632E+02 -0.21549051647E+03  0.30742405565E+03  0.18981723145E+03 0.  0.
        -24    2    5    5    0    0  0.75027013708E+02 -0.73830855530E+01 -0.89646417118E+02  0.14151633784E+03  0.79415559155E+02 0.  0.
          5    1    3    3  501    0  0.30749181460E+02 -0.49819618372E+02 -0.96205750616E+03  0.96384866120E+03  0.47000000000E+01 0. -1.
        -11    1    4    4    0    0 -0.73560971759E+02 -0.64015773037E+02 -0.66567628267E+03  0.67278090719E+03  0.00000000000E+00 0.  1.
         12    1    4    4    0    0 -0.71856148214E+01  0.16146776777E+02 -0.37170995100E+02  0.41158648391E+02  0.00000000000E+00 0. -1.
         -5    1    5    5    0  502 -0.25029608587E+02  0.10507170018E+03 -0.12584409935E+03  0.16590771781E+03  0.47000000000E+01 0.  1.
         13    1    6    6    0    0  0.91706660096E+02 -0.13227433333E+01 -0.73718043764E+02  0.11766992450E+03  0.00000000000E+00 0. -1.
        -14    1    6    6    0    0 -0.16679646388E+02 -0.60603422197E+01 -0.15928373354E+02  0.23846413340E+02  0.00000000000E+00 0.  1.
<mgrwt>
<rscale>  2 0.21626203E+03</rscale>
<asrwt>0</asrwt>
<pdfrwt beam="1">  1       21 0.80628436E-02 0.21925644E+03</pdfrwt>
<pdfrwt beam="2">  1       21 0.29735444E+00 0.21925644E+03</pdfrwt>
<totfact> 0.40628451E+03</totfact>
</mgrwt>
</event>
<event>
12    1  0.1050690E-001  0.2026407E+03  0.7546771E-02  0.1148117E+00
         21   -1    0    0  503  502  0.00000000000E+00  0.00000000000E+00  0.18041054333E+03  0.18041054333E+03  0.00000000000E+00 0. -1.
         21   -1    0    0  501  503 -0.00000000000E+00 -0.00000000000E+00 -0.44638432087E+03  0.44638432087E+03  0.00000000000E+00 0. -1.
          6    2    1    2  501    0 -0.88530048310E+02  0.45418873782E+02 -0.35442444427E+03  0.40826455273E+03  0.17652992600E+03 0.  0.
         24    2    3    3    0    0 -0.80551865606E+02  0.52115506887E+02 -0.36899764969E+03  0.38974524901E+03  0.80854588881E+02 0.  0.
         -6    2    1    2    0  502  0.88530048310E+02 -0.45418873782E+02  0.88450666728E+02  0.21853031146E+03  0.17329608488E+03 0.  0.
        -24    2    5    5    0    0 -0.21485512122E+02 -0.33636141636E+01  0.36000886259E+02  0.89514274206E+02  0.79017721707E+02 0.  0.
          5    1    3    3  501    0 -0.79781827034E+01 -0.66966331051E+01  0.14573205417E+02  0.18519303721E+02  0.47000000000E+01 0. -1.
        -13    1    4    4    0    0 -0.67617820523E+01 -0.20341082781E+02 -0.79134667987E+02  0.81986444139E+02  0.00000000000E+00 0.  1.
         14    1    4    4    0    0 -0.73790083554E+02  0.72456589668E+02 -0.28986298170E+03  0.30775880487E+03  0.00000000000E+00 0. -1.
         -5    1    5    5    0  502  0.11001556043E+03 -0.42055259618E+02  0.52449780469E+02  0.12901603726E+03  0.47000000000E+01 0.  1.
         13    1    6    6    0    0  0.58417233758E+01  0.31965965653E+02  0.56591473379E+00  0.32500291562E+02  0.00000000000E+00 0. -1.
        -14    1    6    6    0    0 -0.27327235498E+02 -0.35329579816E+02  0.35434971525E+02  0.57013982644E+02  0.00000000000E+00 0.  1.
<mgrwt>
<rscale>  2 0.20193432E+03</rscale>
<asrwt>0</asrwt>
<pdfrwt beam="1">  1       21 0.27755468E-01 0.20264071E+03</pdfrwt>
<pdfrwt beam="2">  1       21 0.68674511E-01 0.20264071E+03</pdfrwt>
<totfact> 0.23808508E+04</totfact>
</mgrwt>
</event>
<event>
12    1  0.1050690E-001  0.2497368E+03  0.7546771E-02  0.1113731E+00
         21   -1    0    0  503  502  0.00000000000E+00  0.00000000000E+00  0.48250691231E+03  0.48250691231E+03  0.00000000000E+00 0. -1.
         21   -1    0    0  501  503 -0.00000000000E+00 -0.00000000000E+00 -0.13157263515E+03  0.13157263515E+03  0.00000000000E+00 0. -1.
          6    2    1    2  501    0 -0.11720457905E+03 -0.12770541505E+03  0.12732641624E+03  0.27886478701E+03  0.17750483593E+03 0.  0.
         24    2    3    3    0    0 -0.10575716618E+03 -0.94471108569E+02  0.15992022607E+03  0.23069831705E+03  0.86820885909E+02 0.  0.
         -6    2    1    2    0  502  0.11720457905E+03  0.12770541505E+03  0.22360786092E+03  0.33521476046E+03  0.17978563286E+03 0.  0.
        -24    2    5    5    0    0  0.13624179910E+03  0.14831656885E+03  0.21552304980E+03  0.30563960908E+03  0.80035949558E+02 0.  0.
          5    1    3    3  501    0 -0.11447412869E+02 -0.33234306482E+02 -0.32593809834E+02  0.48166469958E+02  0.47000000000E+01 0. -1.
        -11    1    4    4    0    0 -0.53553443782E+01 -0.59529556432E+02  0.52225920107E+02  0.79372504896E+02  0.00000000000E+00 0.  1.
         12    1    4    4    0    0 -0.10040182180E+03 -0.34941552136E+02  0.10769430597E+03  0.15132581215E+03  0.00000000000E+00 0. -1.
         -5    1    5    5    0  502 -0.19037220055E+02 -0.20611153803E+02  0.80848111197E+01  0.29575151384E+02  0.47000000000E+01 0.  1.
         13    1    6    6    0    0  0.12927720079E+03  0.10274001610E+03  0.13691604916E+03  0.21450899764E+03  0.00000000000E+00 0. -1.
        -14    1    6    6    0    0  0.69645983145E+01  0.45576552752E+02  0.78607000641E+02  0.91130611433E+02  0.00000000000E+00 0.  1.
<mgrwt>
<rscale>  2 0.24932655E+03</rscale>
<asrwt>0</asrwt>
<pdfrwt beam="1">  1       21 0.74231832E-01 0.24973678E+03</pdfrwt>
<pdfrwt beam="2">  1       21 0.20241944E-01 0.24973678E+03</pdfrwt>
<totfact> 0.35708535E+04</totfact>
</mgrwt>
</event>
<event>
12    1  0.1050690E-001  0.1756623E+03  0.7546771E-02  0.1172174E+00
         21   -1    0    0  503  502  0.00000000000E+00  0.00000000000E+00  0.44793984730E+03  0.44793984730E+03  0.00000000000E+00 0. -1.
         21   -1    0    0  501  503 -0.00000000000E+00 -0.00000000000E+00 -0.34568257530E+03  0.34568257530E+03  0.00000000000E+00 0. -1.
          6    2    1    2  501    0 -0.17594536565E+01 -0.27283983754E+02 -0.30406845486E+03  0.35095116166E+03  0.17309413964E+03 0.  0.
         24    2    3    3    0    0 -0.31767654913E+02  0.27335653873E+02 -0.90514743023E+02  0.12844031968E+03  0.80917088077E+02 0.  0.
         -6    2    1    2    0  502  0.17594536565E+01  0.27283983754E+02  0.40632572686E+03  0.44267126095E+03  0.17352157652E+03 0.  0.
        -24    2    5    5    0    0 -0.49329942309E+02  0.51260106698E+02  0.33901633989E+03  0.35470749327E+03  0.76317005428E+02 0.  0.
          5    1    3    3  501    0  0.30008201257E+02 -0.54619637628E+02 -0.21355371184E+03  0.22251084198E+03  0.47000000000E+01 0. -1.
        -11    1    4    4    0    0 -0.74451432352E+01  0.53534944894E+02 -0.64912087614E+02  0.84468926837E+02  0.00000000000E+00 0.  1.
         12    1    4    4    0    0 -0.24322511678E+02 -0.26199291020E+02 -0.25602655409E+02  0.43971392840E+02  0.00000000000E+00 0. -1.
         -5    1    5    5    0  502  0.51089395965E+02 -0.23976122944E+02  0.67309386969E+02  0.87963767687E+02  0.47000000000E+01 0.  1.
         11    1    6    6    0    0  0.56852853634E+01  0.89934769726E+01  0.19038234855E+03  0.19067942662E+03  0.00000000000E+00 0. -1.
        -12    1    6    6    0    0 -0.55015227672E+02  0.42266629725E+02  0.14863399135E+03  0.16402806665E+03  0.00000000000E+00 0.  1.
<mgrwt>
<rscale>  2 0.17555667E+03</rscale>
<asrwt>0</asrwt>
<pdfrwt beam="1">  1       21 0.68913823E-01 0.17566232E+03</pdfrwt>
<pdfrwt beam="2">  1       21 0.53181935E-01 0.17566232E+03</pdfrwt>
<totfact> 0.65055461E+03</totfact>
</mgrwt>
</event>
<event>
12    1  0.1050690E-001  0.1924368E+03  0.7546771E-02  0.1156317E+00
         21   -1    0    0  503  502  0.00000000000E+00  0.00000000000E+00  0.84912231785E+03  0.84912231785E+03  0.00000000000E+00 0.  1.
         21   -1    0    0  501  503 -0.00000000000E+00 -0.00000000000E+00 -0.84365775786E+02  0.84365775786E+02  0.00000000000E+00 0.  1.
          6    2    1    2  501    0 -0.11037482217E+02  0.83390383575E+02  0.70683869475E+03  0.73252441491E+03  0.17290256204E+03 0.  0.
         24    2    3    3    0    0  0.31680355757E+02 -0.53344447264E+01  0.22248944008E+03  0.23824392841E+03  0.78908283696E+02 0.  0.
         -6    2    1    2    0  502  0.11037482217E+02 -0.83390383575E+02  0.57917847312E+02  0.20096367872E+03  0.17307842454E+03 0.  0.
        -24    2    5    5    0    0  0.72192266194E+02 -0.71628959617E+02  0.40842531558E+02  0.13621883256E+03  0.80901339946E+02 0.  0.
          5    1    3    3  501    0 -0.42717837973E+02  0.88724828301E+02  0.48434925467E+03  0.49428048650E+03  0.47000000000E+01 0. -1.
        -11    1    4    4    0    0  0.11198469230E+00 -0.87947016388E+00  0.19810387488E+03  0.19810585870E+03  0.00000000000E+00 0.  1.
         12    1    4    4    0    0  0.31568371065E+02 -0.44549745625E+01  0.24385565200E+02  0.40138069711E+02  0.00000000000E+00 0. -1.
         -5    1    5    5    0  502 -0.61154783977E+02 -0.11761423958E+02  0.17075315754E+02  0.64744846165E+02  0.47000000000E+01 0.  1.
         11    1    6    6    0    0  0.66376464890E+02 -0.12260392371E+02  0.75917204256E+01  0.67924859451E+02  0.00000000000E+00 0. -1.
        -12    1    6    6    0    0  0.58158013036E+01 -0.59368567245E+02  0.33250811132E+02  0.68293973105E+02  0.00000000000E+00 0.  1.
<mgrwt>
<rscale>  2 0.19239725E+03</rscale>
<asrwt>0</asrwt>
<pdfrwt beam="1">  1       21 0.13063420E+00 0.19243680E+03</pdfrwt>
<pdfrwt beam="2">  1       21 0.12979351E-01 0.19243680E+03</pdfrwt>
<totfact> 0.21769756E+04</totfact>
</mgrwt>
</event>
<event>
12    1  0.1050690E-001  0.2707539E+03  0.7546771E-02  0.1101113E+00
         21   -1    0    0  501  502  0.00000000000E+00  0.00000000000E+00  0.14335501751E+04  0.14335501751E+04  0.00000000000E+00 0.  1.
         21   -1    0    0  502  503 -0.00000000000E+00 -0.00000000000E+00 -0.55839498349E+02  0.55839498349E+02  0.00000000000E+00 0.  1.
         -6    2    1    2    0  503  0.20063124182E+03  0.47156633802E+02  0.46704025103E+03  0.53984650887E+03  0.17558762415E+03 0.  0.
        -24    2    3    3    0    0  0.46710541830E+02  0.29460682004E+02  0.28311328079E+03  0.29931387288E+03  0.79911565110E+02 0.  0.
          6    2    1    2  501    0 -0.20063124182E+03 -0.47156633802E+02  0.91067042568E+03  0.94954316453E+03  0.17272797631E+03 0.  0.
         24    2    5    5    0    0 -0.45588861075E+02 -0.54387062592E+02  0.27435467167E+03  0.29455442591E+03  0.80346295014E+02 0.  0.
          5    1    5    5  501    0 -0.15504238074E+03  0.72304287903E+01  0.63631575401E+03  0.65498873863E+03  0.47000000000E+01 0. -1.
        -13    1    6    6    0    0 -0.57544394378E+02 -0.34721703649E+02  0.11230917116E+03  0.13088278709E+03  0.00000000000E+00 0.  1.
         14    1    6    6    0    0  0.11955533303E+02 -0.19665358944E+02  0.16204550051E+03  0.16367163882E+03  0.00000000000E+00 0. -1.
         -5    1    3    3    0  503  0.15392069999E+03  0.17695951798E+02  0.18392697024E+03  0.24053263599E+03  0.47000000000E+01 0.  1.
         13    1    4    4    0    0  0.20107691728E+02  0.54832356005E+02  0.20170578408E+03  0.20999078519E+03  0.00000000000E+00 0. -1.
        -14    1    4    4    0    0  0.26602850102E+02 -0.25371674001E+02  0.81407496706E+02  0.89323087694E+02  0.00000000000E+00 0.  1.
<mgrwt>
<rscale>  2 0.27029126E+03</rscale>
<asrwt>0</asrwt>
<pdfrwt beam="1">  1       21 0.22054615E+00 0.27075387E+03</pdfrwt>
<pdfrwt beam="2">  1       21 0.85906931E-02 0.27075387E+03</pdfrwt>
<totfact> 0.99696790E+03</totfact>
</mgrwt>
</event>
<event>
12    1  0.1050690E-001  0.1910897E+03  0.7546771E-02  0.1161023E+00
         21   -1    0    0  503  502  0.00000000000E+00  0.00000000000E+00  0.16857420092E+03  0.16857420092E+03  0.00000000000E+00 0.  1.
         21   -1    0    0  501  503 -0.00000000000E+00 -0.00000000000E+00 -0.33991762067E+03  0.33991762067E+03  0.00000000000E+00 0.  1.
          6    2    1    2  501    0  0.90143382741E+01  0.20941119680E+02 -0.24675357912E+03  0.30306063617E+03  0.17446670628E+03 0.  0.
         24    2    3    3    0    0  0.68926054845E+02 -0.11010516212E+02 -0.14217291637E+03  0.17828273012E+03  0.81850847306E+02 0.  0.
         -6    2    1    2    0  502 -0.90143382741E+01 -0.20941119680E+02  0.75410159371E+02  0.20543118542E+03  0.18972477703E+03 0.  0.
        -24    2    5    5    0    0 -0.75676206218E+02  0.16907246204E+02  0.61723412928E+02  0.12742015757E+03  0.80083541945E+02 0.  0.
          5    1    3    3  501    0 -0.59911716571E+02  0.31951635891E+02 -0.10458066275E+03  0.12477790606E+03  0.47000000000E+01 0. -1.
        -11    1    4    4    0    0 -0.57945677526E+01 -0.28571259987E+02 -0.26117267275E+02  0.39140842641E+02  0.00000000000E+00 0.  1.
         12    1    4    4    0    0  0.74720622598E+02  0.17560743776E+02 -0.11605564910E+03  0.13914188748E+03  0.00000000000E+00 0. -1.
         -5    1    5    5    0  502  0.66661867944E+02 -0.37848365883E+02  0.13686746443E+02  0.78011027848E+02  0.47000000000E+01 0.  1.
         13    1    6    6    0    0 -0.14563449971E+02 -0.26970597724E+02  0.37393706769E+02  0.48350765481E+02  0.00000000000E+00 0. -1.
        -14    1    6    6    0    0 -0.61112756247E+02  0.43877843928E+02  0.24329706159E+02  0.79069392091E+02  0.00000000000E+00 0.  1.
<mgrwt>
<rscale>  2 0.18718685E+03</rscale>
<asrwt>0</asrwt>
<pdfrwt beam="1">  1       21 0.25934493E-01 0.19108972E+03</pdfrwt>
<pdfrwt beam="2">  1       21 0.52295018E-01 0.19108972E+03</pdfrwt>
<totfact> 0.49019462E+04</totfact>
</mgrwt>
</event>
<event>
12    1  0.1050690E-001  0.2552760E+03  0.7546771E-02  0.1110045E+00
         21   -1    0    0  503  502  0.00000000000E+00  0.00000000000E+00  0.24913454982E+03  0.24913454982E+03  0.00000000000E+00 0.  1.
         21   -1    0    0  501  503 -0.00000000000E+00 -0.00000000000E+00 -0.62266460579E+03  0.62266460579E+03  0.00000000000E+00 0.  1.
          6    2    1    2  501    0  0.18577354922E+03  0.22890819474E+02 -0.51883604440E+03  0.57823583578E+03  0.17358006682E+03 0.  0.
         24    2    3    3    0    0  0.13280884551E+03 -0.17949793464E+02 -0.46589591502E+03  0.49280772094E+03  0.88544122684E+02 0.  0.
         -6    2    1    2    0  502 -0.18577354922E+03 -0.22890819474E+02  0.14530598844E+03  0.29356331983E+03  0.17329105939E+03 0.  0.
        -24    2    5    5    0    0 -0.18250104916E+03 -0.45435676722E+02  0.68769104349E+02  0.21356979215E+03  0.74241718327E+02 0.  0.
          5    1    3    3  501    0  0.52964703712E+02  0.40840612938E+02 -0.52940129388E+02  0.85428114834E+02  0.47000000000E+01 0. -1.
        -13    1    4    4    0    0  0.46732151239E+02  0.35675673151E+02 -0.18841417633E+03  0.19737413573E+03  0.00000000000E+00 0.  1.
         14    1    4    4    0    0  0.86076694270E+02 -0.53625466615E+02 -0.27748173869E+03  0.29543358521E+03  0.00000000000E+00 0. -1.
         -5    1    5    5    0  502 -0.32725000605E+01  0.22544857248E+02  0.76536884086E+02  0.79993527679E+02  0.47000000000E+01 0.  1.
         11    1    6    6    0    0 -0.94572934789E+02 -0.22833265873E+02 -0.37687434011E+01  0.97363244871E+02  0.00000000000E+00 0. -1.
        -12    1    6    6    0    0 -0.87928114373E+02 -0.22602410849E+02  0.72537847750E+02  0.11620654728E+03  0.00000000000E+00 0.  1.
<mgrwt>
<rscale>  2 0.25522689E+03</rscale>
<asrwt>0</asrwt>
<pdfrwt beam="1">  1       21 0.38328392E-01 0.25527601E+03</pdfrwt>
<pdfrwt beam="2">  1       21 0.95794554E-01 0.25527601E+03</pdfrwt>
<totfact> 0.57117181E+03</totfact>
</mgrwt>
</event>
<event>
12    1  0.1050690E-001  0.1815789E+03  0.7546771E-02  0.1167735E+00
         21   -1    0    0  503  502  0.00000000000E+00  0.00000000000E+00  0.53887496086E+02  0.53887496086E+02  0.00000000000E+00 0.  1.
         21   -1    0    0  501  503 -0.00000000000E+00 -0.00000000000E+00 -0.97574593517E+03  0.97574593517E+03  0.00000000000E+00 0.  1.
          6    2    1    2  501    0  0.11953692353E+02  0.37528050929E+02 -0.13341006200E+03  0.22054645638E+03  0.17114686504E+03 0.  0.
         24    2    3    3    0    0  0.77405182772E+02  0.22550872445E+02 -0.10233015031E+03  0.14640966131E+03  0.66814856837E+02 0.  0.
         -6    2    1    2    0  502 -0.11953692353E+02 -0.37528050929E+02 -0.78844837708E+03  0.80908697487E+03  0.17725587216E+03 0.  0.
        -24    2    5    5    0    0 -0.38567388341E+02 -0.45231597290E+02 -0.23940685593E+03  0.25932674042E+03  0.80008591982E+02 0.  0.
          5    1    3    3  501    0 -0.65451490418E+02  0.14977178484E+02 -0.31079911693E+02  0.74136795076E+02  0.47000000000E+01 0. -1.
        -13    1    4    4    0    0  0.49611653894E+02 -0.12993131982E+02 -0.25415148701E+02  0.57236941430E+02  0.00000000000E+00 0.  1.
         14    1    4    4    0    0  0.27793528878E+02  0.35544004427E+02 -0.76915001606E+02  0.89172719877E+02  0.00000000000E+00 0. -1.
         -5    1    5    5    0  502  0.26613695987E+02  0.77035463611E+01 -0.54904152115E+03  0.54976023445E+03  0.47000000000E+01 0.  1.
         11    1    6    6    0    0 -0.21778825848E+01 -0.42142590406E+02 -0.20449538695E+03  0.20880398555E+03  0.00000000000E+00 0. -1.
        -12    1    6    6    0    0 -0.36389505756E+02 -0.30890068845E+01 -0.34911468985E+02  0.50522754867E+02  0.00000000000E+00 0.  1.
<mgrwt>
<rscale>  2 0.18007055E+03</rscale>
<asrwt>0</asrwt>
<pdfrwt beam="1">  1       21 0.82903847E-02 0.18157888E+03</pdfrwt>
<pdfrwt beam="2">  1       21 0.15011475E+00 0.18157888E+03</pdfrwt>
<totfact> 0.33867987E+04</totfact>
</mgrwt>
</event>
<event>
12    1  0.1050690E-001  0.1821896E+03  0.7546771E-02  0.1166600E+00
         21   -1    0    0  503  502  0.00000000000E+00  0.00000000000E+00  0.24857041825E+03  0.24857041825E+03  0.00000000000E+00 0.  1.
         21   -1    0    0  501  503 -0.00000000000E+00 -0.00000000000E+00 -0.22106975061E+03  0.22106975061E+03  0.00000000000E+00 0.  1.
          6    2    1    2  501    0 -0.21809615891E+02 -0.40583296775E+02 -0.13620321809E+03  0.22747387708E+03  0.17626793472E+03 0.  0.
         24    2    3    3    0    0  0.26595765306E+02  0.91893731231E+01 -0.12960828581E+02  0.85942339353E+02  0.80164351837E+02 0.  0.
         -6    2    1    2    0  502  0.21809615891E+02  0.40583296775E+02  0.16370388574E+03  0.24216629179E+03  0.17240326955E+03 0.  0.
        -24    2    5    5    0    0  0.43024984251E+02 -0.10257661210E+02  0.26964567035E+02  0.94671796492E+02  0.79241985666E+02 0.  0.
          5    1    3    3  501    0 -0.48405381197E+02 -0.49772669898E+02 -0.12324238951E+03  0.14153153772E+03  0.47000000000E+01 0. -1.
        -13    1    4    4    0    0  0.31340926452E+02  0.22429334853E+02 -0.39949126523E+02  0.55509111349E+02  0.00000000000E+00 0.  1.
         14    1    4    4    0    0 -0.47451611461E+01 -0.13239961730E+02  0.26988297942E+02  0.30433228004E+02  0.00000000000E+00 0. -1.
         -5    1    5    5    0  502 -0.21215368359E+02  0.50840957985E+02  0.13673931870E+03  0.14749449529E+03  0.47000000000E+01 0.  1.
         13    1    6    6    0    0  0.39650412116E+00 -0.31967342239E+02 -0.10777678818E+02  0.33737613224E+02  0.00000000000E+00 0. -1.
        -14    1    6    6    0    0  0.42628480130E+02  0.21709681029E+02  0.37742245853E+02  0.60934183268E+02  0.00000000000E+00 0.  1.
<mgrwt>
<rscale>  2 0.18124823E+03</rscale>
<asrwt>0</asrwt>
<pdfrwt beam="1">  1       21 0.38241603E-01 0.18218959E+03</pdfrwt>
<pdfrwt beam="2">  1       21 0.34010731E-01 0.18218959E+03</pdfrwt>
<totfact> 0.55187643E+04</totfact>
</mgrwt>
</event>
<event>
12    1  0.1050690E-001  0.3449488E+03  0.7546771E-02  0.1064714E+00
         21   -1    0    0  501  502  0.00000000000E+00  0.00000000000E+00  0.24153789044E+03  0.24153789044E+03  0.00000000000E+00 0.  1.
         21   -1    0    0  502  503 -0.00000000000E+00 -0.00000000000E+00 -0.53229261074E+03  0.53229261074E+03  0.00000000000E+00 0. -1.
         -6    2    1    2    0  503 -0.28868321154E+02  0.29662872328E+03 -0.39630070516E+02  0.34715352445E+03  0.17355992513E+03 0.  0.
        -24    2    3    3    0    0  0.18899923384E+02  0.57099496794E+02 -0.10230847088E+02  0.10109975012E+03  0.80615938892E+02 0.  0.
          6    2    1    2  501    0  0.28868321154E+02 -0.29662872328E+03 -0.25112464978E+03  0.42667697673E+03  0.17368843744E+03 0.  0.
         24    2    5    5    0    0 -0.19188065755E+02 -0.26115177953E+03 -0.24329403726E+03  0.36624984414E+03  0.79865674400E+02 0.  0.
          5    1    5    5  501    0  0.48056386909E+02 -0.35476943747E+02 -0.78306125284E+01  0.60427132589E+02  0.47000000000E+01 0. -1.
        -13    1    6    6    0    0 -0.19512647451E+02 -0.18707880020E+03 -0.12222186724E+03  0.22431541572E+03  0.00000000000E+00 0.  1.
         14    1    6    6    0    0  0.32458169563E+00 -0.74072979332E+02 -0.12107217001E+03  0.14193442842E+03  0.00000000000E+00 0. -1.
         -5    1    3    3    0  503 -0.47768244538E+02  0.23952922649E+03 -0.29399223428E+02  0.24605377434E+03  0.47000000000E+01 0.  1.
         11    1    4    4    0    0 -0.29958306679E+02  0.36485747520E+02 -0.65783253336E+00  0.47213797293E+02  0.00000000000E+00 0. -1.
        -12    1    4    4    0    0  0.48858230063E+02  0.20613749273E+02 -0.95730145550E+01  0.53885952823E+02  0.00000000000E+00 0.  1.
<mgrwt>
<rscale>  2 0.34493259E+03</rscale>
<asrwt>0</asrwt>
<pdfrwt beam="1">  1       21 0.37159676E-01 0.34494877E+03</pdfrwt>
<pdfrwt beam="2">  1       21 0.81891170E-01 0.34494877E+03</pdfrwt>
<totfact> 0.83928120E+03</totfact>
</mgrwt>
</event>
<event>
12    1  0.1050690E-001  0.2563410E+03  0.7546771E-02  0.1109507E+00
         21   -1    0    0  503  502  0.00000000000E+00  0.00000000000E+00  0.15844859219E+04  0.15844859219E+04  0.00000000000E+00 0. -1.
         21   -1    0    0  501  503 -0.00000000000E+00 -0.00000000000E+00 -0.53823991691E+02  0.53823991691E+02  0.00000000000E+00 0.  1.
          6    2    1    2  501    0  0.18018757011E+03  0.59771277057E+02  0.37156315637E+03  0.45140875993E+03  0.17225133785E+03 0.  0.
         24    2    3    3    0    0  0.13094099823E+03  0.95544524458E+02  0.20462022778E+03  0.27365336205E+03  0.82112263217E+02 0.  0.
         -6    2    1    2    0  502 -0.18018757011E+03 -0.59771277057E+02  0.11590987738E+04  0.11869011536E+04  0.17083388148E+03 0.  0.
        -24    2    5    5    0    0 -0.16199429391E+03 -0.87552596676E+02  0.11053542339E+04  0.11235500480E+04  0.81542132967E+02 0.  0.
          5    1    3    3  501    0  0.49246571872E+02 -0.35773247402E+02  0.16694292859E+03  0.17775539788E+03  0.47000000000E+01 0. -1.
        -13    1    4    4    0    0  0.69975248423E+02  0.85205606329E+01  0.11384912388E+03  0.13390578163E+03  0.00000000000E+00 0.  1.
         14    1    4    4    0    0  0.60965749812E+02  0.87023963825E+02  0.90771103905E+02  0.13974758042E+03  0.00000000000E+00 0. -1.
         -5    1    5    5    0  502 -0.18193276193E+02  0.27781319620E+02  0.53744539922E+02  0.63351105672E+02  0.47000000000E+01 0.  1.
         11    1    6    6    0    0 -0.11395342268E+03 -0.27751464834E+02  0.51219820699E+03  0.52545459327E+03  0.00000000000E+00 0. -1.
        -12    1    6    6    0    0 -0.48040871234E+02 -0.59801131843E+02  0.59315602690E+03  0.59809545469E+03  0.00000000000E+00 0.  1.
<mgrwt>
<rscale>  2 0.25610305E+03</rscale>
<asrwt>0</asrwt>
<pdfrwt beam="1">  1       21 0.24376703E+00 0.25634096E+03</pdfrwt>
<pdfrwt beam="2">  1       21 0.82806153E-02 0.25634096E+03</pdfrwt>
<totfact> 0.77459566E+03</totfact>
</mgrwt>
</event>
<event>
12    1  0.1050690E-001  0.2119549E+03  0.7546771E-02  0.1140056E+00
         21   -1    0    0  503  502  0.00000000000E+00  0.00000000000E+00  0.63457350671E+03  0.63457350671E+03  0.00000000000E+00 0. -1.
         21   -1    0    0  501  503 -0.00000000000E+00 -0.00000000000E+00 -0.10492080348E+03  0.10492080348E+03  0.00000000000E+00 0. -1.
          6    2    1    2  501    0  0.42762442458E+01 -0.12180680278E+03  0.53868591741E+02  0.21869322347E+03  0.17340622060E+03 0.  0.
         24    2    3    3    0    0 -0.25763119777E+02 -0.98928763123E+02 -0.23737053892E+02  0.13226120206E+03  0.80491858781E+02 0.  0.
         -6    2    1    2    0  502 -0.42762442458E+01  0.12180680278E+03  0.47578411149E+03  0.52080108672E+03  0.17322836866E+03 0.  0.
        -24    2    5    5    0    0 -0.34580400908E+02  0.11483172290E+03  0.46621042551E+03  0.48792648994E+03  0.79611368643E+02 0.  0.
          5    1    3    3  501    0  0.30039364022E+02 -0.22878039662E+02  0.77605645633E+02  0.86432021402E+02  0.47000000000E+01 0. -1.
        -13    1    4    4    0    0 -0.37716244626E+02 -0.19573881945E+02 -0.29617110183E+02  0.51795995778E+02  0.00000000000E+00 0.  1.
         14    1    4    4    0    0  0.11953124849E+02 -0.79354881178E+02  0.58800562908E+01  0.80465206285E+02  0.00000000000E+00 0. -1.
         -5    1    5    5    0  502  0.30304156662E+02  0.69750798862E+01  0.95736859857E+01  0.32874596785E+02  0.47000000000E+01 0.  1.
         11    1    6    6    0    0 -0.37142946050E+02  0.96491206818E+02  0.24474671780E+03  0.26568987054E+03  0.00000000000E+00 0. -1.
        -12    1    6    6    0    0  0.25625451422E+01  0.18340516081E+02  0.22146370771E+03  0.22223661940E+03  0.00000000000E+00 0.  1.
<mgrwt>
<rscale>  2 0.21191857E+03</rscale>
<asrwt>0</asrwt>
<pdfrwt beam="1">  1       21 0.97626691E-01 0.21195495E+03</pdfrwt>
<pdfrwt beam="2">  1       21 0.16141662E-01 0.21195495E+03</pdfrwt>
<totfact> 0.29487686E+04</totfact>
</mgrwt>
</event>
<event>
12    1  0.1050690E-001  0.1955771E+03  0.7546771E-02  0.1153992E+00
         21   -1    0    0  503  502  0.00000000000E+00  0.00000000000E+00  0.68196134638E+03  0.68196134638E+03  0.00000000000E+00 0. -1.
         21   -1    0    0  501  503 -0.00000000000E+00 -0.00000000000E+00 -0.87140083338E+02  0.87140083338E+02  0.00000000000E+00 0. -1.
          6    2    1    2  501    0 -0.42964920353E+02  0.75531033082E+02  0.64572472752E+02  0.20393403345E+03  0.17282524243E+03 0.  0.
         24    2    3    3    0    0 -0.86833430205E+02  0.85742690506E+02  0.36035143817E+02  0.15040653354E+03  0.80198130677E+02 0.  0.
         -6    2    1    2    0  502  0.42964920353E+02 -0.75531033082E+02  0.53024879029E+03  0.56516739627E+03  0.17521268466E+03 0.  0.
        -24    2    5    5    0    0 -0.89076372588E+01 -0.10272984826E+03  0.29461104389E+03  0.32231399335E+03  0.80360907198E+02 0.  0.
          5    1    3    3  501    0  0.43868509851E+02 -0.10211657424E+02  0.28537328935E+02  0.53527499910E+02  0.47000000000E+01 0. -1.
        -11    1    4    4    0    0 -0.43088597866E+02 -0.59025097205E+01  0.29019482573E+01  0.43587706877E+02  0.00000000000E+00 0.  1.
         12    1    4    4    0    0 -0.43744832338E+02  0.91645200226E+02  0.33133195560E+02  0.10681882666E+03  0.00000000000E+00 0. -1.
         -5    1    5    5    0  502  0.51872557612E+02  0.27198815174E+02  0.23563774640E+03  0.24285340292E+03  0.47000000000E+01 0.  1.
         11    1    6    6    0    0  0.19924931368E+02 -0.20066566492E+02  0.15474634207E+03  0.15730893289E+03  0.00000000000E+00 0. -1.
        -12    1    6    6    0    0 -0.28832568627E+02 -0.82663281764E+02  0.13986470181E+03  0.16500506046E+03  0.00000000000E+00 0.  1.
<mgrwt>
<rscale>  2 0.19504092E+03</rscale>
<asrwt>0</asrwt>
<pdfrwt beam="1">  1       21 0.10491713E+00 0.19557711E+03</pdfrwt>
<pdfrwt beam="2">  1       21 0.13406167E-01 0.19557711E+03</pdfrwt>
<totfact> 0.35144170E+04</totfact>
</mgrwt>
</event>
<event>
12    1  0.1050690E-001  0.1760139E+03  0.7546771E-02  0.1171989E+00
         21   -1    0    0  503  502  0.00000000000E+00  0.00000000000E+00  0.20296883042E+03  0.20296883042E+03  0.00000000000E+00 0.  1.
         21   -1    0    0  501  503 -0.00000000000E+00 -0.00000000000E+00 -0.28756255918E+03  0.28756255918E+03  0.00000000000E+00 0.  1.
          6    2    1    2  501    0 -0.21773565379E+02  0.12829115145E+02 -0.21081489901E+03  0.27393800747E+03  0.17309083149E+03 0.  0.
         24    2    3    3    0    0  0.30966362796E+02 -0.10626072425E+02 -0.19712765598E+03  0.21443106275E+03  0.77778781703E+02 0.  0.
         -6    2    1    2    0  502  0.21773565379E+02 -0.12829115145E+02  0.12622117025E+03  0.21659338213E+03  0.17419022652E+03 0.  0.
        -24    2    5    5    0    0  0.68708192179E+02  0.31521556056E+02  0.75411208137E+02  0.13429159916E+03  0.81442980816E+02 0.  0.
          5    1    3    3  501    0 -0.52739928174E+02  0.23455187570E+02 -0.13687243037E+02  0.59506944719E+02  0.47000000000E+01 0. -1.
        -13    1    4    4    0    0 -0.24347758485E+02  0.85881492809E+01 -0.62126209987E+02  0.67277303890E+02  0.00000000000E+00 0.  1.
         14    1    4    4    0    0  0.55314121281E+02 -0.19214221706E+02 -0.13500144599E+03  0.14715375886E+03  0.00000000000E+00 0. -1.
         -5    1    5    5    0  502 -0.46934626800E+02 -0.44350671201E+02  0.50809962114E+02  0.82301782963E+02  0.47000000000E+01 0.  1.
         13    1    6    6    0    0  0.42781549165E+01  0.36903368072E+02  0.30827555848E+01  0.37278204980E+02  0.00000000000E+00 0. -1.
        -14    1    6    6    0    0  0.64430037263E+02 -0.53818120157E+01  0.72328452553E+02  0.97013394183E+02  0.00000000000E+00 0.  1.
<mgrwt>
<rscale>  2 0.17574133E+03</rscale>
<asrwt>0</asrwt>
<pdfrwt beam="1">  1       21 0.31225974E-01 0.17601395E+03</pdfrwt>
<pdfrwt beam="2">  1       21 0.44240394E-01 0.17601395E+03</pdfrwt>
<totfact> 0.48740947E+04</totfact>
</mgrwt>
</event>
<event>
12    1  0.1050690E-001  0.2186469E+03  0.7546771E-02  0.1135277E+00
         21   -1    0    0  503  502  0.00000000000E+00  0.00000000000E+00  0.26054942188E+03  0.26054942188E+03  0.00000000000E+00 0.  1.
         21   -1    0    0  501  503 -0.00000000000E+00 -0.00000000000E+00 -0.29754891553E+03  0.29754891553E+03  0.00000000000E+00 0. -1.
          6    2    1    2  501    0 -0.93960400718E+02  0.90485814579E+02 -0.19249596903E+03  0.28979693923E+03  0.17294891833E+03 0.  0.
         24    2    3    3    0    0 -0.18670131255E+02  0.64475266402E+02 -0.33980978938E+02  0.11233070195E+03  0.83413703260E+02 0.  0.
         -6    2    1    2    0  502  0.93960400718E+02 -0.90485814579E+02  0.15549647539E+03  0.26830139818E+03  0.17547149873E+03 0.  0.
        -24    2    5    5    0    0  0.60027476701E+02  0.15285056676E+02  0.10513181027E+03  0.14624563211E+03  0.80611143551E+02 0.  0.
          5    1    3    3  501    0 -0.75290269463E+02  0.26010548177E+02 -0.15851499009E+03  0.17746623728E+03  0.47000000000E+01 0. -1.
        -13    1    4    4    0    0  0.13801044541E+02  0.71090776777E+02 -0.14387607862E+02  0.73833397817E+02  0.00000000000E+00 0.  1.
         14    1    4    4    0    0 -0.32471175796E+02 -0.66155103754E+01 -0.19593371076E+02  0.38497304130E+02  0.00000000000E+00 0. -1.
         -5    1    5    5    0  502  0.33932924017E+02 -0.10577087125E+03  0.50364665117E+02  0.12205576607E+03  0.47000000000E+01 0.  1.
         11    1    6    6    0    0 -0.99495562636E+01  0.24953436361E+02  0.12178313224E+02  0.29495405897E+02  0.00000000000E+00 0. -1.
        -12    1    6    6    0    0  0.69977032965E+02 -0.96683796851E+01  0.92953497044E+02  0.11675022621E+03  0.00000000000E+00 0.  1.
<mgrwt>
<rscale>  2 0.21814038E+03</rscale>
<asrwt>0</asrwt>
<pdfrwt beam="1">  1       21 0.40084526E-01 0.21864694E+03</pdfrwt>
<pdfrwt beam="2">  1       21 0.45776756E-01 0.21864694E+03</pdfrwt>
<totfact> 0.27051350E+04</totfact>
</mgrwt>
</event>
<event>
12    1  0.1050690E-001  0.4267238E+03  0.7546771E-02  0.1035014E+00
         21   -1    0    0  503  502  0.00000000000E+00  0.00000000000E+00  0.57700716739E+03  0.57700716739E+03  0.00000000000E+00 0. -1.
         21   -1    0    0  501  503 -0.00000000000E+00 -0.00000000000E+00 -0.10084855741E+04  0.10084855741E+04  0.00000000000E+00 0.  1.
          6    2    1    2  501    0 -0.22782537244E+03  0.31625309896E+03 -0.87323261390E+03  0.97129406480E+03  0.17016621107E+03 0.  0.
         24    2    3    3    0    0 -0.24190624762E+03  0.27081036989E+03 -0.72318241898E+03  0.81381243518E+03  0.86261112002E+02 0.  0.
         -6    2    1    2    0  502  0.22782537244E+03 -0.31625309896E+03  0.44175420722E+03  0.61419867666E+03  0.17370322933E+03 0.  0.
        -24    2    5    5    0    0  0.14471189762E+03 -0.28862018808E+03  0.38927405304E+03  0.51198476350E+03  0.79692931947E+02 0.  0.
          5    1    3    3  501    0  0.14080875182E+02  0.45442729074E+02 -0.15005019492E+03  0.15748162962E+03  0.47000000000E+01 0. -1.
        -11    1    4    4    0    0 -0.33331973666E+02  0.61764465603E+02 -0.21376624565E+03  0.22499306091E+03  0.00000000000E+00 0.  1.
         12    1    4    4    0    0 -0.20857427396E+03  0.20904590429E+03 -0.50941617333E+03  0.58881937426E+03  0.00000000000E+00 0. -1.
         -5    1    5    5    0  502  0.83113474820E+02 -0.27632910878E+02  0.52480154181E+02  0.10221391316E+03  0.47000000000E+01 0.  1.
         11    1    6    6    0    0  0.76071355497E+02 -0.19327787410E+03  0.29784987707E+03  0.36312220672E+03  0.00000000000E+00 0. -1.
        -12    1    6    6    0    0  0.68640542122E+02 -0.95342313984E+02  0.91424175975E+02  0.14886255678E+03  0.00000000000E+00 0.  1.
<mgrwt>
<rscale>  2 0.42636651E+03</rscale>
<asrwt>0</asrwt>
<pdfrwt beam="1">  1       21 0.88770333E-01 0.42672384E+03</pdfrwt>
<pdfrwt beam="2">  1       21 0.15515163E+00 0.42672384E+03</pdfrwt>
<totfact> 0.24585314E+02</totfact>
</mgrwt>
</event>
<event>
12    1  0.1050690E-001  0.2340026E+03  0.7546771E-02  0.1123975E+00
         21   -1    0    0  503  502  0.00000000000E+00  0.00000000000E+00  0.79919657202E+02  0.79919657202E+02  0.00000000000E+00 0. -1.
         21   -1    0    0  501  503 -0.00000000000E+00 -0.00000000000E+00 -0.76843524051E+03  0.76843524051E+03  0.00000000000E+00 0.  1.
          6    2    1    2  501    0 -0.15701949129E+03  0.13811899614E+02 -0.48514974748E+03  0.53833091567E+03  0.17200002344E+03 0.  0.
         24    2    3    3    0    0 -0.14815125251E+03 -0.39046194526E+02 -0.32396987995E+03  0.36840839369E+03  0.85409967224E+02 0.  0.
         -6    2    1    2    0  502  0.15701949129E+03 -0.13811899614E+02 -0.20336583583E+03  0.31002398205E+03  0.17294888565E+03 0.  0.
        -24    2    5    5    0    0  0.73984862693E+02 -0.16464583908E+00 -0.25398429860E+02  0.11310906471E+03  0.81699407986E+02 0.  0.
          5    1    3    3  501    0 -0.88682387785E+01  0.52858094140E+02 -0.16117986754E+03  0.16992252198E+03  0.47000000000E+01 0. -1.
        -11    1    4    4    0    0  0.84642678255E+01 -0.51759778711E+01 -0.50386580256E+02  0.51354085004E+02  0.00000000000E+00 0.  1.
         12    1    4    4    0    0 -0.15661552034E+03 -0.33870216655E+02 -0.27358329969E+03  0.31705430869E+03  0.00000000000E+00 0. -1.
         -5    1    5    5    0  502  0.83034628598E+02 -0.13647253775E+02 -0.17796740597E+03  0.19691491733E+03  0.47000000000E+01 0.  1.
         13    1    6    6    0    0  0.76465015587E+02  0.15911500140E+02 -0.42987385001E+02  0.89151498667E+02  0.00000000000E+00 0. -1.
        -14    1    6    6    0    0 -0.24801528942E+01 -0.16076145979E+02  0.17588955141E+02  0.23957566047E+02  0.00000000000E+00 0.  1.
<mgrwt>
<rscale>  2 0.23382728E+03</rscale>
<asrwt>0</asrwt>
<pdfrwt beam="1">  1       21 0.12295332E-01 0.23400258E+03</pdfrwt>
<pdfrwt beam="2">  1       21 0.11822080E+00 0.23400258E+03</pdfrwt>
<totfact> 0.30088611E+04</totfact>
</mgrwt>
</event>
<event>
12    1  0.1050690E-001  0.1849407E+03  0.7546771E-02  0.1163444E+00
         21   -1    0    0  503  502  0.00000000000E+00  0.00000000000E+00  0.10833124775E+03  0.10833124775E+03  0.00000000000E+00 0. -1.
         21   -1    0    0  501  503 -0.00000000000E+00 -0.00000000000E+00 -0.42014124282E+03  0.42014124282E+03  0.00000000000E+00 0. -1.
          6    2    1    2  501    0 -0.59000887391E+02 -0.25476032064E+02 -0.28871905639E+03  0.34209586173E+03  0.17187423357E+03 0.  0.
         24    2    3    3    0    0 -0.40583600944E+02 -0.64092319708E+02 -0.10257424988E+03  0.15103986705E+03  0.80849926339E+02 0.  0.
         -6    2    1    2    0  502  0.59000887391E+02  0.25476032064E+02 -0.23090938672E+02  0.18637662884E+03  0.17341546473E+03 0.  0.
        -24    2    5    5    0    0 -0.17684375448E+02  0.42094823221E+02  0.17991043945E+02  0.97682587032E+02  0.84460043039E+02 0.  0.
          5    1    3    3  501    0 -0.18417286447E+02  0.38616287644E+02 -0.18614480651E+03  0.19105599468E+03  0.47000000000E+01 0. -1.
        -13    1    4    4    0    0 -0.37631957813E+02 -0.31688041065E+02 -0.65232172920E+01  0.49627095011E+02  0.00000000000E+00 0.  1.
         14    1    4    4    0    0 -0.29516431310E+01 -0.32404278643E+02 -0.96051032587E+02  0.10141277204E+03  0.00000000000E+00 0. -1.
         -5    1    5    5    0  502  0.76685262840E+02 -0.16618791157E+02 -0.41081982617E+02  0.88694041807E+02  0.47000000000E+01 0.  1.
         11    1    6    6    0    0 -0.28756167709E+01  0.28085166923E+01  0.46666788540E+02  0.46839578248E+02  0.00000000000E+00 0. -1.
        -12    1    6    6    0    0 -0.14808758677E+02  0.39286306528E+02 -0.28675744595E+02  0.50843008784E+02  0.00000000000E+00 0.  1.
<mgrwt>
<rscale>  2 0.18457852E+03</rscale>
<asrwt>0</asrwt>
<pdfrwt beam="1">  1       21 0.16666346E-01 0.18494068E+03</pdfrwt>
<pdfrwt beam="2">  1       21 0.64637115E-01 0.18494068E+03</pdfrwt>
<totfact> 0.71615987E+04</totfact>
</mgrwt>
</event>
<event>
12    1  0.1050690E-001  0.1849674E+03  0.7546771E-02  0.1163845E+00
         21   -1    0    0  501  502  0.00000000000E+00  0.00000000000E+00  0.73914612785E+03  0.73914612785E+03  0.00000000000E+00 0. -1.
         21   -1    0    0  502  503 -0.00000000000E+00 -0.00000000000E+00 -0.65068715499E+02  0.65068715499E+02  0.00000000000E+00 0. -1.
         -6    2    1    2    0  503  0.35186092896E+02  0.45761177708E+02  0.11849692693E+03  0.21966897915E+03  0.17572931511E+03 0.  0.
        -24    2    3    3    0    0 -0.48036737758E+02  0.53627084820E+02  0.61213534175E+02  0.11822249511E+03  0.71035689508E+02 0.  0.
          6    2    1    2  501    0 -0.35186092896E+02 -0.45761177708E+02  0.55558048542E+03  0.58454586421E+03  0.17231379823E+03 0.  0.
         24    2    5    5    0    0 -0.88815252588E+02 -0.43721205844E+02  0.40045084357E+03  0.42032788700E+03  0.80715311732E+02 0.  0.
          5    1    5    5  501    0  0.53629159692E+02 -0.20399718646E+01  0.15512964185E+03  0.16421797720E+03  0.47000000000E+01 0. -1.
        -13    1    6    6    0    0 -0.24499939543E+02 -0.42451574928E+02  0.27512505767E+03  0.27945693874E+03  0.00000000000E+00 0.  1.
         14    1    6    6    0    0 -0.64315313045E+02 -0.12696309154E+01  0.12532578590E+03  0.14087094827E+03  0.00000000000E+00 0. -1.
         -5    1    3    3    0  503  0.83222830654E+02 -0.78659071117E+01  0.57283392759E+02  0.10144648403E+03  0.47000000000E+01 0.  1.
         13    1    4    4    0    0  0.88556335474E+01  0.93995517209E+01  0.41573113522E+02  0.43532718569E+02  0.00000000000E+00 0. -1.
        -14    1    4    4    0    0 -0.56892371305E+02  0.44227533099E+02  0.19640420653E+02  0.74689776544E+02  0.00000000000E+00 0.  1.
<mgrwt>
<rscale>  2 0.18415157E+03</rscale>
<asrwt>0</asrwt>
<pdfrwt beam="1">  1       21 0.11371478E+00 0.18496740E+03</pdfrwt>
<pdfrwt beam="2">  1       21 0.10010572E-01 0.18496740E+03</pdfrwt>
<totfact> 0.48993661E+04</totfact>
</mgrwt>
</event>
<event>
12    1  0.1050690E-001  0.1914253E+03  0.7546771E-02  0.1158380E+00
         21   -1    0    0  503  502  0.00000000000E+00  0.00000000000E+00  0.44167303682E+03  0.44167303682E+03  0.00000000000E+00 0. -1.
         21   -1    0    0  501  503 -0.00000000000E+00 -0.00000000000E+00 -0.91229755758E+02  0.91229755758E+02  0.00000000000E+00 0. -1.
          6    2    1    2  501    0  0.76390423820E+02  0.28923567607E+02  0.82498511596E+02  0.20360346147E+03  0.16726115954E+03 0.  0.
         24    2    3    3    0    0 -0.47056758254E+01 -0.13309560306E+02  0.54796082936E+01  0.83961428985E+02  0.82584548613E+02 0.  0.
         -6    2    1    2    0  502 -0.76390423820E+02 -0.28923567607E+02  0.26794476946E+03  0.32929933111E+03  0.17312302091E+03 0.  0.
        -24    2    5    5    0    0 -0.66001817625E+02 -0.22140913832E+01  0.58562410685E+02  0.11791252587E+03  0.78183538436E+02 0.  0.
          5    1    3    3  501    0  0.81096099646E+02  0.42233127913E+02  0.77018903302E+02  0.11964203248E+03  0.47000000000E+01 0. -1.
        -13    1    4    4    0    0 -0.40140509791E+02 -0.21028841647E+02  0.12531953484E+02  0.47016194715E+02  0.00000000000E+00 0.  1.
         14    1    4    4    0    0  0.35434833966E+02  0.77192813415E+01 -0.70523451907E+01  0.36945234270E+02  0.00000000000E+00 0. -1.
         -5    1    5    5    0  502 -0.10388606195E+02 -0.26709476224E+02  0.20938235878E+03  0.21138680523E+03  0.47000000000E+01 0.  1.
         13    1    6    6    0    0 -0.68632836201E+02 -0.14778633637E+02  0.71134237424E+02  0.99944754495E+02  0.00000000000E+00 0. -1.
        -14    1    6    6    0    0  0.26310185759E+01  0.12564542254E+02 -0.12571826739E+02  0.17967771379E+02  0.00000000000E+00 0.  1.
<mgrwt>
<rscale>  2 0.19009026E+03</rscale>
<asrwt>0</asrwt>
<pdfrwt beam="1">  1       21 0.67949696E-01 0.19142531E+03</pdfrwt>
<pdfrwt beam="2">  1       21 0.14035347E-01 0.19142531E+03</pdfrwt>
<totfact> 0.87600087E+04</totfact>
</mgrwt>
</event>
<event>
12    1  0.1050690E-001  0.1955799E+03  0.7546771E-02  0.1154594E+00
         21   -1    0    0  503  502  0.00000000000E+00  0.00000000000E+00  0.43241943780E+03  0.43241943780E+03  0.00000000000E+00 0. -1.
         21   -1    0    0  501  503 -0.00000000000E+00 -0.00000000000E+00 -0.10027414251E+03  0.10027414251E+03  0.00000000000E+00 0. -1.
          6    2    1    2  501    0  0.21207898921E+02  0.89146473408E+02  0.64753112496E+02  0.20140810896E+03  0.16725845891E+03 0.  0.
         24    2    3    3    0    0  0.50291229512E+01  0.54720482381E+02 -0.28890738448E+02  0.10022430358E+03  0.78680448596E+02 0.  0.
         -6    2    1    2    0  502 -0.21207898921E+02 -0.89146473408E+02  0.26739218279E+03  0.33128547135E+03  0.17278488189E+03 0.  0.
        -24    2    5    5    0    0  0.10051957630E+02 -0.12271156649E+03  0.17821084886E+03  0.23089028009E+03  0.79950261967E+02 0.  0.
          5    1    3    3  501    0  0.16178775970E+02  0.34425991027E+02  0.93643850944E+02  0.10118380537E+03  0.47000000000E+01 0. -1.
        -11    1    4    4    0    0  0.19616635214E+02  0.10636476230E+02  0.21997639190E+02  0.31334376229E+02  0.00000000000E+00 0.  1.
         12    1    4    4    0    0 -0.14587512263E+02  0.44084006152E+02 -0.50888377639E+02  0.68889927356E+02  0.00000000000E+00 0. -1.
         -5    1    5    5    0  502 -0.31259856551E+02  0.33565093078E+02  0.89181333935E+02  0.10039519126E+03  0.47000000000E+01 0.  1.
         13    1    6    6    0    0  0.22002872852E+02  0.69432167555E+00  0.18860490557E+02  0.28988387336E+02  0.00000000000E+00 0. -1.
        -14    1    6    6    0    0 -0.11950915222E+02 -0.12340588816E+03  0.15935035830E+03  0.20190189276E+03  0.00000000000E+00 0.  1.
<mgrwt>
<rscale>  2 0.19435217E+03</rscale>
<asrwt>0</asrwt>
<pdfrwt beam="1">  1       21 0.66526066E-01 0.19557987E+03</pdfrwt>
<pdfrwt beam="2">  1       21 0.15426791E-01 0.19557987E+03</pdfrwt>
<totfact> 0.77129228E+04</totfact>
</mgrwt>
</event>
<event>
12    1  0.1050690E-001  0.2168573E+03  0.7546771E-02  0.1136335E+00
         21   -1    0    0  503  502  0.00000000000E+00  0.00000000000E+00  0.22636049704E+02  0.22636049704E+02  0.00000000000E+00 0.  1.
         21   -1    0    0  501  503 -0.00000000000E+00 -0.00000000000E+00 -0.20938755986E+04  0.20938755986E+04  0.00000000000E+00 0.  1.
          6    2    1    2  501    0 -0.80887268796E+02 -0.10154752727E+03 -0.92925427018E+03  0.95411865432E+03  0.17313075215E+03 0.  0.
         24    2    3    3    0    0 -0.36351694501E+02 -0.42223255298E+02 -0.20977631408E+03  0.23081138494E+03  0.78508244737E+02 0.  0.
         -6    2    1    2    0  502  0.80887268796E+02  0.10154752727E+03 -0.11419852787E+04  0.11623929940E+04  0.17370217355E+03 0.  0.
        -24    2    5    5    0    0  0.79638536063E+02  0.48624725247E+02 -0.10415069099E+04  0.10487251670E+04  0.79882238544E+02 0.  0.
          5    1    3    3  501    0 -0.44535574295E+02 -0.59324271968E+02 -0.71947795610E+03  0.72330726938E+03  0.47000000000E+01 0. -1.
        -11    1    4    4    0    0 -0.37627046083E+02  0.35307637826E+00 -0.16408726427E+03  0.16834651632E+03  0.00000000000E+00 0.  1.
         12    1    4    4    0    0  0.12753515813E+01 -0.42576331677E+02 -0.45689049805E+02  0.62464868628E+02  0.00000000000E+00 0. -1.
         -5    1    5    5    0  502  0.12487327332E+01  0.52922802019E+02 -0.10047836880E+03  0.11366782704E+03  0.47000000000E+01 0.  1.
         13    1    6    6    0    0 -0.14059216073E+02  0.19903978703E+02 -0.24617676829E+03  0.24737993284E+03  0.00000000000E+00 0. -1.
        -14    1    6    6    0    0  0.93697752136E+02  0.28720746544E+02 -0.79533014164E+03  0.80134523412E+03  0.00000000000E+00 0.  1.
<mgrwt>
<rscale>  2 0.21674287E+03</rscale>
<asrwt>0</asrwt>
<pdfrwt beam="1">  1       21 0.34824676E-02 0.21685732E+03</pdfrwt>
<pdfrwt beam="2">  1       21 0.32213485E+00 0.21685732E+03</pdfrwt>
<totfact> 0.12248977E+04</totfact>
</mgrwt>
</event>
<event>
12    1  0.1050690E-001  0.1840387E+03  0.7546771E-02  0.1164766E+00
         21   -1    0    0  503  502  0.00000000000E+00  0.00000000000E+00  0.93823532641E+03  0.93823532641E+03  0.00000000000E+00 0. -1.
         21   -1    0    0  501  503 -0.00000000000E+00 -0.00000000000E+00 -0.11426387617E+03  0.11426387617E+03  0.00000000000E+00 0. -1.
          6    2    1    2  501    0 -0.28650579629E+02  0.37115899526E+02 -0.26325922980E+02  0.18251307699E+03  0.17441193578E+03 0.  0.
         24    2    3    3    0    0  0.47780597625E+02  0.96047640366E+01  0.81576458147E+01  0.94140038405E+02  0.80128413463E+02 0.  0.
         -6    2    1    2    0  502  0.28650579629E+02 -0.37115899526E+02  0.85029737322E+03  0.86998612558E+03  0.17796569919E+03 0.  0.
        -24    2    5    5    0    0  0.12261080020E+01 -0.89435267734E+02  0.64655539004E+03  0.65780152754E+03  0.81662762592E+02 0.  0.
          5    1    3    3  501    0 -0.76431177254E+02  0.27511135489E+02 -0.34483568795E+02  0.88373038588E+02  0.47000000000E+01 0. -1.
        -11    1    4    4    0    0 -0.16190385189E+02 -0.12504325276E+02 -0.11747386446E+02  0.23589993885E+02  0.00000000000E+00 0.  1.
         12    1    4    4    0    0  0.63970982814E+02  0.22109089313E+02  0.19905032261E+02  0.70550044520E+02  0.00000000000E+00 0. -1.
         -5    1    5    5    0  502  0.27424471627E+02  0.52319368208E+02  0.20374198318E+03  0.21218459804E+03  0.47000000000E+01 0.  1.
         13    1    6    6    0    0  0.15545022576E+02 -0.25258708330E+02  0.44075695325E+03  0.44175371183E+03  0.00000000000E+00 0. -1.
        -14    1    6    6    0    0 -0.14318914574E+02 -0.64176559404E+02  0.20579843679E+03  0.21604781571E+03  0.00000000000E+00 0.  1.
<mgrwt>
<rscale>  2 0.18317405E+03</rscale>
<asrwt>0</asrwt>
<pdfrwt beam="1">  1       21 0.14434389E+00 0.18403868E+03</pdfrwt>
<pdfrwt beam="2">  1       21 0.17579059E-01 0.18403868E+03</pdfrwt>
<totfact> 0.97585348E+03</totfact>
</mgrwt>
</event>
<event>
12    1  0.1050690E-001  0.1872788E+03  0.7546771E-02  0.1160999E+00
         21   -1    0    0  501  502  0.00000000000E+00  0.00000000000E+00  0.17906875874E+03  0.17906875874E+03  0.00000000000E+00 0. -1.
         21   -1    0    0  502  503 -0.00000000000E+00 -0.00000000000E+00 -0.47843271754E+03  0.47843271754E+03  0.00000000000E+00 0. -1.
         -6    2    1    2    0  503 -0.15641715378E+01 -0.71882180176E+02 -0.40241004622E+03  0.44374499782E+03  0.17264496324E+03 0.  0.
        -24    2    3    3    0    0 -0.21069949182E+01 -0.45156836579E+02 -0.87843147025E+02  0.12800940794E+03  0.81402768531E+02 0.  0.
          6    2    1    2  501    0  0.15641715378E+01  0.71882180176E+02  0.10304608741E+03  0.21375647846E+03  0.17292727226E+03 0.  0.
         24    2    5    5    0    0 -0.67318273924E+01  0.44171193886E+02  0.14023314637E+03  0.16640999271E+03  0.77656541660E+02 0.  0.
          5    1    5    5  501    0  0.82959989302E+01  0.27710986290E+02 -0.37187058954E+02  0.47346485752E+02  0.47000000000E+01 0. -1.
        -11    1    6    6    0    0 -0.38125520902E+02  0.22246565636E+02  0.41804704749E+02  0.60795545609E+02  0.00000000000E+00 0.  1.
         12    1    6    6    0    0  0.31393693510E+02  0.21924628250E+02  0.98428441618E+02  0.10561444710E+03  0.00000000000E+00 0. -1.
         -5    1    3    3    0  503  0.54282338043E+00 -0.26725343597E+02 -0.31456689920E+03  0.31573558988E+03  0.47000000000E+01 0.  1.
         13    1    4    4    0    0  0.13718290560E+02 -0.54715315661E+02 -0.93040476851E+02  0.10880481422E+03  0.00000000000E+00 0. -1.
        -14    1    4    4    0    0 -0.15825285478E+02  0.95584790821E+01  0.51973298259E+01  0.19204593725E+02  0.00000000000E+00 0.  1.
<mgrwt>
<rscale>  2 0.18721357E+03</rscale>
<asrwt>0</asrwt>
<pdfrwt beam="1">  1       21 0.27549040E-01 0.18727877E+03</pdfrwt>
<pdfrwt beam="2">  1       21 0.73605032E-01 0.18727877E+03</pdfrwt>
<totfact> 0.20908770E+04</totfact>
</mgrwt>
</event>
<event>
12    1  0.1050690E-001  0.3732729E+03  0.7546771E-02  0.1053634E+00
         21   -1    0    0  501  502  0.00000000000E+00  0.00000000000E+00  0.12181634819E+04  0.12181634819E+04  0.00000000000E+00 0.  1.
         21   -1    0    0  502  503 -0.00000000000E+00 -0.00000000000E+00 -0.32547420352E+03  0.32547420352E+03  0.00000000000E+00 0. -1.
         -6    2    1    2    0  503 -0.25899277963E+03  0.20116208994E+03 -0.17570439167E+03  0.41255871491E+03  0.17829529906E+03 0.  0.
        -24    2    3    3    0    0 -0.12516398297E+03  0.16658421230E+03 -0.15695327414E+03  0.27298983999E+03  0.80453713744E+02 0.  0.
          6    2    1    2  501    0  0.25899277963E+03 -0.20116208994E+03  0.10683936701E+04  0.11310789705E+04  0.17415842498E+03 0.  0.
         24    2    5    5    0    0  0.18245393037E+03 -0.76060992224E+02  0.49239108468E+03  0.53668049436E+03  0.80636601522E+02 0.  0.
          5    1    5    5  501    0  0.76538849258E+02 -0.12510109771E+03  0.57600258541E+03  0.59439847619E+03  0.47000000000E+01 0. -1.
        -13    1    6    6    0    0  0.13366613536E+03 -0.80488577098E+02  0.42948828949E+03  0.45695211740E+03  0.00000000000E+00 0.  1.
         14    1    6    6    0    0  0.48787795012E+02  0.44275848747E+01  0.62902795193E+02  0.79728376962E+02  0.00000000000E+00 0. -1.
         -5    1    3    3    0  503 -0.13382879666E+03  0.34577877639E+02 -0.18751117525E+02  0.13956887492E+03  0.47000000000E+01 0.  1.
         11    1    4    4    0    0 -0.70042864508E+02  0.83175034377E+02 -0.12992370160E+03  0.16942330846E+03  0.00000000000E+00 0. -1.
        -12    1    4    4    0    0 -0.55121118465E+02  0.83409177921E+02 -0.27029572545E+02  0.10356653153E+03  0.00000000000E+00 0.  1.
<mgrwt>
<rscale>  2 0.37278239E+03</rscale>
<asrwt>0</asrwt>
<pdfrwt beam="1">  1       21 0.18740976E+00 0.37327290E+03</pdfrwt>
<pdfrwt beam="2">  1       21 0.50072955E-01 0.37327290E+03</pdfrwt>
<totfact> 0.53067126E+02</totfact>
</mgrwt>
</event>
<event>
12    1  0.1050690E-001  0.4239923E+03  0.7546771E-02  0.1035782E+00
         21   -1    0    0  503  502  0.00000000000E+00  0.00000000000E+00  0.58586695100E+03  0.58586695100E+03  0.00000000000E+00 0. -1.
         21   -1    0    0  501  503 -0.00000000000E+00 -0.00000000000E+00 -0.32597123990E+03  0.32597123990E+03  0.00000000000E+00 0.  1.
          6    2    1    2  501    0 -0.33538150676E+03 -0.19295187507E+03  0.19312980578E+02  0.42434509131E+03  0.17316057325E+03 0.  0.
         24    2    3    3    0    0 -0.34730982976E+03 -0.19574541085E+03  0.74800185323E+01  0.40667597355E+03  0.79931302180E+02 0.  0.
         -6    2    1    2    0  502  0.33538150676E+03  0.19295187507E+03  0.24058273052E+03  0.48749309959E+03  0.17337326999E+03 0.  0.
        -24    2    5    5    0    0  0.21058885489E+03  0.16243896207E+03  0.94904756781E+02  0.29320360977E+03  0.78913634557E+02 0.  0.
          5    1    3    3  501    0  0.11928322998E+02  0.27935357744E+01  0.11832962046E+02  0.17669117761E+02  0.47000000000E+01 0. -1.
        -13    1    4    4    0    0 -0.24972857473E+03 -0.97799157834E+02  0.10206392543E+02  0.26839002731E+03  0.00000000000E+00 0.  1.
         14    1    4    4    0    0 -0.97581255036E+02 -0.97946253012E+02 -0.27263740107E+01  0.13828594624E+03  0.00000000000E+00 0. -1.
         -5    1    5    5    0  502  0.12479265188E+03  0.30512913003E+02  0.14567797374E+03  0.19428948982E+03  0.47000000000E+01 0.  1.
         13    1    6    6    0    0  0.12002221786E+03  0.13440002091E+03  0.80316585373E+02  0.19728013658E+03  0.00000000000E+00 0. -1.
        -14    1    6    6    0    0  0.90566637029E+02  0.28038941155E+02  0.14588171408E+02  0.95923473190E+02  0.00000000000E+00 0.  1.
<mgrwt>
<rscale>  2 0.42397057E+03</rscale>
<asrwt>0</asrwt>
<pdfrwt beam="1">  1       21 0.90133377E-01 0.42399230E+03</pdfrwt>
<pdfrwt beam="2">  1       21 0.50149422E-01 0.42399230E+03</pdfrwt>
<totfact> 0.34923816E+03</totfact>
</mgrwt>
</event>
<event>
12    1  0.1050690E-001  0.1933991E+03  0.7546771E-02  0.1155777E+00
         21   -1    0    0  501  502  0.00000000000E+00  0.00000000000E+00  0.94560434105E+02  0.94560434105E+02  0.00000000000E+00 0.  1.
         21   -1    0    0  502  503 -0.00000000000E+00 -0.00000000000E+00 -0.12571867001E+04  0.12571867001E+04  0.00000000000E+00 0.  1.
         -6    2    1    2    0  503 -0.86159650535E+02  0.79841193697E+01 -0.11411472602E+04  0.11571589557E+04  0.17120907628E+03 0.  0.
        -24    2    3    3    0    0 -0.17083354774E+02  0.43757045559E+02 -0.35245615299E+03  0.36462694408E+03  0.80752390192E+02 0.  0.
          6    2    1    2  501    0  0.86159650535E+02 -0.79841193697E+01 -0.21479005791E+02  0.19458817848E+03  0.17296236577E+03 0.  0.
         24    2    5    5    0    0  0.11259221447E+03  0.10257039659E+02  0.21463623164E+02  0.14075900702E+03  0.81056753674E+02 0.  0.
          5    1    5    5  501    0 -0.26432563933E+02 -0.18241159028E+02 -0.42942628955E+02  0.53829171463E+02  0.47000000000E+01 0. -1.
        -13    1    6    6    0    0  0.59888384825E+02  0.39012655412E+02 -0.11300939288E+02  0.72362401480E+02  0.00000000000E+00 0.  1.
         14    1    6    6    0    0  0.52703829643E+02 -0.28755615754E+02  0.32764562452E+02  0.68396605538E+02  0.00000000000E+00 0. -1.
         -5    1    3    3    0  503 -0.69076295760E+02 -0.35772926189E+02 -0.78869110724E+03  0.79253201167E+03  0.47000000000E+01 0.  1.
         13    1    4    4    0    0  0.75708142533E+01  0.62160115223E+02 -0.23152333108E+03  0.23984213555E+03  0.00000000000E+00 0. -1.
        -14    1    4    4    0    0 -0.24654169028E+02 -0.18403069664E+02 -0.12093282191E+03  0.12478480853E+03  0.00000000000E+00 0.  1.
<mgrwt>
<rscale>  2 0.19300630E+03</rscale>
<asrwt>0</asrwt>
<pdfrwt beam="1">  1       21 0.14547759E-01 0.19339910E+03</pdfrwt>
<pdfrwt beam="2">  1       21 0.19341334E+00 0.19339910E+03</pdfrwt>
<totfact> 0.61397244E+03</totfact>
</mgrwt>
</event>
<event>
12    1  0.1050690E-001  0.1902813E+03  0.7546771E-02  0.1159435E+00
         21   -1    0    0  503  502  0.00000000000E+00  0.00000000000E+00  0.20547639902E+02  0.20547639902E+02  0.00000000000E+00 0.  1.
         21   -1    0    0  501  503 -0.00000000000E+00 -0.00000000000E+00 -0.17140010102E+04  0.17140010102E+04  0.00000000000E+00 0. -1.
          6    2    1    2  501    0 -0.61020431154E+02 -0.34747070507E+02 -0.85836732233E+03  0.87805832653E+03  0.17105879927E+03 0.  0.
         24    2    3    3    0    0 -0.35485641568E+02  0.40774243306E+02 -0.59650228174E+03  0.60428673595E+03  0.80160572961E+02 0.  0.
         -6    2    1    2    0  502  0.61020431154E+02  0.34747070507E+02 -0.83508604798E+03  0.85649032359E+03  0.17685054409E+03 0.  0.
        -24    2    5    5    0    0 -0.13812403297E+02  0.31786390414E+02 -0.66214459692E+03  0.66797094996E+03  0.80923208412E+02 0.  0.
          5    1    3    3  501    0 -0.25534789585E+02 -0.75521313813E+02 -0.26186504059E+03  0.27377159057E+03  0.47000000000E+01 0. -1.
        -11    1    4    4    0    0  0.17785252272E+02  0.32604920259E+02 -0.34981090557E+03  0.35177701130E+03  0.00000000000E+00 0.  1.
         12    1    4    4    0    0 -0.53270893840E+02  0.81693230474E+01 -0.24669137617E+03  0.25250972466E+03  0.00000000000E+00 0. -1.
         -5    1    5    5    0  502  0.74832834451E+02  0.29606800925E+01 -0.17294145106E+03  0.18851937363E+03  0.47000000000E+01 0.  1.
         13    1    6    6    0    0 -0.83963442652E+01  0.15171914530E+02 -0.24115432478E+02  0.29702519608E+02  0.00000000000E+00 0. -1.
        -14    1    6    6    0    0 -0.54160590320E+01  0.16614475885E+02 -0.63802916444E+03  0.63826843035E+03  0.00000000000E+00 0.  1.
<mgrwt>
<rscale>  2 0.18892419E+03</rscale>
<asrwt>0</asrwt>
<pdfrwt beam="1">  1       21 0.31611754E-02 0.19028128E+03</pdfrwt>
<pdfrwt beam="2">  1       21 0.26369246E+00 0.19028128E+03</pdfrwt>
<totfact> 0.32151813E+04</totfact>
</mgrwt>
</event>
<event>
12    1  0.1050690E-001  0.1824233E+03  0.7546771E-02  0.1165874E+00
         21   -1    0    0  501  502  0.00000000000E+00  0.00000000000E+00  0.72595746526E+03  0.72595746526E+03  0.00000000000E+00 0. -1.
         21   -1    0    0  502  503 -0.00000000000E+00 -0.00000000000E+00 -0.46121311041E+02  0.46121311041E+02  0.00000000000E+00 0. -1.
         -6    2    1    2    0  503 -0.29402697019E+02  0.48910111939E+02  0.29094768682E+03  0.34252960613E+03  0.17152042726E+03 0.  0.
        -24    2    3    3    0    0 -0.41827722088E+02  0.45006690962E+02  0.77884983789E+02  0.12901749086E+03  0.82488069940E+02 0.  0.
          6    2    1    2  501    0  0.29402697019E+02 -0.48910111939E+02  0.38888846740E+03  0.42954917017E+03  0.17326722678E+03 0.  0.
         24    2    5    5    0    0  0.79372868287E+02 -0.28009652698E+02  0.18451963605E+03  0.21807208763E+03  0.80145782485E+02 0.  0.
          5    1    5    5  501    0 -0.49970171269E+02 -0.20900459242E+02  0.20436883135E+03  0.21147708254E+03  0.47000000000E+01 0. -1.
        -13    1    6    6    0    0  0.28762849610E+02  0.16127635679E+02  0.12180036004E+03  0.12618529968E+03  0.00000000000E+00 0.  1.
         14    1    6    6    0    0  0.50610018677E+02 -0.44137288377E+02  0.62719276013E+02  0.91886787948E+02  0.00000000000E+00 0. -1.
         -5    1    3    3    0  503  0.12425025070E+02  0.39034209772E+01  0.21306270303E+03  0.21351211527E+03  0.47000000000E+01 0.  1.
         13    1    4    4    0    0  0.17142979754E+02 -0.73332490110E+01  0.66909939862E+00  0.18657598718E+02  0.00000000000E+00 0. -1.
        -14    1    4    4    0    0 -0.58970701842E+02  0.52339939973E+02  0.77215884390E+02  0.11035989215E+03  0.00000000000E+00 0.  1.
<mgrwt>
<rscale>  2 0.18200727E+03</rscale>
<asrwt>0</asrwt>
<pdfrwt beam="1">  1       21 0.11168576E+00 0.18242327E+03</pdfrwt>
<pdfrwt beam="2">  1       21 0.70955868E-02 0.18242327E+03</pdfrwt>
<totfact> 0.93423174E+04</totfact>
</mgrwt>
</event>
<event>
12    1  0.1050690E-001  0.2586133E+03  0.7546771E-02  0.1108197E+00
         21   -1    0    0  503  502  0.00000000000E+00  0.00000000000E+00  0.84592722186E+03  0.84592722186E+03  0.00000000000E+00 0. -1.
         21   -1    0    0  501  503 -0.00000000000E+00 -0.00000000000E+00 -0.80172318617E+02  0.80172318617E+02  0.00000000000E+00 0.  1.
          6    2    1    2  501    0  0.15730972108E+03 -0.10998058237E+03  0.31958066164E+03  0.41111148290E+03  0.17331697906E+03 0.  0.
         24    2    3    3    0    0  0.59552136127E+02  0.45885103564E+01  0.79994129174E+02  0.12808070901E+03  0.80237746570E+02 0.  0.
         -6    2    1    2    0  502 -0.15730972108E+03  0.10998058237E+03  0.44617424160E+03  0.51498805758E+03  0.17116999951E+03 0.  0.
        -24    2    5    5    0    0 -0.10969249884E+03  0.33238590130E+02  0.37360744361E+03  0.39903650132E+03  0.80686797498E+02 0.  0.
          5    1    3    3  501    0  0.97757584957E+02 -0.11456909273E+03  0.23958653247E+03  0.28303077389E+03  0.47000000000E+01 0. -1.
        -13    1    4    4    0    0  0.61113349823E+02  0.12653857102E+01  0.14943507036E+02  0.62926553458E+02  0.00000000000E+00 0.  1.
         14    1    4    4    0    0 -0.15612136963E+01  0.33231246461E+01  0.65050622138E+02  0.65154155556E+02  0.00000000000E+00 0. -1.
         -5    1    5    5    0  502 -0.47617222241E+02  0.76741992244E+02  0.72566797990E+02  0.11595155626E+03  0.47000000000E+01 0.  1.
         13    1    6    6    0    0 -0.77379585310E+02  0.26865319356E+02  0.13310312646E+03  0.15628751671E+03  0.00000000000E+00 0. -1.
        -14    1    6    6    0    0 -0.32312913533E+02  0.63732707739E+01  0.24050431715E+03  0.24274898461E+03  0.00000000000E+00 0.  1.
<mgrwt>
<rscale>  2 0.25825410E+03</rscale>
<asrwt>0</asrwt>
<pdfrwt beam="1">  1       21 0.13014264E+00 0.25861333E+03</pdfrwt>
<pdfrwt beam="2">  1       21 0.12334203E-01 0.25861333E+03</pdfrwt>
<totfact> 0.23203334E+04</totfact>
</mgrwt>
</event>
<event>
12    1  0.1050690E-001  0.2702750E+03  0.7546771E-02  0.1101128E+00
         21   -1    0    0  503  502  0.00000000000E+00  0.00000000000E+00  0.62740611288E+03  0.62740611288E+03  0.00000000000E+00 0. -1.
         21   -1    0    0  501  503 -0.00000000000E+00 -0.00000000000E+00 -0.16449660572E+03  0.16449660572E+03  0.00000000000E+00 0.  1.
          6    2    1    2  501    0  0.11649296627E+03 -0.17161223865E+03  0.17391583032E+02  0.27083401035E+03  0.17328364711E+03 0.  0.
         24    2    3    3    0    0 -0.34454280831E+01 -0.33978277440E+02  0.16991876613E+02  0.88212611042E+02  0.79538333925E+02 0.  0.
         -6    2    1    2    0  502 -0.11649296627E+03  0.17161223865E+03  0.44551792413E+03  0.52106870824E+03  0.17321953223E+03 0.  0.
        -24    2    5    5    0    0 -0.67711686474E+02  0.18004671289E+03  0.28423666334E+03  0.35229522485E+03  0.79496876423E+02 0.  0.
          5    1    3    3  501    0  0.11993839436E+03 -0.13763396121E+03  0.39970641844E+00  0.18262139931E+03  0.47000000000E+01 0. -1.
        -13    1    4    4    0    0 -0.13930187373E+02  0.23846534017E+02  0.28234010671E+01  0.27761104057E+02  0.00000000000E+00 0.  1.
         14    1    4    4    0    0  0.10484759290E+02 -0.57824811457E+02  0.14168475546E+02  0.60451506985E+02  0.00000000000E+00 0. -1.
         -5    1    5    5    0  502 -0.48781279799E+02 -0.84344742366E+01  0.16128126079E+03  0.16877348339E+03  0.47000000000E+01 0.  1.
         11    1    6    6    0    0 -0.14845479679E+02  0.69130704462E+02  0.17165183979E+03  0.18564427454E+03  0.00000000000E+00 0. -1.
        -12    1    6    6    0    0 -0.52866206795E+02  0.11091600843E+03  0.11258482355E+03  0.16665095031E+03  0.00000000000E+00 0.  1.
<mgrwt>
<rscale>  2 0.27026476E+03</rscale>
<asrwt>0</asrwt>
<pdfrwt beam="1">  1       21 0.96524016E-01 0.27027503E+03</pdfrwt>
<pdfrwt beam="2">  1       21 0.25307170E-01 0.27027503E+03</pdfrwt>
<totfact> 0.12618873E+04</totfact>
</mgrwt>
</event>
<event>
12    1  0.1050690E-001  0.1847640E+03  0.7546771E-02  0.1163288E+00
         21   -1    0    0  503  502  0.00000000000E+00  0.00000000000E+00  0.61749306984E+03  0.61749306984E+03  0.00000000000E+00 0.  1.
         21   -1    0    0  501  503 -0.00000000000E+00 -0.00000000000E+00 -0.19517608485E+03  0.19517608485E+03  0.00000000000E+00 0. -1.
          6    2    1    2  501    0  0.47740278062E+02 -0.46398960216E+02 -0.13286318695E+03  0.22757493584E+03  0.17235349523E+03 0.  0.
         24    2    3    3    0    0 -0.34243985710E+02 -0.40013502627E+02 -0.90650346710E+02  0.13502112741E+03  0.85085184010E+02 0.  0.
         -6    2    1    2    0  502 -0.47740278062E+02  0.46398960216E+02  0.55518017194E+03  0.58509421885E+03  0.17227368909E+03 0.  0.
        -24    2    5    5    0    0 -0.14697611556E+01  0.89999770642E+02  0.40056778446E+03  0.41785465485E+03  0.77755023734E+02 0.  0.
          5    1    3    3  501    0  0.81984263772E+02 -0.63854575887E+01 -0.42212840243E+02  0.92553808437E+02  0.47000000000E+01 0. -1.
        -11    1    4    4    0    0  0.47274841475E+01 -0.10949783930E+02 -0.85279842464E+02  0.86109804350E+02  0.00000000000E+00 0.  1.
         12    1    4    4    0    0 -0.38971469857E+02 -0.29063718697E+02 -0.53705042451E+01  0.48911323057E+02  0.00000000000E+00 0. -1.
         -5    1    5    5    0  502 -0.46270516906E+02 -0.43600810426E+02  0.15461238748E+03  0.16723956400E+03  0.47000000000E+01 0.  1.
         13    1    6    6    0    0  0.59712268689E+01 -0.13199924546E+02  0.33853304515E+02  0.36823087662E+02  0.00000000000E+00 0. -1.
        -14    1    6    6    0    0 -0.74409880245E+01  0.10319969519E+03  0.36671447994E+03  0.38103156718E+03  0.00000000000E+00 0.  1.
<mgrwt>
<rscale>  2 0.18474536E+03</rscale>
<asrwt>0</asrwt>
<pdfrwt beam="1">  1       21 0.94998933E-01 0.18476397E+03</pdfrwt>
<pdfrwt beam="2">  1       21 0.30027090E-01 0.18476397E+03</pdfrwt>
<totfact> 0.99091047E+03</totfact>
</mgrwt>
</event>
<event>
12    1  0.1050690E-001  0.1878609E+03  0.7546771E-02  0.1161252E+00
         21   -1    0    0  503  502  0.00000000000E+00  0.00000000000E+00  0.34022350249E+02  0.34022350249E+02  0.00000000000E+00 0.  1.
         21   -1    0    0  501  503 -0.00000000000E+00 -0.00000000000E+00 -0.10475357671E+04  0.10475357671E+04  0.00000000000E+00 0.  1.
          6    2    1    2  501    0  0.60575905609E+02  0.11746435799E+02 -0.41956789840E+03  0.45970525725E+03  0.17743811059E+03 0.  0.
         24    2    3    3    0    0  0.62553905144E+02 -0.52196068420E+02 -0.19598319790E+03  0.22710094813E+03  0.80796077718E+02 0.  0.
         -6    2    1    2    0  502 -0.60575905609E+02 -0.11746435799E+02 -0.59394551845E+03  0.62185286010E+03  0.17355771842E+03 0.  0.
        -24    2    5    5    0    0  0.13021817472E+02  0.26950460382E+02 -0.42672347884E+03  0.43503911555E+03  0.79184655227E+02 0.  0.
          5    1    3    3  501    0 -0.19779995352E+01  0.63942504219E+02 -0.22358470049E+03  0.23260430912E+03  0.47000000000E+01 0. -1.
        -11    1    4    4    0    0 -0.10439369801E+02 -0.33713691487E+02 -0.93429841668E+02  0.99873563818E+02  0.00000000000E+00 0.  1.
         12    1    4    4    0    0  0.72993274945E+02 -0.18482376933E+02 -0.10255335623E+03  0.12722738431E+03  0.00000000000E+00 0. -1.
         -5    1    5    5    0  502 -0.73597723081E+02 -0.38696896181E+02 -0.16722203962E+03  0.18681374454E+03  0.47000000000E+01 0.  1.
         11    1    6    6    0    0 -0.14648838807E+02 -0.13111828268E+02 -0.33732354957E+02  0.39043312998E+02  0.00000000000E+00 0. -1.
        -12    1    6    6    0    0  0.27670656279E+02  0.40062288650E+02 -0.39299112388E+03  0.39599580255E+03  0.00000000000E+00 0.  1.
<mgrwt>
<rscale>  2 0.18693892E+03</rscale>
<asrwt>0</asrwt>
<pdfrwt beam="1">  1       21 0.52342072E-02 0.18786086E+03</pdfrwt>
<pdfrwt beam="2">  1       21 0.16115937E+00 0.18786086E+03</pdfrwt>
<totfact> 0.61594876E+04</totfact>
</mgrwt>
</event>
<event>
12    1  0.1050690E-001  0.2019534E+03  0.7546771E-02  0.1148555E+00
         21   -1    0    0  501  502  0.00000000000E+00  0.00000000000E+00  0.83917881955E+03  0.83917881955E+03  0.00000000000E+00 0.  1.
         21   -1    0    0  502  503 -0.00000000000E+00 -0.00000000000E+00 -0.98208582673E+02  0.98208582673E+02  0.00000000000E+00 0. -1.
         -6    2    1    2    0  503  0.10104441547E+03 -0.10386062416E+02  0.36614335054E+02  0.20524562880E+03  0.17454888834E+03 0.  0.
        -24    2    3    3    0    0 -0.81903971725E+00 -0.47761660942E+02  0.81975401975E+01  0.92983867290E+02  0.79353341637E+02 0.  0.
          6    2    1    2  501    0 -0.10104441547E+03  0.10386062416E+02  0.70435590182E+03  0.73214177342E+03  0.17203632105E+03 0.  0.
         24    2    5    5    0    0 -0.91561341567E+02 -0.53679680456E+02  0.50290915965E+03  0.52048821679E+03  0.82008375162E+02 0.  0.
          5    1    5    5  501    0 -0.94830739052E+01  0.64065742872E+02  0.20144674217E+03  0.21165355662E+03  0.47000000000E+01 0. -1.
        -13    1    6    6    0    0 -0.86060438551E+02 -0.35181188545E+02  0.48605006554E+03  0.49486238625E+03  0.00000000000E+00 0.  1.
         14    1    6    6    0    0 -0.55009030165E+01 -0.18498491911E+02  0.16859094112E+02  0.25625830547E+02  0.00000000000E+00 0. -1.
         -5    1    3    3    0  503  0.10186345519E+03  0.37375598526E+02  0.28416794856E+02  0.11226176151E+03  0.47000000000E+01 0.  1.
         11    1    4    4    0    0  0.43465296791E+01  0.16155472031E+02 -0.17216212156E+02  0.24006031696E+02  0.00000000000E+00 0. -1.
        -12    1    4    4    0    0 -0.51655693963E+01 -0.63917132973E+02  0.25413752353E+02  0.68977835595E+02  0.00000000000E+00 0.  1.
<mgrwt>
<rscale>  2 0.20140926E+03</rscale>
<asrwt>0</asrwt>
<pdfrwt beam="1">  1       21 0.12910443E+00 0.20195336E+03</pdfrwt>
<pdfrwt beam="2">  1       21 0.15109013E-01 0.20195336E+03</pdfrwt>
<totfact> 0.16923053E+04</totfact>
</mgrwt>
</event>
<event>
12    1  0.1050690E-001  0.2922116E+03  0.7546771E-02  0.1089299E+00
         21   -1    0    0  503  502  0.00000000000E+00  0.00000000000E+00  0.26018504908E+03  0.26018504908E+03  0.00000000000E+00 0. -1.
         21   -1    0    0  501  503 -0.00000000000E+00 -0.00000000000E+00 -0.65146625359E+03  0.65146625359E+03  0.00000000000E+00 0.  1.
          6    2    1    2  501    0 -0.22519977108E+03 -0.68974233650E+02 -0.51704296035E+03  0.59352611765E+03  0.17166085077E+03 0.  0.
         24    2    3    3    0    0 -0.95932950353E+02  0.15268825331E+02 -0.15533446865E+03  0.20025531160E+03  0.80852487171E+02 0.  0.
         -6    2    1    2    0  502  0.22519977108E+03  0.68974233650E+02  0.12576175584E+03  0.31812518502E+03  0.17296020441E+03 0.  0.
        -24    2    5    5    0    0  0.44142950756E+02  0.99629192465E+01 -0.19553077934E+01  0.88783418748E+02  0.76359756119E+02 0.  0.
          5    1    3    3  501    0 -0.12926682073E+03 -0.84243058981E+02 -0.36170849170E+03  0.39327080605E+03  0.47000000000E+01 0. -1.
        -11    1    4    4    0    0 -0.89345678087E+02  0.27369156901E+02 -0.16035254983E+03  0.18559272933E+03  0.00000000000E+00 0.  1.
         12    1    4    4    0    0 -0.65872722659E+01 -0.12100331570E+02  0.50180811824E+01  0.14662582268E+02  0.00000000000E+00 0. -1.
         -5    1    5    5    0  502  0.18105682033E+03  0.59011314403E+02  0.12771706364E+03  0.22934176628E+03  0.47000000000E+01 0.  1.
         11    1    6    6    0    0  0.59024031173E+02  0.27692168572E+02 -0.52272126904E+01  0.65406545610E+02  0.00000000000E+00 0. -1.
        -12    1    6    6    0    0 -0.14881080417E+02 -0.17729249326E+02  0.32719048969E+01  0.23376873137E+02  0.00000000000E+00 0.  1.
<mgrwt>
<rscale>  2 0.29201960E+03</rscale>
<asrwt>0</asrwt>
<pdfrwt beam="1">  1       21 0.40028470E-01 0.29221159E+03</pdfrwt>
<pdfrwt beam="2">  1       21 0.10022558E+00 0.29221159E+03</pdfrwt>
<totfact> 0.45984787E+03</totfact>
</mgrwt>
</event>
<event>
12    1  0.1050690E-001  0.2918926E+03  0.7546771E-02  0.1090354E+00
         21   -1    0    0  503  502  0.00000000000E+00  0.00000000000E+00  0.10477832360E+04  0.10477832360E+04  0.00000000000E+00 0. -1.
         21   -1    0    0  501  503 -0.00000000000E+00 -0.00000000000E+00 -0.85598942465E+02  0.85598942465E+02  0.00000000000E+00 0.  1.
          6    2    1    2  501    0 -0.16123703604E+03 -0.16634391133E+03  0.64147822461E+03  0.70476635853E+03  0.17757710671E+03 0.  0.
         24    2    3    3    0    0 -0.10196586197E+03 -0.34131425047E+02  0.19805303580E+03  0.23824604635E+03  0.77292835539E+02 0.  0.
         -6    2    1    2    0  502  0.16123703604E+03  0.16634391133E+03  0.32070606888E+03  0.42861581989E+03  0.16489833177E+03 0.  0.
        -24    2    5    5    0    0  0.99589520910E+02  0.32232083919E+02  0.19040988010E+03  0.23167525733E+03  0.80377375602E+02 0.  0.
          5    1    3    3  501    0 -0.59271174071E+02 -0.13221248629E+03  0.44342518881E+03  0.46652031218E+03  0.47000000000E+01 0. -1.
        -13    1    4    4    0    0  0.12809460443E+02 -0.23012098886E+01  0.15056441561E+02  0.19901614917E+02  0.00000000000E+00 0.  1.
         14    1    4    4    0    0 -0.11477532241E+03 -0.31830215159E+02  0.18299659424E+03  0.21834443143E+03  0.00000000000E+00 0. -1.
         -5    1    5    5    0  502  0.61647515132E+02  0.13411182741E+03  0.13029618877E+03  0.19694056256E+03  0.47000000000E+01 0.  1.
         11    1    6    6    0    0  0.29630340329E+02  0.46301481673E+02  0.11714381170E+03  0.12940037439E+03  0.00000000000E+00 0. -1.
        -12    1    6    6    0    0  0.69959180582E+02 -0.14069397754E+02  0.73266068408E+02  0.10227488294E+03  0.00000000000E+00 0.  1.
<mgrwt>
<rscale>  2 0.28999031E+03</rscale>
<asrwt>0</asrwt>
<pdfrwt beam="1">  1       21 0.16119741E+00 0.29189263E+03</pdfrwt>
<pdfrwt beam="2">  1       21 0.13169069E-01 0.29189263E+03</pdfrwt>
<totfact> 0.11511448E+04</totfact>
</mgrwt>
</event>
<event>
12    1  0.1050690E-001  0.2009083E+03  0.7546771E-02  0.1149050E+00
         21   -1    0    0  503  502  0.00000000000E+00  0.00000000000E+00  0.90400581546E+03  0.90400581546E+03  0.00000000000E+00 0. -1.
         21   -1    0    0  501  503 -0.00000000000E+00 -0.00000000000E+00 -0.52106561246E+02  0.52106561246E+02  0.00000000000E+00 0.  1.
          6    2    1    2  501    0 -0.41093522228E+02  0.95880890198E+02  0.60742142507E+03  0.63967351456E+03  0.17128804665E+03 0.  0.
         24    2    3    3    0    0 -0.67747312500E+02  0.12217518233E+03  0.49174802275E+03  0.51800083752E+03  0.83619831772E+02 0.  0.
         -6    2    1    2    0  502  0.41093522228E+02 -0.95880890198E+02  0.24447782915E+03  0.31643886215E+03  0.17170416960E+03 0.  0.
        -24    2    5    5    0    0 -0.28242937246E+02 -0.73229747678E+02  0.85062940375E+02  0.14106550148E+03  0.80644357723E+02 0.  0.
          5    1    3    3  501    0  0.26653790273E+02 -0.26294292129E+02  0.11567340232E+03  0.12167267704E+03  0.47000000000E+01 0. -1.
        -11    1    4    4    0    0 -0.64375396871E+02  0.35917124871E+02  0.17969801283E+03  0.19423080960E+03  0.00000000000E+00 0.  1.
         12    1    4    4    0    0 -0.33719156292E+01  0.86258057455E+02  0.31205000992E+03  0.32377002792E+03  0.00000000000E+00 0. -1.
         -5    1    5    5    0  502  0.69336459474E+02 -0.22651142520E+02  0.15941488877E+03  0.17537336067E+03  0.47000000000E+01 0.  1.
         13    1    6    6    0    0 -0.50261935637E+02 -0.30173397527E+02  0.24432992423E+02  0.63511158162E+02  0.00000000000E+00 0. -1.
        -14    1    6    6    0    0  0.22018998391E+02 -0.43056350151E+02  0.60629947953E+02  0.77554343316E+02  0.00000000000E+00 0.  1.
<mgrwt>
<rscale>  2 0.20081936E+03</rscale>
<asrwt>0</asrwt>
<pdfrwt beam="1">  1       21 0.13907781E+00 0.20090830E+03</pdfrwt>
<pdfrwt beam="2">  1       21 0.80163947E-02 0.20090830E+03</pdfrwt>
<totfact> 0.43319370E+04</totfact>
</mgrwt>
</event>
<event>
12    1  0.1050690E-001  0.2457494E+03  0.7546771E-02  0.1116182E+00
         21   -1    0    0  503  502  0.00000000000E+00  0.00000000000E+00  0.71104847766E+03  0.71104847766E+03  0.00000000000E+00 0. -1.
         21   -1    0    0  501  503 -0.00000000000E+00 -0.00000000000E+00 -0.10916365971E+03  0.10916365971E+03  0.00000000000E+00 0. -1.
          6    2    1    2  501    0 -0.87400752607E+02  0.15016045007E+03  0.10589234770E+03  0.26667687859E+03  0.17238421027E+03 0.  0.
         24    2    3    3    0    0 -0.90387840127E+02  0.92974925227E+02  0.73915788159E+01  0.15264355708E+03  0.80194274840E+02 0.  0.
         -6    2    1    2    0  502  0.87400752607E+02 -0.15016045007E+03  0.49599247025E+03  0.55353525879E+03  0.17379787068E+03 0.  0.
        -24    2    5    5    0    0  0.12294014290E+03 -0.14269594018E+03  0.41082302991E+03  0.46082770387E+03  0.90056652552E+02 0.  0.
          5    1    3    3  501    0  0.29870875203E+01  0.57185524839E+02  0.98500768886E+02  0.11403332151E+03  0.47000000000E+01 0. -1.
        -11    1    4    4    0    0  0.87634891379E+01  0.10130758021E+02  0.18634609006E+02  0.22949502233E+02  0.00000000000E+00 0.  1.
         12    1    4    4    0    0 -0.99151329265E+02  0.82844167207E+02 -0.11243030190E+02  0.12969405485E+03  0.00000000000E+00 0. -1.
         -5    1    5    5    0  502 -0.35539390296E+02 -0.74645098898E+01  0.85169440342E+02  0.92707554917E+02  0.47000000000E+01 0.  1.
         13    1    6    6    0    0  0.73023282936E+01 -0.73781514200E+02  0.14312901090E+03  0.16119227524E+03  0.00000000000E+00 0. -1.
        -14    1    6    6    0    0  0.11563781461E+03 -0.68914425976E+02  0.26769401901E+03  0.29963542863E+03  0.00000000000E+00 0.  1.
<mgrwt>
<rscale>  2 0.24549956E+03</rscale>
<asrwt>0</asrwt>
<pdfrwt beam="1">  1       21 0.10939207E+00 0.24574937E+03</pdfrwt>
<pdfrwt beam="2">  1       21 0.16794410E-01 0.24574937E+03</pdfrwt>
<totfact> 0.20483747E+04</totfact>
</mgrwt>
</event>
<event>
12    1  0.1050690E-001  0.1813868E+03  0.7546771E-02  0.1166561E+00
         21   -1    0    0  503  502  0.00000000000E+00  0.00000000000E+00  0.14906838966E+04  0.14906838966E+04  0.00000000000E+00 0. -1.
         21   -1    0    0  501  503 -0.00000000000E+00 -0.00000000000E+00 -0.33157855134E+02  0.33157855134E+02  0.00000000000E+00 0.  1.
          6    2    1    2  501    0 -0.36552782596E+02  0.39587661109E+02  0.28777076734E+03  0.34016639434E+03  0.17319893901E+03 0.  0.
         24    2    3    3    0    0  0.11213365781E+02 -0.24299210841E+02  0.77145973970E+02  0.11489315820E+03  0.80825399983E+02 0.  0.
         -6    2    1    2    0  502  0.36552782596E+02 -0.39587661109E+02  0.11697552741E+04  0.11836753574E+04  0.17279080277E+03 0.  0.
        -24    2    5    5    0    0  0.59591320376E+02 -0.62525592866E+02  0.11025393929E+04  0.11088623396E+04  0.80758901382E+02 0.  0.
          5    1    3    3  501    0 -0.47766148377E+02  0.63886871950E+02  0.21062479337E+03  0.22527323613E+03  0.47000000000E+01 0. -1.
        -13    1    4    4    0    0 -0.29005849259E+02 -0.83082853908E+01  0.62150876822E+02  0.69087613848E+02  0.00000000000E+00 0.  1.
         14    1    4    4    0    0  0.40219215040E+02 -0.15990925450E+02  0.14995097148E+02  0.45805544355E+02  0.00000000000E+00 0. -1.
         -5    1    5    5    0  502 -0.23038537780E+02  0.22937931757E+02  0.67215881260E+02  0.74813017784E+02  0.47000000000E+01 0.  1.
         13    1    6    6    0    0  0.34899360161E+02 -0.68856400986E+02  0.10078445724E+04  0.10107966420E+04  0.00000000000E+00 0. -1.
        -14    1    6    6    0    0  0.24691960215E+02  0.63308081201E+01  0.94694820475E+02  0.98065697650E+02  0.00000000000E+00 0.  1.
<mgrwt>
<rscale>  2 0.18128928E+03</rscale>
<asrwt>0</asrwt>
<pdfrwt beam="1">  1       21 0.22933593E+00 0.18138677E+03</pdfrwt>
<pdfrwt beam="2">  1       21 0.51012097E-02 0.18138677E+03</pdfrwt>
<totfact> 0.23162459E+04</totfact>
</mgrwt>
</event>
<event>
12    1  0.1050690E-001  0.1864808E+03  0.7546771E-02  0.1162130E+00
         21   -1    0    0  503  502  0.00000000000E+00  0.00000000000E+00  0.25832607856E+03  0.25832607856E+03  0.00000000000E+00 0.  1.
         21   -1    0    0  501  503 -0.00000000000E+00 -0.00000000000E+00 -0.23037220879E+03  0.23037220879E+03  0.00000000000E+00 0.  1.
          6    2    1    2  501    0  0.68126466366E+02 -0.63413041190E+01 -0.14475780153E+03  0.23452434655E+03  0.17136341635E+03 0.  0.
         24    2    3    3    0    0 -0.15243917835E+02  0.32690877155E+02 -0.97532817400E+02  0.13095590897E+03  0.79597293566E+02 0.  0.
         -6    2    1    2    0  502 -0.68126466366E+02  0.63413041190E+01  0.17271167130E+03  0.25417394081E+03  0.17347519484E+03 0.  0.
        -24    2    5    5    0    0  0.10649527947E+02  0.49961355816E+02  0.98521712333E+02  0.13740662431E+03  0.81021621081E+02 0.  0.
          5    1    3    3  501    0  0.83370384200E+02 -0.39032181274E+02 -0.47224984133E+02  0.10356843758E+03  0.47000000000E+01 0. -1.
        -13    1    4    4    0    0  0.31108066960E+02  0.69895555919E+01 -0.22217559932E+02  0.38861107636E+02  0.00000000000E+00 0.  1.
         14    1    4    4    0    0 -0.46351984795E+02  0.25701321563E+02 -0.75315257468E+02  0.92094801330E+02  0.00000000000E+00 0. -1.
         -5    1    5    5    0  502 -0.78775994313E+02 -0.43620051697E+02  0.74189958968E+02  0.11676731650E+03  0.47000000000E+01 0.  1.
         13    1    6    6    0    0  0.74073798011E+01  0.46031159872E+02  0.86847791224E+01  0.47425334402E+02  0.00000000000E+00 0. -1.
        -14    1    6    6    0    0  0.32421481461E+01  0.39301959436E+01  0.89836933211E+02  0.89981289908E+02  0.00000000000E+00 0.  1.
<mgrwt>
<rscale>  2 0.18598808E+03</rscale>
<asrwt>0</asrwt>
<pdfrwt beam="1">  1       21 0.39742474E-01 0.18648075E+03</pdfrwt>
<pdfrwt beam="2">  1       21 0.35441878E-01 0.18648075E+03</pdfrwt>
<totfact> 0.46979467E+04</totfact>
</mgrwt>
</event>
<event>
12    1  0.1050690E-001  0.1816510E+03  0.7546771E-02  0.1166472E+00
         21   -1    0    0  501  502  0.00000000000E+00  0.00000000000E+00  0.46987266656E+03  0.46987266656E+03  0.00000000000E+00 0. -1.
         21   -1    0    0  502  503 -0.00000000000E+00 -0.00000000000E+00 -0.10453608112E+03  0.10453608112E+03  0.00000000000E+00 0. -1.
         -6    2    1    2    0  503 -0.46690641486E+02  0.23307124912E+02  0.16777257479E+02  0.18135569436E+03  0.17287328722E+03 0.  0.
        -24    2    3    3    0    0 -0.13536063234E+02  0.57917751252E+02  0.59880468292E+02  0.11672521938E+03  0.80631355176E+02 0.  0.
          6    2    1    2  501    0  0.46690641486E+02 -0.23307124912E+02  0.34855932796E+03  0.39305305332E+03  0.17399384916E+03 0.  0.
         24    2    5    5    0    0  0.42835868075E+02  0.43044369092E+02  0.28054957429E+03  0.29784382778E+03  0.79467935717E+02 0.  0.
          5    1    5    5  501    0  0.38547734117E+01 -0.66351494004E+02  0.68009753665E+02  0.95209225541E+02  0.47000000000E+01 0. -1.
        -11    1    6    6    0    0 -0.27465245152E+01 -0.84661501714E+01 -0.87034704614E-01  0.89009365056E+01  0.00000000000E+00 0.  1.
         12    1    6    6    0    0  0.45582392590E+02  0.51510519264E+02  0.28063660899E+03  0.28894289127E+03  0.00000000000E+00 0. -1.
         -5    1    3    3    0  503 -0.33154578253E+02 -0.34610626340E+02 -0.43103210814E+02  0.64630474988E+02  0.47000000000E+01 0.  1.
         13    1    4    4    0    0  0.33878890022E+02  0.19198826193E+02  0.24878848732E+02  0.46209644346E+02  0.00000000000E+00 0. -1.
        -14    1    4    4    0    0 -0.47414953256E+02  0.38718925058E+02  0.35001619560E+02  0.70515575030E+02  0.00000000000E+00 0.  1.
<mgrwt>
<rscale>  2 0.18138218E+03</rscale>
<asrwt>0</asrwt>
<pdfrwt beam="1">  1       21 0.72288102E-01 0.18165103E+03</pdfrwt>
<pdfrwt beam="2">  1       21 0.16082474E-01 0.18165103E+03</pdfrwt>
<totfact> 0.59907299E+04</totfact>
</mgrwt>
</event>
<event>
12    1  0.1050690E-001  0.1867941E+03  0.7546771E-02  0.1161462E+00
         21   -1    0    0  503  502  0.00000000000E+00  0.00000000000E+00  0.30790126743E+03  0.30790126743E+03  0.00000000000E+00 0.  1.
         21   -1    0    0  501  503 -0.00000000000E+00 -0.00000000000E+00 -0.13731743759E+03  0.13731743759E+03  0.00000000000E+00 0.  1.
          6    2    1    2  501    0 -0.69902961275E+02  0.20872808973E+00 -0.82152405758E+01  0.18664349005E+03  0.17286363017E+03 0.  0.
         24    2    3    3    0    0 -0.92807941795E+02 -0.48764393546E+02 -0.23940166726E+02  0.13014244512E+03  0.73298323999E+02 0.  0.
         -6    2    1    2    0  502  0.69902961275E+02 -0.20872808973E+00  0.17879907042E+03  0.25857521497E+03  0.17322114955E+03 0.  0.
        -24    2    5    5    0    0  0.45754778888E+02  0.45063563351E+02  0.40154723652E+02  0.11066625657E+03  0.80687012455E+02 0.  0.
          5    1    3    3  501    0  0.22904980520E+02  0.48973121636E+02  0.15724926150E+02  0.56501044927E+02  0.47000000000E+01 0. -1.
        -13    1    4    4    0    0 -0.91557356754E+02 -0.17914399247E+02 -0.31296270425E+02  0.98402905540E+02  0.00000000000E+00 0.  1.
         14    1    4    4    0    0 -0.12505850410E+01 -0.30849994299E+02  0.73561036987E+01  0.31739539581E+02  0.00000000000E+00 0. -1.
         -5    1    5    5    0  502  0.24148182388E+02 -0.45272291441E+02  0.13864434676E+03  0.14790895840E+03  0.47000000000E+01 0.  1.
         13    1    6    6    0    0  0.46155769841E+01 -0.19549145226E+02 -0.63377575073E+01  0.21062758608E+02  0.00000000000E+00 0. -1.
        -14    1    6    6    0    0  0.41139201903E+02  0.64612708576E+02  0.46492481160E+02  0.89603497963E+02  0.00000000000E+00 0.  1.
<mgrwt>
<rscale>  2 0.18671117E+03</rscale>
<asrwt>0</asrwt>
<pdfrwt beam="1">  1       21 0.47369426E-01 0.18679410E+03</pdfrwt>
<pdfrwt beam="2">  1       21 0.21125760E-01 0.18679410E+03</pdfrwt>
<totfact> 0.89017591E+04</totfact>
</mgrwt>
</event>
<event>
12    1  0.1050690E-001  0.2259966E+03  0.7546771E-02  0.1129583E+00
         21   -1    0    0  503  502  0.00000000000E+00  0.00000000000E+00  0.68730955605E+03  0.68730955605E+03  0.00000000000E+00 0. -1.
         21   -1    0    0  501  503 -0.00000000000E+00 -0.00000000000E+00 -0.18347869271E+03  0.18347869271E+03  0.00000000000E+00 0. -1.
          6    2    1    2  501    0  0.12766658802E+03  0.65406849414E+02 -0.84072891417E+02  0.24112803466E+03  0.17463580497E+03 0.  0.
         24    2    3    3    0    0  0.43395318406E+02  0.85923227920E+02 -0.20623270395E+02  0.13356171522E+03  0.90263269021E+02 0.  0.
         -6    2    1    2    0  502 -0.12766658802E+03 -0.65406849414E+02  0.58790375476E+03  0.62966021410E+03  0.17396651031E+03 0.  0.
        -24    2    5    5    0    0 -0.46796214421E+02 -0.19947332346E+02  0.47015883500E+03  0.47968507900E+03  0.80378250376E+02 0.  0.
          5    1    3    3  501    0  0.84271269616E+02 -0.20516378506E+02 -0.63449621022E+02  0.10756631944E+03  0.47000000000E+01 0. -1.
        -11    1    4    4    0    0  0.76083155041E+01 -0.12802863568E+02 -0.24282563082E+02  0.28485832447E+02  0.00000000000E+00 0.  1.
         12    1    4    4    0    0  0.35787002902E+02  0.98726091488E+02  0.36592926871E+01  0.10507588277E+03  0.00000000000E+00 0. -1.
         -5    1    5    5    0  502 -0.80870373602E+02 -0.45459517068E+02  0.11774491976E+03  0.14997513510E+03  0.47000000000E+01 0.  1.
         13    1    6    6    0    0 -0.40043829170E+02 -0.48715108577E+02  0.26445540490E+03  0.27187006315E+03  0.00000000000E+00 0. -1.
        -14    1    6    6    0    0 -0.67523852503E+01  0.28767776231E+02  0.20570343010E+03  0.20781501585E+03  0.00000000000E+00 0.  1.
<mgrwt>
<rscale>  2 0.22586732E+03</rscale>
<asrwt>0</asrwt>
<pdfrwt beam="1">  1       21 0.10573993E+00 0.22599663E+03</pdfrwt>
<pdfrwt beam="2">  1       21 0.28227492E-01 0.22599663E+03</pdfrwt>
<totfact> 0.84183808E+03</totfact>
</mgrwt>
</event>
<event>
12    1  0.1050690E-001  0.2378608E+03  0.7546771E-02  0.1121519E+00
         21   -1    0    0  501  502  0.00000000000E+00  0.00000000000E+00  0.27566863010E+03  0.27566863010E+03  0.00000000000E+00 0. -1.
         21   -1    0    0  502  503 -0.00000000000E+00 -0.00000000000E+00 -0.21451488788E+03  0.21451488788E+03  0.00000000000E+00 0.  1.
         -6    2    1    2    0  503 -0.16036925278E+03 -0.11040648837E+02  0.85382594444E+02  0.25109189788E+03  0.17296462235E+03 0.  0.
        -24    2    3    3    0    0 -0.30383619984E+02 -0.48861942070E+02  0.50771298806E+02  0.11128221746E+03  0.80593755300E+02 0.  0.
          6    2    1    2  501    0  0.16036925278E+03  0.11040648837E+02 -0.24228852222E+02  0.23909162011E+03  0.17532134029E+03 0.  0.
         24    2    5    5    0    0  0.13931671141E+03  0.44726625141E+02 -0.73327059840E+02  0.17576170230E+03  0.64075745933E+02 0.  0.
          5    1    5    5  501    0  0.21052541364E+02 -0.33685976305E+02  0.49098207618E+02  0.63329917802E+02  0.47000000000E+01 0. -1.
        -13    1    6    6    0    0  0.91891573995E+02 -0.35122465060E+01 -0.38744261235E+02  0.99787349025E+02  0.00000000000E+00 0.  1.
         14    1    6    6    0    0  0.47425137417E+02  0.48238871648E+02 -0.34582798604E+02  0.75974353279E+02  0.00000000000E+00 0. -1.
         -5    1    3    3    0  503 -0.12998563279E+03  0.37821293233E+02  0.34611295638E+02  0.13980968042E+03  0.47000000000E+01 0.  1.
         11    1    4    4    0    0 -0.51182605826E+02 -0.20445804787E+02  0.77045998171E+01  0.55651153904E+02  0.00000000000E+00 0. -1.
        -12    1    4    4    0    0  0.20798985842E+02 -0.28416137283E+02  0.43066698989E+02  0.55631063552E+02  0.00000000000E+00 0.  1.
<mgrwt>
<rscale>  2 0.23742670E+03</rscale>
<asrwt>0</asrwt>
<pdfrwt beam="1">  1       21 0.42410558E-01 0.23786081E+03</pdfrwt>
<pdfrwt beam="2">  1       21 0.33002290E-01 0.23786081E+03</pdfrwt>
<totfact> 0.46302205E+04</totfact>
</mgrwt>
</event>
<event>
12    1  0.1050690E-001  0.1984907E+03  0.7546771E-02  0.1151847E+00
         21   -1    0    0  501  502  0.00000000000E+00  0.00000000000E+00  0.11534060833E+03  0.11534060833E+03  0.00000000000E+00 0. -1.
         21   -1    0    0  502  503 -0.00000000000E+00 -0.00000000000E+00 -0.37519436296E+03  0.37519436296E+03  0.00000000000E+00 0.  1.
         -6    2    1    2    0  503  0.26591303646E+02 -0.93954591915E+02 -0.20907334538E+03  0.28565160751E+03  0.16837640675E+03 0.  0.
        -24    2    3    3    0    0  0.31495559663E+01  0.87435232303E+01 -0.48818546074E+02  0.93818062239E+02  0.79575181183E+02 0.  0.
          6    2    1    2  501    0 -0.26591303646E+02  0.93954591915E+02 -0.50780409246E+02  0.20488336378E+03  0.17281197881E+03 0.  0.
         24    2    5    5    0    0 -0.65589094017E+02  0.12839257598E+02 -0.11970910425E+02  0.10675695391E+03  0.82383060897E+02 0.  0.
          5    1    5    5  501    0  0.38997790371E+02  0.81115334317E+02 -0.38809498821E+02  0.98126409869E+02  0.47000000000E+01 0. -1.
        -11    1    6    6    0    0 -0.26345856587E+02 -0.18187313488E+02 -0.38548433443E+02  0.50108524745E+02  0.00000000000E+00 0.  1.
         12    1    6    6    0    0 -0.39243237431E+02  0.31026571087E+02  0.26577523018E+02  0.56648429168E+02  0.00000000000E+00 0. -1.
         -5    1    3    3    0  503  0.23441747680E+02 -0.10269811515E+03 -0.16025479931E+03  0.19183354527E+03  0.47000000000E+01 0.  1.
         13    1    4    4    0    0  0.18549583927E+02 -0.16382466517E+02  0.11039518909E+02  0.27098768436E+02  0.00000000000E+00 0. -1.
        -14    1    4    4    0    0 -0.15400027960E+02  0.25125989747E+02 -0.59858064984E+02  0.66719293803E+02  0.00000000000E+00 0.  1.
<mgrwt>
<rscale>  2 0.19752120E+03</rscale>
<asrwt>0</asrwt>
<pdfrwt beam="1">  1       21 0.17744709E-01 0.19849066E+03</pdfrwt>
<pdfrwt beam="2">  1       21 0.57722210E-01 0.19849066E+03</pdfrwt>
<totfact> 0.80942685E+04</totfact>
</mgrwt>
</event>
<event>
12    1  0.1050690E-001  0.1983639E+03  0.7546771E-02  0.1151181E+00
         21   -1    0    0  501  502  0.00000000000E+00  0.00000000000E+00  0.15523073868E+03  0.15523073868E+03  0.00000000000E+00 0. -1.
         21   -1    0    0  502  503 -0.00000000000E+00 -0.00000000000E+00 -0.28066014896E+03  0.28066014896E+03  0.00000000000E+00 0.  1.
         -6    2    1    2    0  503 -0.82478280325E+02  0.53330864774E+02 -0.13097369299E+03  0.23770222206E+03  0.17234091289E+03 0.  0.
        -24    2    3    3    0    0 -0.67928205862E+02  0.77225726762E+02 -0.31078818341E+02  0.13385740959E+03  0.79836452366E+02 0.  0.
          6    2    1    2  501    0  0.82478280325E+02 -0.53330864774E+02  0.55442827185E+01  0.19818866558E+03  0.17204987716E+03 0.  0.
         24    2    5    5    0    0 -0.16104661890E+02  0.67861083348E+01 -0.93119717777E+01  0.81674952871E+02  0.79238082430E+02 0.  0.
          5    1    5    5  501    0  0.98582942215E+02 -0.60116973109E+02  0.14856254496E+02  0.11651371271E+03  0.47000000000E+01 0. -1.
        -13    1    6    6    0    0 -0.28219654276E+02 -0.44033452128E+01  0.28546004483E+02  0.40380845812E+02  0.00000000000E+00 0.  1.
         14    1    6    6    0    0  0.12114992386E+02  0.11189453548E+02 -0.37857976261E+02  0.41294107059E+02  0.00000000000E+00 0. -1.
         -5    1    3    3    0  503 -0.14550074462E+02 -0.23894861988E+02 -0.99894874651E+02  0.10384481247E+03  0.47000000000E+01 0.  1.
         13    1    4    4    0    0 -0.35922016304E+01  0.61615082700E+02 -0.27468536309E+02  0.67556219667E+02  0.00000000000E+00 0. -1.
        -14    1    4    4    0    0 -0.64336004232E+02  0.15610644062E+02 -0.36102820318E+01  0.66301189921E+02  0.00000000000E+00 0.  1.
<mgrwt>
<rscale>  2 0.19830067E+03</rscale>
<asrwt>0</asrwt>
<pdfrwt beam="1">  1       21 0.23881652E-01 0.19836390E+03</pdfrwt>
<pdfrwt beam="2">  1       21 0.43178484E-01 0.19836390E+03</pdfrwt>
<totfact> 0.85022091E+04</totfact>
</mgrwt>
</event>
<event>
12    1  0.1050690E-001  0.2274854E+03  0.7546771E-02  0.1128465E+00
         21   -1    0    0  501  502  0.00000000000E+00  0.00000000000E+00  0.20520122250E+03  0.20520122250E+03  0.00000000000E+00 0. -1.
         21   -1    0    0  502  503 -0.00000000000E+00 -0.00000000000E+00 -0.28509811221E+03  0.28509811221E+03  0.00000000000E+00 0.  1.
         -6    2    1    2    0  503 -0.73299558513E+00  0.14696675517E+03 -0.12355220501E+03  0.25866304336E+03  0.17332529600E+03 0.  0.
        -24    2    3    3    0    0  0.31285944615E+02  0.26814635756E+02 -0.13018451202E+02  0.92225231970E+02  0.81475016533E+02 0.  0.
          6    2    1    2  501    0  0.73299558513E+00 -0.14696675517E+03  0.43655315300E+02  0.23163629134E+03  0.17363703667E+03 0.  0.
         24    2    5    5    0    0  0.47410615676E+02 -0.85909742090E+02 -0.24497072535E+02  0.12880829403E+03  0.79769792422E+02 0.  0.
          5    1    5    5  501    0 -0.46677620091E+02 -0.61057013081E+02  0.68152387834E+02  0.10282799731E+03  0.47000000000E+01 0. -1.
        -11    1    6    6    0    0  0.29675890926E+01 -0.79807961488E+02 -0.53778685437E+01  0.80043980236E+02  0.00000000000E+00 0.  1.
         12    1    6    6    0    0  0.44443026583E+02 -0.61017806018E+01 -0.19119203991E+02  0.48764313792E+02  0.00000000000E+00 0. -1.
         -5    1    3    3    0  503 -0.32018940200E+02  0.12015211942E+03 -0.11053375380E+03  0.16643781139E+03  0.47000000000E+01 0.  1.
         13    1    4    4    0    0  0.38930794119E+02  0.48308817990E+02  0.62586886589E+01  0.62357997162E+02  0.00000000000E+00 0. -1.
        -14    1    4    4    0    0 -0.76448495040E+01 -0.21494182235E+02 -0.19277139861E+02  0.29867234808E+02  0.00000000000E+00 0.  1.
<mgrwt>
<rscale>  2 0.22742586E+03</rscale>
<asrwt>0</asrwt>
<pdfrwt beam="1">  1       21 0.31569419E-01 0.22748535E+03</pdfrwt>
<pdfrwt beam="2">  1       21 0.43861248E-01 0.22748535E+03</pdfrwt>
<totfact> 0.47385306E+04</totfact>
</mgrwt>
</event>
<event>
12    1  0.1050690E-001  0.2129664E+03  0.7546771E-02  0.1139524E+00
         21   -1    0    0  503  502  0.00000000000E+00  0.00000000000E+00  0.51872616187E+03  0.51872616187E+03  0.00000000000E+00 0.  1.
         21   -1    0    0  501  503 -0.00000000000E+00 -0.00000000000E+00 -0.10867170349E+03  0.10867170349E+03  0.00000000000E+00 0.  1.
          6    2    1    2  501    0  0.55312927606E+02  0.10966872605E+03  0.63840678981E+02  0.22092688029E+03  0.17218102307E+03 0.  0.
         24    2    3    3    0    0  0.50959019287E+02  0.10859439413E+02 -0.10055248184E+02  0.97375556152E+02  0.81646444189E+02 0.  0.
         -6    2    1    2    0  502 -0.55312927606E+02 -0.10966872605E+03  0.34621377940E+03  0.40647098507E+03  0.17397681231E+03 0.  0.
        -24    2    5    5    0    0  0.18496250387E+02 -0.92684462138E+01  0.18673416490E+03  0.20402630524E+03  0.79555449323E+02 0.  0.
          5    1    3    3  501    0  0.43539083183E+01  0.98809286641E+02  0.73895927165E+02  0.12355132414E+03  0.47000000000E+01 0. -1.
        -13    1    4    4    0    0  0.31163265902E+02 -0.32067915389E+02  0.10333420038E+02  0.45894225222E+02  0.00000000000E+00 0.  1.
         14    1    4    4    0    0  0.19795753385E+02  0.42927354802E+02 -0.20388668221E+02  0.51481330929E+02  0.00000000000E+00 0. -1.
         -5    1    5    5    0  502 -0.73809177993E+02 -0.10040027984E+03  0.15947961450E+03  0.20244467982E+03  0.47000000000E+01 0.  1.
         13    1    6    6    0    0  0.14250433617E+02  0.33839832866E+02  0.62877210806E+02  0.72813136077E+02  0.00000000000E+00 0. -1.
        -14    1    6    6    0    0  0.42458167696E+01 -0.43108279080E+02  0.12385695409E+03  0.13121316917E+03  0.00000000000E+00 0.  1.
<mgrwt>
<rscale>  2 0.21259932E+03</rscale>
<asrwt>0</asrwt>
<pdfrwt beam="1">  1       21 0.79804023E-01 0.21296638E+03</pdfrwt>
<pdfrwt beam="2">  1       21 0.16718724E-01 0.21296638E+03</pdfrwt>
<totfact> 0.44033760E+04</totfact>
</mgrwt>
</event>
<event>
12    1  0.1050690E-001  0.2132486E+03  0.7546771E-02  0.1139385E+00
         21   -1    0    0  501  502  0.00000000000E+00  0.00000000000E+00  0.82397086038E+02  0.82397086038E+02  0.00000000000E+00 0.  1.
         21   -1    0    0  502  503 -0.00000000000E+00 -0.00000000000E+00 -0.62259441435E+03  0.62259441435E+03  0.00000000000E+00 0. -1.
         -6    2    1    2    0  503  0.10644740169E+03 -0.61675663170E+02 -0.14626745581E+03  0.25704538752E+03  0.17188142966E+03 0.  0.
        -24    2    3    3    0    0  0.11828220489E+03 -0.49640533718E+01 -0.13579763858E+03  0.19798629571E+03  0.82111222295E+02 0.  0.
          6    2    1    2  501    0 -0.10644740169E+03  0.61675663170E+02 -0.39392987250E+03  0.44794611286E+03  0.17418392242E+03 0.  0.
         24    2    5    5    0    0 -0.10831132105E+03 -0.50069756874E+01 -0.32572014385E+03  0.35242278795E+03  0.79698163612E+02 0.  0.
          5    1    5    5  501    0  0.18639193611E+01  0.66682638857E+02 -0.68209728654E+02  0.95523324918E+02  0.47000000000E+01 0. -1.
        -11    1    6    6    0    0 -0.34385504321E+02 -0.15553083171E+02 -0.32378179046E+02  0.49725323346E+02  0.00000000000E+00 0.  1.
         12    1    6    6    0    0 -0.73925816729E+02  0.10546107484E+02 -0.29334196480E+03  0.30269746460E+03  0.00000000000E+00 0. -1.
         -5    1    3    3    0  503 -0.11834803198E+02 -0.56711609798E+02 -0.10469817230E+02  0.59059091811E+02  0.47000000000E+01 0.  1.
         13    1    4    4    0    0  0.52241832010E+02  0.14030492711E+01 -0.11836339366E+03  0.12938728885E+03  0.00000000000E+00 0. -1.
        -14    1    4    4    0    0  0.66040372877E+02 -0.63671026429E+01 -0.17434244923E+02  0.68599006858E+02  0.00000000000E+00 0.  1.
<mgrwt>
<rscale>  2 0.21277794E+03</rscale>
<asrwt>0</asrwt>
<pdfrwt beam="1">  1       21 0.12676475E-01 0.21324862E+03</pdfrwt>
<pdfrwt beam="2">  1       21 0.95783752E-01 0.21324862E+03</pdfrwt>
<totfact> 0.47828533E+04</totfact>
</mgrwt>
</event>
<event>
12    1  0.1050690E-001  0.2829327E+03  0.7546771E-02  0.1094180E+00
         21   -1    0    0  503  502  0.00000000000E+00  0.00000000000E+00  0.25785400306E+03  0.25785400306E+03  0.00000000000E+00 0. -1.
         21   -1    0    0  501  503 -0.00000000000E+00 -0.00000000000E+00 -0.36443325520E+03  0.36443325520E+03  0.00000000000E+00 0.  1.
          6    2    1    2  501    0 -0.89687930699E+02  0.20507070212E+03 -0.17382450610E+03  0.33206307658E+03  0.17306937951E+03 0.  0.
         24    2    3    3    0    0 -0.37249011612E+02  0.16903160667E+03 -0.57805829259E+02  0.19965809174E+03  0.81010288100E+02 0.  0.
         -6    2    1    2    0  502  0.89687930699E+02 -0.20507070212E+03  0.67245253961E+02  0.29022418168E+03  0.17207624377E+03 0.  0.
        -24    2    5    5    0    0  0.82444758503E+02 -0.18055226471E+03 -0.54739043481E+01  0.21299864638E+03  0.77085674649E+02 0.  0.
          5    1    3    3  501    0 -0.52438919087E+02  0.36039095444E+02 -0.11601867684E+03  0.13240498484E+03  0.47000000000E+01 0. -1.
        -11    1    4    4    0    0 -0.45570505951E+02  0.11832869678E+03 -0.72698183800E+02  0.14616216139E+03  0.00000000000E+00 0.  1.
         12    1    4    4    0    0  0.83214943397E+01  0.50702909893E+02  0.14892354540E+02  0.53495930345E+02  0.00000000000E+00 0. -1.
         -5    1    5    5    0  502  0.72431721961E+01 -0.24518437409E+02  0.72719158309E+02  0.77225535295E+02  0.47000000000E+01 0.  1.
         11    1    6    6    0    0  0.47945224487E+02 -0.17032429605E+03 -0.43360698135E+01  0.17699692618E+03  0.00000000000E+00 0. -1.
        -12    1    6    6    0    0  0.34499534016E+02 -0.10227968661E+02 -0.11378345346E+01  0.36001720205E+02  0.00000000000E+00 0.  1.
<mgrwt>
<rscale>  2 0.28278100E+03</rscale>
<asrwt>0</asrwt>
<pdfrwt beam="1">  1       21 0.39669847E-01 0.28293273E+03</pdfrwt>
<pdfrwt beam="2">  1       21 0.56066654E-01 0.28293273E+03</pdfrwt>
<totfact> 0.17496671E+04</totfact>
</mgrwt>
</event>
<event>
12    1  0.1050690E-001  0.2436865E+03  0.7546771E-02  0.1117432E+00
         21   -1    0    0  501  502  0.00000000000E+00  0.00000000000E+00  0.13217179375E+04  0.13217179375E+04  0.00000000000E+00 0.  1.
         21   -1    0    0  502  503 -0.00000000000E+00 -0.00000000000E+00 -0.77059819147E+02  0.77059819147E+02  0.00000000000E+00 0.  1.
         -6    2    1    2    0  503  0.16549708725E+03  0.42840199037E+02  0.16982696762E+03  0.29666837367E+03  0.17305015593E+03 0.  0.
        -24    2    3    3    0    0  0.12084059871E+03 -0.26571677543E+02  0.59368891662E+02  0.15869994568E+03  0.79702591662E+02 0.  0.
          6    2    1    2  501    0 -0.16549708725E+03 -0.42840199037E+02  0.10748311507E+04  0.11021093830E+04  0.17366208832E+03 0.  0.
         24    2    5    5    0    0 -0.82395138469E+02 -0.15164027132E+02  0.88831566953E+03  0.89599771637E+03  0.81781858934E+02 0.  0.
          5    1    5    5  501    0 -0.83101948777E+02 -0.27676171906E+02  0.18651548120E+03  0.20611166660E+03  0.47000000000E+01 0. -1.
        -13    1    6    6    0    0 -0.94504953269E+02 -0.15832109422E+01  0.63102620760E+03  0.63806564508E+03  0.00000000000E+00 0.  1.
         14    1    6    6    0    0  0.12109814800E+02 -0.13580816190E+02  0.25728946193E+03  0.25793207130E+03  0.00000000000E+00 0. -1.
         -5    1    3    3    0  503  0.44656488540E+02  0.69411876580E+02  0.11045807596E+03  0.13796842800E+03  0.47000000000E+01 0.  1.
         11    1    4    4    0    0  0.23123148515E+02 -0.41898272504E+02  0.24961291847E+02  0.53974172775E+02  0.00000000000E+00 0. -1.
        -12    1    4    4    0    0  0.97717450190E+02  0.15326594961E+02  0.34407599815E+02  0.10472577290E+03  0.00000000000E+00 0.  1.
<mgrwt>
<rscale>  2 0.24357746E+03</rscale>
<asrwt>0</asrwt>
<pdfrwt beam="1">  1       21 0.20334120E+00 0.24368646E+03</pdfrwt>
<pdfrwt beam="2">  1       21 0.11855358E-01 0.24368646E+03</pdfrwt>
<totfact> 0.73567550E+03</totfact>
</mgrwt>
</event>
<event>
12    1  0.1050690E-001  0.1776614E+03  0.7546771E-02  0.1170648E+00
         21   -1    0    0  503  502  0.00000000000E+00  0.00000000000E+00  0.36670208660E+03  0.36670208660E+03  0.00000000000E+00 0.  1.
         21   -1    0    0  501  503 -0.00000000000E+00 -0.00000000000E+00 -0.44550071213E+03  0.44550071213E+03  0.00000000000E+00 0.  1.
          6    2    1    2  501    0  0.21528844384E+02  0.22138709719E+02 -0.40467212358E+03  0.44104633950E+03  0.17265205579E+03 0.  0.
         24    2    3    3    0    0  0.75372615970E+02  0.39815471372E+02 -0.28998904748E+03  0.31303884915E+03  0.81445505820E+02 0.  0.
         -6    2    1    2    0  502 -0.21528844384E+02 -0.22138709719E+02  0.32587349805E+03  0.37115645924E+03  0.17495704300E+03 0.  0.
        -24    2    5    5    0    0  0.82092989665E+01 -0.81134322643E+02  0.17044730362E+03  0.20220607768E+03  0.72005858370E+02 0.  0.
          5    1    3    3  501    0 -0.53843771586E+02 -0.17676761653E+02 -0.11468307610E+03  0.12800749035E+03  0.47000000000E+01 0. -1.
        -13    1    4    4    0    0  0.79089589231E+02  0.26645300060E+01 -0.17308400866E+03  0.19031641259E+03  0.00000000000E+00 0.  1.
         14    1    4    4    0    0 -0.37169732608E+01  0.37150941366E+02 -0.11690503882E+03  0.12272243656E+03  0.00000000000E+00 0. -1.
         -5    1    5    5    0  502 -0.29738143351E+02  0.58995612924E+02  0.15542619443E+03  0.16895038156E+03  0.47000000000E+01 0.  1.
         13    1    6    6    0    0  0.13511665151E+02 -0.29663472406E+02  0.10730268890E+02  0.34316546458E+02  0.00000000000E+00 0. -1.
        -14    1    6    6    0    0 -0.53023661849E+01 -0.51470850237E+02  0.15971703473E+03  0.16788953123E+03  0.00000000000E+00 0.  1.
<mgrwt>
<rscale>  2 0.17709132E+03</rscale>
<asrwt>0</asrwt>
<pdfrwt beam="1">  1       21 0.56415705E-01 0.17766142E+03</pdfrwt>
<pdfrwt beam="2">  1       21 0.68538572E-01 0.17766142E+03</pdfrwt>
<totfact> 0.58037974E+03</totfact>
</mgrwt>
</event>
<event>
12    1  0.1050690E-001  0.1992205E+03  0.7546771E-02  0.1150524E+00
         21   -1    0    0  501  502  0.00000000000E+00  0.00000000000E+00  0.70150747026E+03  0.70150747026E+03  0.00000000000E+00 0. -1.
         21   -1    0    0  502  503 -0.00000000000E+00 -0.00000000000E+00 -0.11323715273E+03  0.11323715273E+03  0.00000000000E+00 0. -1.
         -6    2    1    2    0  503  0.98743609042E+02 -0.32535904539E+01  0.57634911607E+01  0.19930390194E+03  0.17299694020E+03 0.  0.
        -24    2    3    3    0    0  0.76352424195E+02  0.52058146736E+02 -0.34247582786E+02  0.12730578065E+03  0.80586112572E+02 0.  0.
          6    2    1    2  501    0 -0.98743609042E+02  0.32535904539E+01  0.58250682637E+03  0.61544072106E+03  0.17231422517E+03 0.  0.
         24    2    5    5    0    0  0.38083855129E+01 -0.21967427333E+02  0.16748088178E+03  0.18716319888E+03  0.80517983013E+02 0.  0.
          5    1    5    5  501    0 -0.10255199455E+03  0.25221017787E+02  0.41502594459E+03  0.42827752219E+03  0.47000000000E+01 0. -1.
        -11    1    6    6    0    0  0.12076699208E+02 -0.19105322107E+02  0.17449279347E+03  0.17595054695E+03  0.00000000000E+00 0.  1.
         12    1    6    6    0    0 -0.82683136946E+01 -0.28621052268E+01 -0.70119116952E+01  0.11212651930E+02  0.00000000000E+00 0. -1.
         -5    1    3    3    0  503  0.22391184847E+02 -0.55311737190E+02  0.40011073947E+02  0.71998121283E+02  0.47000000000E+01 0.  1.
         13    1    4    4    0    0  0.80695787841E+02  0.16260246372E+02 -0.80024693213E+01  0.82705775509E+02  0.00000000000E+00 0. -1.
        -14    1    4    4    0    0 -0.43433636458E+01  0.35797900364E+02 -0.26245113465E+02  0.44600005146E+02  0.00000000000E+00 0.  1.
<mgrwt>
<rscale>  2 0.19907224E+03</rscale>
<asrwt>0</asrwt>
<pdfrwt beam="1">  1       21 0.10792422E+00 0.19922055E+03</pdfrwt>
<pdfrwt beam="2">  1       21 0.17421101E-01 0.19922055E+03</pdfrwt>
<totfact> 0.20310781E+04</totfact>
</mgrwt>
</event>
<event>
12    1  0.1050690E-001  0.2239939E+03  0.7546771E-02  0.1134299E+00
         21   -1    0    0  503  502  0.00000000000E+00  0.00000000000E+00  0.28970294567E+03  0.28970294567E+03  0.00000000000E+00 0.  1.
         21   -1    0    0  501  503 -0.00000000000E+00 -0.00000000000E+00 -0.16200160245E+03  0.16200160245E+03  0.00000000000E+00 0.  1.
          6    2    1    2  501    0 -0.91768992944E+02  0.67679249364E+02  0.92702584545E+02  0.24241914975E+03  0.19279845985E+03 0.  0.
         24    2    3    3    0    0 -0.44894454468E+02 -0.16284887752E+01  0.12230352827E+03  0.15354232041E+03  0.81233780600E+02 0.  0.
         -6    2    1    2    0  502  0.91768992944E+02 -0.67679249364E+02  0.34998758676E+02  0.20928539838E+03  0.17196928797E+03 0.  0.
        -24    2    5    5    0    0  0.11548597309E+03 -0.14002222082E+02  0.46927061721E+02  0.14921799608E+03  0.80813297352E+02 0.  0.
          5    1    3    3  501    0 -0.46874538477E+02  0.69307738139E+02 -0.29600943729E+02  0.88876829337E+02  0.47000000000E+01 0. -1.
        -13    1    4    4    0    0  0.20119432200E+02  0.14442440975E+02  0.44129105236E+02  0.50603889004E+02  0.00000000000E+00 0.  1.
         14    1    4    4    0    0 -0.65013886668E+02 -0.16070929751E+02  0.78174423039E+02  0.10293843141E+03  0.00000000000E+00 0. -1.
         -5    1    5    5    0  502 -0.23716980146E+02 -0.53677027281E+02 -0.11928303045E+02  0.60067402296E+02  0.47000000000E+01 0.  1.
         13    1    6    6    0    0  0.11541117570E+03 -0.30414999801E+02  0.25190839858E+02  0.12198110551E+03  0.00000000000E+00 0. -1.
        -14    1    6    6    0    0  0.74797392793E-01  0.16412777719E+02  0.21736221863E+02  0.27236890571E+02  0.00000000000E+00 0.  1.
<mgrwt>
<rscale>  2 0.21944318E+03</rscale>
<asrwt>0</asrwt>
<pdfrwt beam="1">  1       21 0.44569684E-01 0.22399392E+03</pdfrwt>
<pdfrwt beam="2">  1       21 0.24923323E-01 0.22399392E+03</pdfrwt>
<totfact> 0.72657382E+04</totfact>
</mgrwt>
</event>
<event>
12    1  0.1050690E-001  0.1918337E+03  0.7546771E-02  0.1157096E+00
         21   -1    0    0  501  502  0.00000000000E+00  0.00000000000E+00  0.16094806956E+03  0.16094806956E+03  0.00000000000E+00 0. -1.
         21   -1    0    0  502  503 -0.00000000000E+00 -0.00000000000E+00 -0.31569440288E+03  0.31569440288E+03  0.00000000000E+00 0. -1.
         -6    2    1    2    0  503  0.52855504295E+01  0.82536441427E+02 -0.20339436386E+03  0.27873642485E+03  0.17171058814E+03 0.  0.
        -24    2    3    3    0    0 -0.43142148673E+01 -0.18454213875E+02 -0.75884123844E+02  0.11572655011E+03  0.85293983904E+02 0.  0.
          6    2    1    2  501    0 -0.52855504295E+01 -0.82536441427E+02  0.48648030537E+02  0.19790604759E+03  0.17308949012E+03 0.  0.
         24    2    5    5    0    0 -0.61946353299E+02 -0.24323432202E+02  0.14800022808E+02  0.10977558378E+03  0.86038701044E+02 0.  0.
          5    1    5    5  501    0  0.56660802869E+02 -0.58213009225E+02  0.33848007729E+02  0.88130463814E+02  0.47000000000E+01 0. -1.
        -13    1    6    6    0    0  0.26280569379E+01  0.49915802444E+01 -0.26914732978E+02  0.27499552867E+02  0.00000000000E+00 0.  1.
         14    1    6    6    0    0 -0.64574410237E+02 -0.29315012447E+02  0.41714755785E+02  0.82276030911E+02  0.00000000000E+00 0. -1.
         -5    1    3    3    0  503  0.95997652968E+01  0.10099065530E+03 -0.12751024002E+03  0.16300987474E+03  0.47000000000E+01 0.  1.
         13    1    4    4    0    0 -0.27276099011E+02  0.59170582741E+01 -0.77328200916E+02  0.82210995693E+02  0.00000000000E+00 0. -1.
        -14    1    4    4    0    0  0.22961884144E+02 -0.24371272149E+02  0.14440770722E+01  0.33515554422E+02  0.00000000000E+00 0.  1.
<mgrwt>
<rscale>  2 0.19152214E+03</rscale>
<asrwt>0</asrwt>
<pdfrwt beam="1">  1       21 0.24761242E-01 0.19183371E+03</pdfrwt>
<pdfrwt beam="2">  1       21 0.48568369E-01 0.19183371E+03</pdfrwt>
<totfact> 0.62470413E+04</totfact>
</mgrwt>
</event>
<event>
12    1  0.1050690E-001  0.1896106E+03  0.7546771E-02  0.1160312E+00
         21   -1    0    0  503  502  0.00000000000E+00  0.00000000000E+00  0.19902888384E+03  0.19902888384E+03  0.00000000000E+00 0. -1.
         21   -1    0    0  501  503 -0.00000000000E+00 -0.00000000000E+00 -0.24053146446E+03  0.24053146446E+03  0.00000000000E+00 0. -1.
          6    2    1    2  501    0 -0.15009164109E+01 -0.76725249779E+02 -0.13563775083E+03  0.22786812526E+03  0.16624459798E+03 0.  0.
         24    2    3    3    0    0 -0.23849546009E+01 -0.77431429796E+01 -0.55652662834E+01  0.80558065121E+02  0.79956146703E+02 0.  0.
         -6    2    1    2    0  502  0.15009164109E+01  0.76725249779E+02  0.94135170217E+02  0.21169222304E+03  0.17338728419E+03 0.  0.
        -24    2    5    5    0    0  0.55260225156E+02  0.88414415847E+02  0.47073839924E+02  0.13914183580E+03  0.79206708366E+02 0.  0.
          5    1    3    3  501    0  0.88403819002E+00 -0.68982106799E+02 -0.13007248455E+03  0.14731006014E+03  0.47000000000E+01 0. -1.
        -13    1    4    4    0    0 -0.36098415280E+02 -0.16167839782E+02 -0.18255506791E+02  0.43563266144E+02  0.00000000000E+00 0.  1.
         14    1    4    4    0    0  0.33713460679E+02  0.84246968023E+01  0.12690240508E+02  0.36994798977E+02  0.00000000000E+00 0. -1.
         -5    1    5    5    0  502 -0.53759308745E+02 -0.11689166068E+02  0.47061330293E+02  0.72550387243E+02  0.47000000000E+01 0.  1.
         11    1    6    6    0    0  0.14432381589E+02  0.78040053209E+02  0.54624615698E+02  0.96345172081E+02  0.00000000000E+00 0. -1.
        -12    1    6    6    0    0  0.40827843567E+02  0.10374362638E+02 -0.75507757740E+01  0.42796663716E+02  0.00000000000E+00 0.  1.
<mgrwt>
<rscale>  2 0.18796201E+03</rscale>
<asrwt>0</asrwt>
<pdfrwt beam="1">  1       21 0.30619828E-01 0.18961057E+03</pdfrwt>
<pdfrwt beam="2">  1       21 0.37004841E-01 0.18961057E+03</pdfrwt>
<totfact> 0.72209374E+04</totfact>
</mgrwt>
</event>
<event>
12    1  0.1050690E-001  0.1722730E+03  0.7546771E-02  0.1175704E+00
         21   -1    0    0  503  502  0.00000000000E+00  0.00000000000E+00  0.36142863322E+03  0.36142863322E+03  0.00000000000E+00 0. -1.
         21   -1    0    0  501  503 -0.00000000000E+00 -0.00000000000E+00 -0.35831801384E+03  0.35831801384E+03  0.00000000000E+00 0. -1.
          6    2    1    2  501    0 -0.92023208391E+01 -0.11921329683E+01 -0.31462328260E+03  0.35831504625E+03  0.17121845263E+03 0.  0.
         24    2    3    3    0    0  0.17527866961E+02  0.46181558714E+02 -0.27539352110E+03  0.29108533711E+03  0.80306410261E+02 0.  0.
         -6    2    1    2    0  502  0.92023208391E+01  0.11921329683E+01  0.31773390198E+03  0.36143160082E+03  0.17202286392E+03 0.  0.
        -24    2    5    5    0    0  0.24782437873E+02  0.59232173498E+02  0.25141668076E+03  0.27181324231E+03  0.80928806517E+02 0.  0.
          5    1    3    3  501    0 -0.26730187800E+02 -0.47373691682E+02 -0.39229761502E+02  0.67229709139E+02  0.47000000000E+01 0. -1.
        -13    1    4    4    0    0 -0.21532948746E+02  0.12139444534E+02 -0.24161490241E+02  0.34566047011E+02  0.00000000000E+00 0.  1.
         14    1    4    4    0    0  0.39060815707E+02  0.34042114180E+02 -0.25123203086E+03  0.25651929010E+03  0.00000000000E+00 0. -1.
         -5    1    5    5    0  502 -0.15580117034E+02 -0.58040040530E+02  0.66317221222E+02  0.89618358510E+02  0.47000000000E+01 0.  1.
         13    1    6    6    0    0  0.10019703353E+02  0.13427642620E+02  0.20250139493E+03  0.20319328481E+03  0.00000000000E+00 0. -1.
        -14    1    6    6    0    0  0.14762734520E+02  0.45804530878E+02  0.48915285829E+02  0.68619957499E+02  0.00000000000E+00 0.  1.
<mgrwt>
<rscale>  2 0.17207179E+03</rscale>
<asrwt>0</asrwt>
<pdfrwt beam="1">  1       21 0.55604405E-01 0.17227295E+03</pdfrwt>
<pdfrwt beam="2">  1       21 0.55125848E-01 0.17227295E+03</pdfrwt>
<totfact> 0.95991482E+03</totfact>
</mgrwt>
</event>
<event>
12    1  0.1050690E-001  0.2758185E+03  0.7546771E-02  0.1098343E+00
         21   -1    0    0  503  502  0.00000000000E+00  0.00000000000E+00  0.55662404794E+03  0.55662404794E+03  0.00000000000E+00 0.  1.
         21   -1    0    0  501  503 -0.00000000000E+00 -0.00000000000E+00 -0.13553503894E+03  0.13553503894E+03  0.00000000000E+00 0.  1.
          6    2    1    2  501    0  0.18387982463E+03  0.10516621021E+03  0.21858545403E+03  0.34998436768E+03  0.17273602761E+03 0.  0.
         24    2    3    3    0    0  0.19363634612E+03  0.99683105757E+02  0.14348053160E+03  0.27390484666E+03  0.83698542160E+02 0.  0.
         -6    2    1    2    0  502 -0.18387982463E+03 -0.10516621021E+03  0.20250355496E+03  0.34217471920E+03  0.17664689923E+03 0.  0.
        -24    2    5    5    0    0 -0.40688191516E+02 -0.92011493002E+02  0.54378838997E+02  0.13568038063E+03  0.73010025236E+02 0.  0.
          5    1    3    3  501    0 -0.97565214978E+01  0.54831044546E+01  0.75104922432E+02  0.76079521027E+02  0.47000000000E+01 0. -1.
        -11    1    4    4    0    0  0.15223128347E+03  0.88838622319E+02  0.14893643896E+03  0.23075685761E+03  0.00000000000E+00 0.  1.
         12    1    4    4    0    0  0.41405062649E+02  0.10844483438E+02 -0.54559073531E+01  0.43147989050E+02  0.00000000000E+00 0. -1.
         -5    1    5    5    0  502 -0.14319163311E+03 -0.13154717210E+02  0.14812471597E+03  0.20649433856E+03  0.47000000000E+01 0.  1.
         13    1    6    6    0    0 -0.44340282947E+01  0.61492996548E+01 -0.10205110605E+02  0.12712937333E+02  0.00000000000E+00 0. -1.
        -14    1    6    6    0    0 -0.36254163221E+02 -0.98160792657E+02  0.64583949602E+02  0.12296744330E+03  0.00000000000E+00 0.  1.
<mgrwt>
<rscale>  2 0.27519434E+03</rscale>
<asrwt>0</asrwt>
<pdfrwt beam="1">  1       21 0.85634468E-01 0.27581851E+03</pdfrwt>
<pdfrwt beam="2">  1       21 0.20851545E-01 0.27581851E+03</pdfrwt>
<totfact> 0.24111087E+04</totfact>
</mgrwt>
</event>
<event>
12    1  0.1050690E-001  0.1728818E+03  0.7546771E-02  0.1175371E+00
         21   -1    0    0  503  502  0.00000000000E+00  0.00000000000E+00  0.79463452701E+02  0.79463452701E+02  0.00000000000E+00 0.  1.
         21   -1    0    0  501  503 -0.00000000000E+00 -0.00000000000E+00 -0.48767906582E+03  0.48767906582E+03  0.00000000000E+00 0.  1.
          6    2    1    2  501    0 -0.14135676435E+02  0.90639260770E+01 -0.34137934680E+03  0.38179097476E+03  0.17012500662E+03 0.  0.
         24    2    3    3    0    0  0.55058285947E+01 -0.46425750528E+02 -0.12029659605E+03  0.15295792293E+03  0.82092573992E+02 0.  0.
         -6    2    1    2    0  502  0.14135676435E+02 -0.90639260770E+01 -0.66836266316E+02  0.18535154376E+03  0.17206433732E+03 0.  0.
        -24    2    5    5    0    0  0.28114433889E+02  0.11992462622E+02 -0.10698001484E+03  0.13768197579E+03  0.81100939146E+02 0.  0.
          5    1    3    3  501    0 -0.19641505030E+02  0.55489676605E+02 -0.22108275075E+03  0.22883305183E+03  0.47000000000E+01 0. -1.
        -11    1    4    4    0    0  0.12422423860E+02  0.22220357498E+02 -0.31013413841E+02  0.40123468693E+02  0.00000000000E+00 0.  1.
         12    1    4    4    0    0 -0.69165952650E+01 -0.68646108026E+02 -0.89283182212E+02  0.11283445424E+03  0.00000000000E+00 0. -1.
         -5    1    5    5    0  502 -0.13978757454E+02 -0.21056388699E+02  0.40143748524E+02  0.47669567971E+02  0.47000000000E+01 0.  1.
         13    1    6    6    0    0  0.33355052275E+02 -0.26023302439E+02 -0.30628859915E+02  0.52229291033E+02  0.00000000000E+00 0. -1.
        -14    1    6    6    0    0 -0.52406183858E+01  0.38015765061E+02 -0.76351154925E+02  0.85452684760E+02  0.00000000000E+00 0.  1.
<mgrwt>
<rscale>  2 0.17239723E+03</rscale>
<asrwt>0</asrwt>
<pdfrwt beam="1">  1       21 0.12225147E-01 0.17288178E+03</pdfrwt>
<pdfrwt beam="2">  1       21 0.75027547E-01 0.17288178E+03</pdfrwt>
<totfact> 0.90904589E+04</totfact>
</mgrwt>
</event>
<event>
12    1  0.1050690E-001  0.2311755E+03  0.7546771E-02  0.1126796E+00
         21   -1    0    0  503  502  0.00000000000E+00  0.00000000000E+00  0.24190089370E+03  0.24190089370E+03  0.00000000000E+00 0.  1.
         21   -1    0    0  501  503 -0.00000000000E+00 -0.00000000000E+00 -0.27075380802E+03  0.27075380802E+03  0.00000000000E+00 0.  1.
          6    2    1    2  501    0  0.25443379659E+02  0.14315968072E+03 -0.12990366856E+03  0.26035855692E+03  0.17253856178E+03 0.  0.
         24    2    3    3    0    0 -0.22474713802E+02  0.15256322867E+03 -0.80503381218E+02  0.19073780724E+03  0.78227010814E+02 0.  0.
         -6    2    1    2    0  502 -0.25443379659E+02 -0.14315968072E+03  0.10105075424E+03  0.25229614481E+03  0.17972209102E+03 0.  0.
        -24    2    5    5    0    0 -0.84543003188E+02 -0.81003985165E+02  0.45281994712E+02  0.14988354533E+03  0.81886831153E+02 0.  0.
          5    1    3    3  501    0  0.47918093461E+02 -0.94035479501E+01 -0.49400287347E+02  0.69620749673E+02  0.47000000000E+01 0. -1.
        -13    1    4    4    0    0  0.15494198115E+02  0.11781690261E+03 -0.40471141940E+02  0.12553408320E+03  0.00000000000E+00 0.  1.
         14    1    4    4    0    0 -0.37968911918E+02  0.34746326064E+02 -0.40032239278E+02  0.65203724040E+02  0.00000000000E+00 0. -1.
         -5    1    5    5    0  502  0.59099623529E+02 -0.62155695557E+02  0.55768759529E+02  0.10241259947E+03  0.47000000000E+01 0.  1.
         11    1    6    6    0    0 -0.94399646965E+01 -0.25118934270E+01 -0.20623891781E+02  0.22820329845E+02  0.00000000000E+00 0. -1.
        -12    1    6    6    0    0 -0.75103038491E+02 -0.78492091738E+02  0.65905886493E+02  0.12706321549E+03  0.00000000000E+00 0.  1.
<mgrwt>
<rscale>  2 0.22977797E+03</rscale>
<asrwt>0</asrwt>
<pdfrwt beam="1">  1       21 0.37215522E-01 0.23117545E+03</pdfrwt>
<pdfrwt beam="2">  1       21 0.41654432E-01 0.23117545E+03</pdfrwt>
<totfact> 0.37909868E+04</totfact>
</mgrwt>
</event>
<event>
12    1  0.1050690E-001  0.2294240E+03  0.7546771E-02  0.1128281E+00
         21   -1    0    0  503  502  0.00000000000E+00  0.00000000000E+00  0.17968503315E+03  0.17968503315E+03  0.00000000000E+00 0.  1.
         21   -1    0    0  501  503 -0.00000000000E+00 -0.00000000000E+00 -0.28538976204E+03  0.28538976204E+03  0.00000000000E+00 0. -1.
          6    2    1    2  501    0 -0.82862308468E+02 -0.12517669875E+03 -0.38674745220E+02  0.23266094745E+03  0.17349355169E+03 0.  0.
         24    2    3    3    0    0 -0.83615062561E+02 -0.10202778718E+03  0.32866607731E+02  0.15731710943E+03  0.79166350002E+02 0.  0.
         -6    2    1    2    0  502  0.82862308468E+02  0.12517669875E+03 -0.67029983676E+02  0.23241384774E+03  0.16427966956E+03 0.  0.
        -24    2    5    5    0    0  0.22521932021E+02  0.13394849221E+03 -0.62507854667E+02  0.17109138007E+03  0.83160041192E+02 0.  0.
          5    1    3    3  501    0  0.75275409237E+00 -0.23148911573E+02 -0.71541352951E+02  0.75343838022E+02  0.47000000000E+01 0. -1.
        -13    1    4    4    0    0 -0.69012307673E+02 -0.23758331111E+02  0.25680662928E+02  0.77373466744E+02  0.00000000000E+00 0.  1.
         14    1    4    4    0    0 -0.14602754888E+02 -0.78269456069E+02  0.71859448025E+01  0.79943642689E+02  0.00000000000E+00 0. -1.
         -5    1    5    5    0  502  0.60340376447E+02 -0.87717934559E+01 -0.45221290087E+01  0.61322467669E+02  0.47000000000E+01 0.  1.
         11    1    6    6    0    0  0.37916406267E+02  0.12663512654E+03 -0.73069759701E+02  0.15104071941E+03  0.00000000000E+00 0. -1.
        -12    1    6    6    0    0 -0.15394474246E+02  0.73133656709E+01  0.10561905034E+02  0.20050660655E+02  0.00000000000E+00 0.  1.
<mgrwt>
<rscale>  2 0.22768280E+03</rscale>
<asrwt>0</asrwt>
<pdfrwt beam="1">  1       21 0.27643851E-01 0.22942402E+03</pdfrwt>
<pdfrwt beam="2">  1       21 0.43906117E-01 0.22942402E+03</pdfrwt>
<totfact> 0.61240639E+04</totfact>
</mgrwt>
</event>
<event>
12    1  0.1050690E-001  0.2946920E+03  0.7546771E-02  0.1087996E+00
         21   -1    0    0  501  502  0.00000000000E+00  0.00000000000E+00  0.11288371735E+04  0.11288371735E+04  0.00000000000E+00 0.  1.
         21   -1    0    0  502  503 -0.00000000000E+00 -0.00000000000E+00 -0.82420460208E+02  0.82420460208E+02  0.00000000000E+00 0. -1.
         -6    2    1    2    0  503  0.21782941764E+03  0.95084842993E+02  0.36532551829E+03  0.46936776058E+03  0.17421991218E+03 0.  0.
        -24    2    3    3    0    0  0.14330151832E+03  0.12871103998E+03  0.29843797347E+03  0.36362674417E+03  0.77828838447E+02 0.  0.
          6    2    1    2  501    0 -0.21782941764E+03 -0.95084842993E+02  0.68109119501E+03  0.74188987313E+03  0.17327603813E+03 0.  0.
         24    2    5    5    0    0 -0.17635507858E+03 -0.75278064163E+02  0.34717101040E+03  0.40478868807E+03  0.80983151582E+02 0.  0.
          5    1    5    5  501    0 -0.41474339062E+02 -0.19806778830E+02  0.33392018460E+03  0.33710118507E+03  0.47000000000E+01 0. -1.
        -13    1    6    6    0    0 -0.22513788426E+02  0.15389948286E+02  0.69442080563E+02  0.74605118661E+02  0.00000000000E+00 0.  1.
         14    1    6    6    0    0 -0.15384129015E+03 -0.90668012449E+02  0.27772892984E+03  0.33018356941E+03  0.00000000000E+00 0. -1.
         -5    1    3    3    0  503  0.74527899314E+02 -0.33626196988E+02  0.66887544816E+02  0.10574101641E+03  0.47000000000E+01 0.  1.
         11    1    4    4    0    0  0.75198529452E+02  0.10374376646E+03  0.14244214044E+03  0.19159162635E+03  0.00000000000E+00 0. -1.
        -12    1    4    4    0    0  0.68102988873E+02  0.24967273517E+02  0.15599583303E+03  0.17203511782E+03  0.00000000000E+00 0.  1.
<mgrwt>
<rscale>  2 0.29455262E+03</rscale>
<asrwt>0</asrwt>
<pdfrwt beam="1">  1       21 0.17366725E+00 0.29469198E+03</pdfrwt>
<pdfrwt beam="2">  1       21 0.12680072E-01 0.29469198E+03</pdfrwt>
<totfact> 0.10005280E+04</totfact>
</mgrwt>
</event>
<event>
12    1  0.1050690E-001  0.2397704E+03  0.7546771E-02  0.1122581E+00
         21   -1    0    0  501  502  0.00000000000E+00  0.00000000000E+00  0.79073932757E+03  0.79073932757E+03  0.00000000000E+00 0.  1.
         21   -1    0    0  502  503 -0.00000000000E+00 -0.00000000000E+00 -0.68433250940E+02  0.68433250940E+02  0.00000000000E+00 0. -1.
         -6    2    1    2    0  503 -0.10582439699E+03  0.96477747792E+02  0.34543041256E+03  0.42049018892E+03  0.19230982876E+03 0.  0.
        -24    2    3    3    0    0 -0.18863442027E+01  0.23126471467E+02  0.43963266298E+02  0.93247070072E+02  0.78891414719E+02 0.  0.
          6    2    1    2  501    0  0.10582439699E+03 -0.96477747792E+02  0.37687566407E+03  0.43868238959E+03  0.17291678332E+03 0.  0.
         24    2    5    5    0    0  0.69009467019E+02 -0.18205810310E+02  0.27888106544E+03  0.30788916872E+03  0.10921233211E+03 0.  0.
          5    1    5    5  501    0  0.36814929974E+02 -0.78271937482E+02  0.97994598628E+02  0.13079322087E+03  0.47000000000E+01 0. -1.
        -11    1    6    6    0    0  0.33542481117E+02 -0.29693135374E+02  0.26395814701E+03  0.26773248533E+03  0.00000000000E+00 0.  1.
         12    1    6    6    0    0  0.35466985902E+02  0.11487325064E+02  0.14922918427E+02  0.40156683385E+02  0.00000000000E+00 0. -1.
         -5    1    3    3    0  503 -0.10393805279E+03  0.73351276325E+02  0.30146714626E+03  0.32724311885E+03  0.47000000000E+01 0.  1.
         11    1    4    4    0    0  0.11548014685E+02  0.36694671551E+02 -0.67516106077E+01  0.39056879153E+02  0.00000000000E+00 0. -1.
        -12    1    4    4    0    0 -0.13434358888E+02 -0.13568200084E+02  0.50714876906E+02  0.54190190919E+02  0.00000000000E+00 0.  1.
<mgrwt>
<rscale>  2 0.23586199E+03</rscale>
<asrwt>0</asrwt>
<pdfrwt beam="1">  1       21 0.12165220E+00 0.23977037E+03</pdfrwt>
<pdfrwt beam="2">  1       21 0.10528193E-01 0.23977037E+03</pdfrwt>
<totfact> 0.36884298E+04</totfact>
</mgrwt>
</event>
<event>
12    1  0.1050690E-001  0.2432738E+03  0.7546771E-02  0.1117755E+00
         21   -1    0    0  501  502  0.00000000000E+00  0.00000000000E+00  0.20613367980E+03  0.20613367980E+03  0.00000000000E+00 0.  1.
         21   -1    0    0  502  503 -0.00000000000E+00 -0.00000000000E+00 -0.29359663469E+03  0.29359663469E+03  0.00000000000E+00 0.  1.
         -6    2    1    2    0  503  0.14038224205E+03  0.97834347226E+02 -0.40412596218E+01  0.24255075695E+03  0.17185983980E+03 0.  0.
        -24    2    3    3    0    0  0.67044039212E+02  0.85941329907E+01 -0.52321843383E+02  0.11726942314E+03  0.80285615106E+02 0.  0.
          6    2    1    2  501    0 -0.14038224205E+03 -0.97834347226E+02 -0.83421695263E+02  0.25717955755E+03  0.17292603100E+03 0.  0.
         24    2    5    5    0    0 -0.73846019147E+02 -0.47904091836E+02  0.23604393366E+02  0.12154485325E+03  0.80423550079E+02 0.  0.
          5    1    5    5  501    0 -0.66536222904E+02 -0.49930255390E+02 -0.10702608863E+03  0.13563470429E+03  0.47000000000E+01 0. -1.
        -13    1    6    6    0    0 -0.90364153268E+02 -0.31610445565E+02  0.15571157910E+02  0.96991553360E+02  0.00000000000E+00 0.  1.
         14    1    6    6    0    0  0.16518134121E+02 -0.16293646271E+02  0.80332354559E+01  0.24553299891E+02  0.00000000000E+00 0. -1.
         -5    1    3    3    0  503  0.73338202838E+02  0.89240214236E+02  0.48280583761E+02  0.12528133381E+03  0.47000000000E+01 0.  1.
         13    1    4    4    0    0 -0.44102221704E+01 -0.23901147585E+02 -0.28190145379E+01  0.24467565438E+02  0.00000000000E+00 0. -1.
        -14    1    4    4    0    0  0.71454261383E+02  0.32495280576E+02 -0.49502828845E+02  0.92801857703E+02  0.00000000000E+00 0.  1.
<mgrwt>
<rscale>  2 0.24308441E+03</rscale>
<asrwt>0</asrwt>
<pdfrwt beam="1">  1       21 0.31712874E-01 0.24327381E+03</pdfrwt>
<pdfrwt beam="2">  1       21 0.45168713E-01 0.24327381E+03</pdfrwt>
<totfact> 0.43908430E+04</totfact>
</mgrwt>
</event>
<event>
12    1  0.1050690E-001  0.2119489E+03  0.7546771E-02  0.1141665E+00
         21   -1    0    0  503  502  0.00000000000E+00  0.00000000000E+00  0.13099703078E+03  0.13099703078E+03  0.00000000000E+00 0. -1.
         21   -1    0    0  501  503 -0.00000000000E+00 -0.00000000000E+00 -0.42479956224E+03  0.42479956224E+03  0.00000000000E+00 0.  1.
          6    2    1    2  501    0  0.11641984440E+03  0.39728664076E+02 -0.13277234200E+02  0.20420478839E+03  0.16245418965E+03 0.  0.
         24    2    3    3    0    0  0.11041535918E+03  0.80807765753E+02 -0.22616747740E+02  0.16139283971E+03  0.82551104666E+02 0.  0.
         -6    2    1    2    0  502 -0.11641984440E+03 -0.39728664076E+02 -0.28052529726E+03  0.35159180462E+03  0.17259897960E+03 0.  0.
        -24    2    5    5    0    0 -0.13757032992E+02 -0.35610303219E+02 -0.21342326940E+03  0.22878551047E+03  0.73047711988E+02 0.  0.
          5    1    3    3  501    0  0.60044852188E+01 -0.41079101677E+02  0.93395135394E+01  0.42811948688E+02  0.47000000000E+01 0. -1.
        -11    1    4    4    0    0  0.10917367948E+03  0.37365558154E+02 -0.24211405403E+02  0.11790364447E+03  0.00000000000E+00 0.  1.
         12    1    4    4    0    0  0.12416797008E+01  0.43442207599E+02  0.15946576631E+01  0.43489195240E+02  0.00000000000E+00 0. -1.
         -5    1    5    5    0  502 -0.10266281140E+03 -0.41183608563E+01 -0.67102027859E+02  0.12280629416E+03  0.47000000000E+01 0.  1.
         11    1    6    6    0    0  0.27494836400E+02 -0.18378472959E+02 -0.12997232644E+03  0.13411390658E+03  0.00000000000E+00 0. -1.
        -12    1    6    6    0    0 -0.41251869393E+02 -0.17231830261E+02 -0.83450942959E+02  0.94671603891E+02  0.00000000000E+00 0.  1.
<mgrwt>
<rscale>  2 0.20987463E+03</rscale>
<asrwt>0</asrwt>
<pdfrwt beam="1">  1       21 0.20153389E-01 0.21194894E+03</pdfrwt>
<pdfrwt beam="2">  1       21 0.65353779E-01 0.21194894E+03</pdfrwt>
<totfact> 0.48552327E+04</totfact>
</mgrwt>
</event>
<event>
12    1  0.1050690E-001  0.1876885E+03  0.7546771E-02  0.1160897E+00
         21   -1    0    0  503  502  0.00000000000E+00  0.00000000000E+00  0.14139846447E+04  0.14139846447E+04  0.00000000000E+00 0. -1.
         21   -1    0    0  501  503 -0.00000000000E+00 -0.00000000000E+00 -0.25050100332E+02  0.25050100332E+02  0.00000000000E+00 0. -1.
          6    2    1    2  501    0 -0.17909249516E+02  0.70088638122E+02  0.61465917585E+03  0.64267634589E+03  0.17318725329E+03 0.  0.
         24    2    3    3    0    0 -0.17509499715E+02  0.90444897801E+02  0.60872041727E+03  0.62095317942E+03  0.80965687237E+02 0.  0.
         -6    2    1    2    0  502  0.17909249516E+02 -0.70088638122E+02  0.77427536850E+03  0.79635839913E+03  0.17161350522E+03 0.  0.
        -24    2    5    5    0    0  0.43640636637E+02 -0.79315958394E+02  0.32797474305E+03  0.34919669906E+03  0.78583561484E+02 0.  0.
          5    1    3    3  501    0 -0.39974980093E+00 -0.20356259679E+02  0.59387585744E+01  0.21723166469E+02  0.47000000000E+01 0. -1.
        -13    1    4    4    0    0 -0.20967745360E+02 -0.74739189217E+01  0.16829532577E+03  0.16976107471E+03  0.00000000000E+00 0.  1.
         14    1    4    4    0    0  0.34582456448E+01  0.97918816723E+02  0.44042509150E+03  0.45119210471E+03  0.00000000000E+00 0. -1.
         -5    1    5    5    0  502 -0.25731387122E+02  0.92273202716E+01  0.44630062545E+03  0.44716170006E+03  0.47000000000E+01 0.  1.
         13    1    6    6    0    0  0.58171291969E+02 -0.25231397476E+02  0.15868409969E+03  0.17088348698E+03  0.00000000000E+00 0. -1.
        -14    1    6    6    0    0 -0.14530655332E+02 -0.54084560918E+02  0.16929064336E+03  0.17831321208E+03  0.00000000000E+00 0.  1.
<mgrwt>
<rscale>  2 0.18732468E+03</rscale>
<asrwt>0</asrwt>
<pdfrwt beam="1">  1       21 0.21753604E+00 0.18768853E+03</pdfrwt>
<pdfrwt beam="2">  1       21 0.38538627E-02 0.18768853E+03</pdfrwt>
<totfact> 0.43598528E+04</totfact>
</mgrwt>
</event>
<event>
12    1  0.1050690E-001  0.2896980E+03  0.7546771E-02  0.1090555E+00
         21   -1    0    0  501  502  0.00000000000E+00  0.00000000000E+00  0.12792318979E+03  0.12792318979E+03  0.00000000000E+00 0. -1.
         21   -1    0    0  502  503 -0.00000000000E+00 -0.00000000000E+00 -0.68380190605E+03  0.68380190605E+03  0.00000000000E+00 0. -1.
         -6    2    1    2    0  503 -0.29921322344E+01 -0.23248737779E+03 -0.36108694304E+03  0.46293486038E+03  0.17281658149E+03 0.  0.
        -24    2    3    3    0    0  0.57613290652E+02 -0.17836721112E+03 -0.22118814531E+03  0.30108377658E+03  0.81197854829E+02 0.  0.
          6    2    1    2  501    0  0.29921322344E+01  0.23248737779E+03 -0.19479177322E+03  0.34879023545E+03  0.17219599224E+03 0.  0.
         24    2    5    5    0    0  0.51841281612E+02  0.73049270055E+02 -0.62281203553E+02  0.13574589578E+03  0.80773049776E+02 0.  0.
          5    1    5    5  501    0 -0.48849149377E+02  0.15943810773E+03 -0.13251056967E+03  0.21304433967E+03  0.47000000000E+01 0. -1.
        -11    1    6    6    0    0  0.26740595419E+02  0.22176022614E+02 -0.70336931231E+02  0.78448195119E+02  0.00000000000E+00 0.  1.
         12    1    6    6    0    0  0.25100686193E+02  0.50873247440E+02  0.80557276784E+01  0.57297700660E+02  0.00000000000E+00 0. -1.
         -5    1    3    3    0  503 -0.60605422887E+02 -0.54120166665E+02 -0.13989879773E+03  0.16185108381E+03  0.47000000000E+01 0.  1.
         13    1    4    4    0    0  0.66080831775E+02 -0.84159275557E+02 -0.14149945643E+03  0.17740224396E+03  0.00000000000E+00 0. -1.
        -14    1    4    4    0    0 -0.84675411225E+01 -0.94207935566E+02 -0.79688688877E+02  0.12368153262E+03  0.00000000000E+00 0.  1.
<mgrwt>
<rscale>  2 0.28960547E+03</rscale>
<asrwt>0</asrwt>
<pdfrwt beam="1">  1       21 0.19680491E-01 0.28969795E+03</pdfrwt>
<pdfrwt beam="2">  1       21 0.10520029E+00 0.28969795E+03</pdfrwt>
<totfact> 0.16412302E+04</totfact>
</mgrwt>
</event>
<event>
12    1  0.1050690E-001  0.1814330E+03  0.7546771E-02  0.1166727E+00
         21   -1    0    0  503  502  0.00000000000E+00  0.00000000000E+00  0.20762641738E+03  0.20762641738E+03  0.00000000000E+00 0. -1.
         21   -1    0    0  501  503 -0.00000000000E+00 -0.00000000000E+00 -0.17335787782E+03  0.17335787782E+03  0.00000000000E+00 0. -1.
          6    2    1    2  501    0 -0.84086616542E+01  0.52556975761E+02  0.74801001092E+02  0.19507892167E+03  0.17212685620E+03 0.  0.
         24    2    3    3    0    0  0.41472377393E+02 -0.34574065057E+01  0.93310031577E+02  0.11768122606E+03  0.58396893986E+02 0.  0.
         -6    2    1    2    0  502  0.84086616542E+01 -0.52556975761E+02 -0.40532461527E+02  0.18590537353E+03  0.17345024122E+03 0.  0.
        -24    2    5    5    0    0 -0.61330013193E+02 -0.53803418562E+02 -0.18724328944E+02  0.11267477176E+03  0.75424301979E+02 0.  0.
          5    1    3    3  501    0 -0.49881039047E+02  0.56014382266E+02 -0.18509030485E+02  0.77397695616E+02  0.47000000000E+01 0. -1.
        -11    1    4    4    0    0  0.10103867549E+02  0.38189523089E+01  0.83245943705E+02  0.83943788809E+02  0.00000000000E+00 0.  1.
         12    1    4    4    0    0  0.31368509844E+02 -0.72763588146E+01  0.10064087872E+02  0.33737437249E+02  0.00000000000E+00 0. -1.
         -5    1    5    5    0  502  0.69738674847E+02  0.12464428017E+01 -0.21808132583E+02  0.73230601772E+02  0.47000000000E+01 0.  1.
         13    1    6    6    0    0 -0.56598676437E+02 -0.15383218739E+02  0.15867560660E+02  0.60760456503E+02  0.00000000000E+00 0. -1.
        -14    1    6    6    0    0 -0.47313367558E+01 -0.38420199823E+02 -0.34591889604E+02  0.51914315254E+02  0.00000000000E+00 0.  1.
<mgrwt>
<rscale>  2 0.18111597E+03</rscale>
<asrwt>0</asrwt>
<pdfrwt beam="1">  1       21 0.31942526E-01 0.18143298E+03</pdfrwt>
<pdfrwt beam="2">  1       21 0.26670443E-01 0.18143298E+03</pdfrwt>
<totfact> 0.12661463E+05</totfact>
</mgrwt>
</event>
<event>
12    1  0.1050690E-001  0.1981234E+03  0.7546771E-02  0.1151887E+00
         21   -1    0    0  501  502  0.00000000000E+00  0.00000000000E+00  0.42684343400E+03  0.42684343400E+03  0.00000000000E+00 0.  1.
         21   -1    0    0  502  503 -0.00000000000E+00 -0.00000000000E+00 -0.95982266040E+02  0.95982266040E+02  0.00000000000E+00 0.  1.
         -6    2    1    2    0  503 -0.67717250883E+01 -0.90221532275E+02  0.22533598794E+03  0.29835195473E+03  0.17335455080E+03 0.  0.
        -24    2    3    3    0    0 -0.24877182308E+02 -0.12732998937E+03  0.19052738842E+03  0.24414334130E+03  0.80457970199E+02 0.  0.
          6    2    1    2  501    0  0.67717250883E+01  0.90221532275E+02  0.10552518002E+03  0.22447374531E+03  0.17625866665E+03 0.  0.
         24    2    5    5    0    0  0.53846587008E+01 -0.89368704592E+01  0.43772456638E+01  0.82744046907E+02  0.81966790934E+02 0.  0.
          5    1    5    5  501    0  0.13870663875E+01  0.99158402734E+02  0.10114793436E+03  0.14172969841E+03  0.47000000000E+01 0. -1.
        -13    1    6    6    0    0 -0.19095207289E+02  0.13053443332E+02 -0.28177473891E+02  0.36455306323E+02  0.00000000000E+00 0.  1.
         14    1    6    6    0    0  0.24479865990E+02 -0.21990313791E+02  0.32554719555E+02  0.46288740584E+02  0.00000000000E+00 0. -1.
         -5    1    3    3    0  503  0.18105457220E+02  0.37108457099E+02  0.34808599522E+02  0.54208613431E+02  0.47000000000E+01 0.  1.
         11    1    4    4    0    0 -0.38996590508E+02 -0.43735219331E+02  0.38615525438E+02  0.70175938085E+02  0.00000000000E+00 0. -1.
        -12    1    4    4    0    0  0.14119408200E+02 -0.83594770043E+02  0.15191186298E+03  0.17396740321E+03  0.00000000000E+00 0.  1.
<mgrwt>
<rscale>  2 0.19747549E+03</rscale>
<asrwt>0</asrwt>
<pdfrwt beam="1">  1       21 0.65668220E-01 0.19812344E+03</pdfrwt>
<pdfrwt beam="2">  1       21 0.14766503E-01 0.19812344E+03</pdfrwt>
<totfact> 0.85834844E+04</totfact>
</mgrwt>
</event>
<event>
12    1  0.1050690E-001  0.1892684E+03  0.7546771E-02  0.1159394E+00
         21   -1    0    0  503  502  0.00000000000E+00  0.00000000000E+00  0.27671115346E+03  0.27671115346E+03  0.00000000000E+00 0. -1.
         21   -1    0    0  501  503 -0.00000000000E+00 -0.00000000000E+00 -0.41896047337E+03  0.41896047337E+03  0.00000000000E+00 0. -1.
          6    2    1    2  501    0  0.43559836105E+02  0.61179348953E+02 -0.36060549330E+03  0.40670460066E+03  0.17242951703E+03 0.  0.
         24    2    3    3    0    0  0.71466490978E+01 -0.21286559305E+02 -0.95676084238E+02  0.12681850240E+03  0.80155020156E+02 0.  0.
         -6    2    1    2    0  502 -0.43559836105E+02 -0.61179348953E+02  0.21835617339E+03  0.28896702617E+03  0.17373011165E+03 0.  0.
        -24    2    5    5    0    0 -0.49285082695E+02 -0.68035886442E+02  0.23773461816E+03  0.26711743403E+03  0.88182048464E+02 0.  0.
          5    1    3    3  501    0  0.36413187007E+02  0.82465908259E+02 -0.26492940906E+03  0.27988609826E+03  0.47000000000E+01 0. -1.
        -13    1    4    4    0    0  0.13851018661E+02  0.13630258571E+02  0.49856235115E+01  0.20062181049E+02  0.00000000000E+00 0.  1.
         14    1    4    4    0    0 -0.67043695632E+01 -0.34916817877E+02 -0.10066170775E+03  0.10675632135E+03  0.00000000000E+00 0. -1.
         -5    1    5    5    0  502  0.57252465902E+01  0.68565374892E+01 -0.19378444769E+02  0.21849592136E+02  0.47000000000E+01 0.  1.
         13    1    6    6    0    0 -0.65715088620E+02 -0.73894028201E+02  0.16537855112E+03  0.19268851924E+03  0.00000000000E+00 0. -1.
        -14    1    6    6    0    0  0.16430005925E+02  0.58581417591E+01  0.72356067040E+02  0.74428914791E+02  0.00000000000E+00 0.  1.
<mgrwt>
<rscale>  2 0.18896941E+03</rscale>
<asrwt>0</asrwt>
<pdfrwt beam="1">  1       21 0.42570946E-01 0.18926839E+03</pdfrwt>
<pdfrwt beam="2">  1       21 0.64455458E-01 0.18926839E+03</pdfrwt>
<totfact> 0.11809711E+04</totfact>
</mgrwt>
</event>
<event>
12    1  0.1050690E-001  0.2266629E+03  0.7546771E-02  0.1129083E+00
         21   -1    0    0  501  502  0.00000000000E+00  0.00000000000E+00  0.97965513794E+02  0.97965513794E+02  0.00000000000E+00 0.  1.
         21   -1    0    0  502  503 -0.00000000000E+00 -0.00000000000E+00 -0.54658346000E+03  0.54658346000E+03  0.00000000000E+00 0.  1.
         -6    2    1    2    0  503  0.86534928961E+02 -0.11648527356E+03 -0.29073425933E+03  0.36864954098E+03  0.17412340920E+03 0.  0.
        -24    2    3    3    0    0  0.71039629098E+02 -0.29919186584E+02 -0.24510133864E+03  0.26946161237E+03  0.81197953850E+02 0.  0.
          6    2    1    2  501    0 -0.86534928961E+02  0.11648527356E+03 -0.15788368688E+03  0.27589943281E+03  0.17359759663E+03 0.  0.
         24    2    5    5    0    0 -0.72697315196E+02  0.81976424217E+02 -0.23367695824E+02  0.13626067714E+03  0.77562163206E+02 0.  0.
          5    1    5    5  501    0 -0.13837613765E+02  0.34508849342E+02 -0.13451599105E+03  0.13963875567E+03  0.47000000000E+01 0. -1.
        -11    1    6    6    0    0 -0.65985155284E+02  0.94332656929E+02 -0.32344677144E+02  0.11957787848E+03  0.00000000000E+00 0.  1.
         12    1    6    6    0    0 -0.67121599117E+01 -0.12356232712E+02  0.89769813205E+01  0.16682798660E+02  0.00000000000E+00 0. -1.
         -5    1    3    3    0  503  0.15495299863E+02 -0.86566086975E+02 -0.45632920689E+02  0.99187928613E+02  0.47000000000E+01 0.  1.
         13    1    4    4    0    0 -0.74953353736E+01 -0.94922423447E+01 -0.89733131727E+00  0.12127980895E+02  0.00000000000E+00 0. -1.
        -14    1    4    4    0    0  0.78534964471E+02 -0.20426944240E+02 -0.24420400732E+03  0.25733363148E+03  0.00000000000E+00 0.  1.
<mgrwt>
<rscale>  2 0.22656192E+03</rscale>
<asrwt>0</asrwt>
<pdfrwt beam="1">  1       21 0.15071617E-01 0.22666291E+03</pdfrwt>
<pdfrwt beam="2">  1       21 0.84089764E-01 0.22666291E+03</pdfrwt>
<totfact> 0.46974104E+04</totfact>
</mgrwt>
</event>
<event>
12    1  0.1050690E-001  0.2013479E+03  0.7546771E-02  0.1148803E+00
         21   -1    0    0  501  502  0.00000000000E+00  0.00000000000E+00  0.26814388822E+02  0.26814388822E+02  0.00000000000E+00 0. -1.
         21   -1    0    0  502  503 -0.00000000000E+00 -0.00000000000E+00 -0.18899349692E+04  0.18899349692E+04  0.00000000000E+00 0. -1.
         -6    2    1    2    0  503  0.84754584276E+02  0.58823588525E+02 -0.13658594032E+04  0.13806204754E+04  0.17290874339E+03 0.  0.
        -24    2    3    3    0    0 -0.19330080924E+02  0.76914867181E+01 -0.50455962091E+03  0.51153617890E+03  0.81584559073E+02 0.  0.
          6    2    1    2  501    0 -0.84754584276E+02 -0.58823588525E+02 -0.49726117713E+03  0.53612888262E+03  0.17181951686E+03 0.  0.
         24    2    5    5    0    0 -0.43212139483E+02  0.23405774348E+02 -0.34504974726E+03  0.35814615250E+03  0.82427053772E+02 0.  0.
          5    1    5    5  501    0 -0.41542444793E+02 -0.82229362873E+02 -0.15221142987E+03  0.17798273012E+03  0.47000000000E+01 0. -1.
        -11    1    6    6    0    0  0.21502950494E+01 -0.76441002124E+01 -0.23496770220E+03  0.23510184413E+03  0.00000000000E+00 0.  1.
         12    1    6    6    0    0 -0.45362434532E+02  0.31049874561E+02 -0.11008204506E+03  0.12304430837E+03  0.00000000000E+00 0. -1.
         -5    1    3    3    0  503  0.10408466520E+03  0.51132101807E+02 -0.86129978234E+03  0.86908429650E+03  0.47000000000E+01 0.  1.
         11    1    4    4    0    0 -0.24212876413E+02  0.17134050802E+01 -0.50309434218E+03  0.50367957699E+03  0.00000000000E+00 0. -1.
        -12    1    4    4    0    0  0.48827954884E+01  0.59780816378E+01 -0.14652787242E+01  0.78566019111E+01  0.00000000000E+00 0.  1.
<mgrwt>
<rscale>  2 0.20111387E+03</rscale>
<asrwt>0</asrwt>
<pdfrwt beam="1">  1       21 0.41252910E-02 0.20134793E+03</pdfrwt>
<pdfrwt beam="2">  1       21 0.29075920E+00 0.20134793E+03</pdfrwt>
<totfact> 0.14232135E+04</totfact>
</mgrwt>
</event>
<event>
12    1  0.1050690E-001  0.2371723E+03  0.7546771E-02  0.1121696E+00
         21   -1    0    0  501  502  0.00000000000E+00  0.00000000000E+00  0.42549113366E+02  0.42549113366E+02  0.00000000000E+00 0.  1.
         21   -1    0    0  502  503 -0.00000000000E+00 -0.00000000000E+00 -0.14644496968E+04  0.14644496968E+04  0.00000000000E+00 0. -1.
         -6    2    1    2    0  503 -0.16822512696E+02  0.16125146333E+03 -0.47578096125E+03  0.53160502283E+03  0.17306457132E+03 0.  0.
        -24    2    3    3    0    0  0.44277735194E+02  0.11579988533E+03 -0.39249648276E+03  0.41865600516E+03  0.76480261516E+02 0.  0.
          6    2    1    2  501    0  0.16822512696E+02 -0.16125146333E+03 -0.94611962214E+03  0.97539378730E+03  0.17310594887E+03 0.  0.
         24    2    5    5    0    0  0.76166806492E+02 -0.11917866961E+03 -0.59757524906E+03  0.61930793362E+03  0.80257091034E+02 0.  0.
          5    1    5    5  501    0 -0.59344293796E+02 -0.42072793721E+02 -0.34854437308E+03  0.35608585367E+03  0.47000000000E+01 0. -1.
        -13    1    6    6    0    0  0.78374805834E+02 -0.73258973916E+02 -0.30900748150E+03  0.32710107165E+03  0.00000000000E+00 0.  1.
         14    1    6    6    0    0 -0.22079993413E+01 -0.45919695692E+02 -0.28856776756E+03  0.29220686198E+03  0.00000000000E+00 0. -1.
         -5    1    3    3    0  503 -0.61100247890E+02  0.45451577998E+02 -0.83284478499E+02  0.11294901767E+03  0.47000000000E+01 0.  1.
         13    1    4    4    0    0  0.46546075481E+02  0.56433215553E+02 -0.12670587858E+03  0.14630661170E+03  0.00000000000E+00 0. -1.
        -14    1    4    4    0    0 -0.22683402870E+01  0.59366669779E+02 -0.26579060418E+03  0.27234939346E+03  0.00000000000E+00 0.  1.
<mgrwt>
<rscale>  2 0.23716475E+03</rscale>
<asrwt>0</asrwt>
<pdfrwt beam="1">  1       21 0.65460163E-02 0.23717230E+03</pdfrwt>
<pdfrwt beam="2">  1       21 0.22529999E+00 0.23717230E+03</pdfrwt>
<totfact> 0.15311546E+04</totfact>
</mgrwt>
</event>
<event>
12    1  0.1050690E-001  0.1763394E+03  0.7546771E-02  0.1172069E+00
         21   -1    0    0  503  502  0.00000000000E+00  0.00000000000E+00  0.39542974480E+03  0.39542974480E+03  0.00000000000E+00 0.  1.
         21   -1    0    0  501  503 -0.00000000000E+00 -0.00000000000E+00 -0.38008445829E+03  0.38008445829E+03  0.00000000000E+00 0.  1.
          6    2    1    2  501    0 -0.10828653043E+02  0.13002007763E+02 -0.33834568127E+03  0.38030176472E+03  0.17281585658E+03 0.  0.
         24    2    3    3    0    0 -0.26658289973E+02  0.72735996616E+02 -0.19196587462E+03  0.22134307631E+03  0.78362432208E+02 0.  0.
         -6    2    1    2    0  502  0.10828653043E+02 -0.13002007763E+02  0.35369096778E+03  0.39521243836E+03  0.17552566425E+03 0.  0.
        -24    2    5    5    0    0  0.61757150246E+02  0.16943936772E+02  0.14084460769E+03  0.17426870247E+03  0.80195601796E+02 0.  0.
          5    1    3    3  501    0  0.15829636930E+02 -0.59733988853E+02 -0.14637980665E+03  0.15895868842E+03  0.47000000000E+01 0. -1.
        -13    1    4    4    0    0 -0.28443558422E+02  0.26325664765E+02 -0.16081472035E+03  0.16541901620E+03  0.00000000000E+00 0.  1.
         14    1    4    4    0    0  0.17852684487E+01  0.46410331850E+02 -0.31151154275E+02  0.55924060104E+02  0.00000000000E+00 0. -1.
         -5    1    5    5    0  502 -0.50928497203E+02 -0.29945944534E+02  0.21284636009E+03  0.22094373588E+03  0.47000000000E+01 0.  1.
         11    1    6    6    0    0  0.13053247535E+02 -0.18514675415E+01 -0.87522189025E+01  0.15824554938E+02  0.00000000000E+00 0. -1.
        -12    1    6    6    0    0  0.48703902712E+02  0.18795404314E+02  0.14959682659E+03  0.15844414754E+03  0.00000000000E+00 0.  1.
<mgrwt>
<rscale>  2 0.17566118E+03</rscale>
<asrwt>0</asrwt>
<pdfrwt beam="1">  1       21 0.60835346E-01 0.17633936E+03</pdfrwt>
<pdfrwt beam="2">  1       21 0.58474532E-01 0.17633936E+03</pdfrwt>
<totfact> 0.69723425E+03</totfact>
</mgrwt>
</event>
<event>
12    1  0.1050690E-001  0.2442301E+03  0.7546771E-02  0.1119179E+00
         21   -1    0    0  501  502  0.00000000000E+00  0.00000000000E+00  0.25942899325E+03  0.25942899325E+03  0.00000000000E+00 0. -1.
         21   -1    0    0  502  503 -0.00000000000E+00 -0.00000000000E+00 -0.24017744105E+03  0.24017744105E+03  0.00000000000E+00 0.  1.
         -6    2    1    2    0  503  0.65217414568E+01  0.17460265219E+03 -0.66693633275E+02  0.24069543760E+03  0.15151776694E+03 0.  0.
        -24    2    3    3    0    0 -0.10811464230E+02  0.18511506131E+03 -0.78147890225E+02  0.21694168490E+03  0.81068663596E+02 0.  0.
          6    2    1    2  501    0 -0.65217414568E+01 -0.17460265219E+03  0.85945185479E+02  0.25891099669E+03  0.17064498246E+03 0.  0.
         24    2    5    5    0    0  0.59726852543E+01 -0.64252160119E+02  0.10398533091E+03  0.14630158925E+03  0.80169775625E+02 0.  0.
          5    1    5    5  501    0 -0.12494426711E+02 -0.11035049207E+03 -0.18040145426E+02  0.11260940745E+03  0.47000000000E+01 0. -1.
        -13    1    6    6    0    0 -0.11047025146E+02 -0.19722314703E+01  0.74471057570E+02  0.75311784450E+02  0.00000000000E+00 0.  1.
         14    1    6    6    0    0  0.17019710400E+02 -0.62279928648E+02  0.29514273335E+02  0.70989804797E+02  0.00000000000E+00 0. -1.
         -5    1    3    3    0  503  0.17333205687E+02 -0.10512409126E+02  0.11454256950E+02  0.23753752699E+02  0.47000000000E+01 0.  1.
         11    1    4    4    0    0 -0.41074399097E+02  0.10073805994E+03 -0.21475462255E+02  0.11088939742E+03  0.00000000000E+00 0. -1.
        -12    1    4    4    0    0  0.30262934867E+02  0.84377001374E+02 -0.56672427970E+02  0.10605228748E+03  0.00000000000E+00 0.  1.
<mgrwt>
<rscale>  2 0.24092376E+03</rscale>
<asrwt>0</asrwt>
<pdfrwt beam="1">  1       21 0.39912153E-01 0.24423007E+03</pdfrwt>
<pdfrwt beam="2">  1       21 0.36950375E-01 0.24423007E+03</pdfrwt>
<totfact> 0.41716658E+04</totfact>
</mgrwt>
</event>
<event>
12    1  0.1050690E-001  0.1804720E+03  0.7546771E-02  0.1167368E+00
         21   -1    0    0  503  502  0.00000000000E+00  0.00000000000E+00  0.21430769431E+03  0.21430769431E+03  0.00000000000E+00 0. -1.
         21   -1    0    0  501  503 -0.00000000000E+00 -0.00000000000E+00 -0.16693593646E+03  0.16693593646E+03  0.00000000000E+00 0. -1.
          6    2    1    2  501    0  0.12728817260E+02  0.51791535315E+02 -0.33519865083E+02  0.18347207072E+03  0.17231956784E+03 0.  0.
         24    2    3    3    0    0 -0.34302115400E+02 -0.90246287093E+01  0.17983062713E+02  0.90815953785E+02  0.81645991164E+02 0.  0.
         -6    2    1    2    0  502 -0.12728817260E+02 -0.51791535315E+02  0.80891622935E+02  0.19777156005E+03  0.17241156975E+03 0.  0.
        -24    2    5    5    0    0  0.25985315383E+02 -0.82767299336E+02  0.19951833527E+02  0.11906940025E+03  0.79080869750E+02 0.  0.
          5    1    3    3  501    0  0.47030932659E+02  0.60816164024E+02 -0.51502927796E+02  0.92656116932E+02  0.47000000000E+01 0. -1.
        -11    1    4    4    0    0 -0.10443842622E+02  0.16236247662E+02  0.43576267632E+02  0.47661102459E+02  0.00000000000E+00 0.  1.
         12    1    4    4    0    0 -0.23858272777E+02 -0.25260876372E+02 -0.25593204919E+02  0.43154851326E+02  0.00000000000E+00 0. -1.
         -5    1    5    5    0  502 -0.38714132643E+02  0.30975764021E+02  0.60939789409E+02  0.78702159794E+02  0.47000000000E+01 0.  1.
         13    1    6    6    0    0  0.28344075127E+02 -0.36749114026E+02  0.46659479406E+02  0.65810265119E+02  0.00000000000E+00 0. -1.
        -14    1    6    6    0    0 -0.23587597431E+01 -0.46018185310E+02 -0.26707645880E+02  0.53259135134E+02  0.00000000000E+00 0.  1.
<mgrwt>
<rscale>  2 0.18045000E+03</rscale>
<asrwt>0</asrwt>
<pdfrwt beam="1">  1       21 0.32970415E-01 0.18047198E+03</pdfrwt>
<pdfrwt beam="2">  1       21 0.25682452E-01 0.18047198E+03</pdfrwt>
<totfact> 0.12794288E+05</totfact>
</mgrwt>
</event>
<event>
12    1  0.1050690E-001  0.1986332E+03  0.7546771E-02  0.1151652E+00
         21   -1    0    0  501  502  0.00000000000E+00  0.00000000000E+00  0.33075455418E+03  0.33075455418E+03  0.00000000000E+00 0. -1.
         21   -1    0    0  502  503 -0.00000000000E+00 -0.00000000000E+00 -0.21123652916E+03  0.21123652916E+03  0.00000000000E+00 0.  1.
         -6    2    1    2    0  503 -0.28815790660E+02 -0.90371645536E+02 -0.12076333738E+03  0.23246274569E+03  0.17452151836E+03 0.  0.
        -24    2    3    3    0    0  0.25402128537E+02  0.79887608617E+01 -0.39695325138E+02  0.93868139314E+02  0.80786263103E+02 0.  0.
          6    2    1    2  501    0  0.28815790660E+02  0.90371645536E+02  0.24028136240E+03  0.30952833764E+03  0.17051473420E+03 0.  0.
         24    2    5    5    0    0  0.61449397955E+02  0.11343008149E+03  0.21351637499E+03  0.26120548234E+03  0.77438037913E+02 0.  0.
          5    1    5    5  501    0 -0.32633607295E+02 -0.23058435959E+02  0.26764987407E+02  0.48322855305E+02  0.47000000000E+01 0. -1.
        -13    1    6    6    0    0  0.22700311220E+02  0.57880156843E+01  0.59047363771E+01  0.24159287380E+02  0.00000000000E+00 0.  1.
         14    1    6    6    0    0  0.38749086735E+02  0.10764206581E+03  0.20761163861E+03  0.23704619496E+03  0.00000000000E+00 0. -1.
         -5    1    3    3    0  503 -0.54217919197E+02 -0.98360406397E+02 -0.81068012241E+02  0.13859460638E+03  0.47000000000E+01 0.  1.
         13    1    4    4    0    0 -0.31594405762E+01 -0.27245272996E+02  0.74761310423E+01  0.28428498039E+02  0.00000000000E+00 0. -1.
        -14    1    4    4    0    0  0.28561569113E+02  0.35234033857E+02 -0.47171456180E+02  0.65439641275E+02  0.00000000000E+00 0.  1.
<mgrwt>
<rscale>  2 0.19774956E+03</rscale>
<asrwt>0</asrwt>
<pdfrwt beam="1">  1       21 0.50885316E-01 0.19863319E+03</pdfrwt>
<pdfrwt beam="2">  1       21 0.32497927E-01 0.19863319E+03</pdfrwt>
<totfact> 0.33362072E+04</totfact>
</mgrwt>
</event>
<event>
12    1  0.1050690E-001  0.3629629E+03  0.7546771E-02  0.1057439E+00
         21   -1    0    0  501  502  0.00000000000E+00  0.00000000000E+00  0.39494294199E+03  0.39494294199E+03  0.00000000000E+00 0. -1.
         21   -1    0    0  502  503 -0.00000000000E+00 -0.00000000000E+00 -0.33340175670E+03  0.33340175670E+03  0.00000000000E+00 0. -1.
         -6    2    1    2    0  503 -0.31687197493E+03  0.34816079216E+02  0.34417272168E+02  0.36459100120E+03  0.17355702712E+03 0.  0.
        -24    2    3    3    0    0 -0.28062880904E+03 -0.21299862967E+02  0.92803456681E+01  0.29306113950E+03  0.81194174934E+02 0.  0.
          6    2    1    2  501    0  0.31687197493E+03 -0.34816079216E+02  0.27123913127E+02  0.36375369749E+03  0.17309257034E+03 0.  0.
         24    2    5    5    0    0  0.93542048828E+02  0.31680445118E+02  0.36176088996E+02  0.13051117236E+03  0.77270247790E+02 0.  0.
          5    1    5    5  501    0  0.22332992610E+03 -0.66496524334E+02 -0.90521758691E+01  0.23324252513E+03  0.47000000000E+01 0. -1.
        -11    1    6    6    0    0  0.41744768472E+02  0.70009577406E+00 -0.21558889601E+02  0.46988312905E+02  0.00000000000E+00 0.  1.
         12    1    6    6    0    0  0.51797280356E+02  0.30980349344E+02  0.57734978597E+02  0.83522859454E+02  0.00000000000E+00 0. -1.
         -5    1    3    3    0  503 -0.36243165890E+02  0.56115942182E+02  0.25136926500E+02  0.71529861699E+02  0.47000000000E+01 0.  1.
         13    1    4    4    0    0 -0.12389622579E+03  0.11877885810E+02  0.38351839022E+02  0.13023909741E+03  0.00000000000E+00 0. -1.
        -14    1    4    4    0    0 -0.15673258325E+03 -0.33177748776E+02 -0.29071493354E+02  0.16282204209E+03  0.00000000000E+00 0.  1.
<mgrwt>
<rscale>  2 0.36290740E+03</rscale>
<asrwt>0</asrwt>
<pdfrwt beam="1">  1       21 0.60760453E-01 0.36296288E+03</pdfrwt>
<pdfrwt beam="2">  1       21 0.51292578E-01 0.36296288E+03</pdfrwt>
<totfact> 0.83398448E+03</totfact>
</mgrwt>
</event>
<event>
12    1  0.1050690E-001  0.2348786E+03  0.7546771E-02  0.1124316E+00
         21   -1    0    0  501  502  0.00000000000E+00  0.00000000000E+00  0.17022407991E+03  0.17022407991E+03  0.00000000000E+00 0.  1.
         21   -1    0    0  502  503 -0.00000000000E+00 -0.00000000000E+00 -0.51059011494E+03  0.51059011494E+03  0.00000000000E+00 0.  1.
         -6    2    1    2    0  503 -0.15050646827E+03  0.26964669382E+02 -0.38187003183E+03  0.44832205475E+03  0.17829372725E+03 0.  0.
        -24    2    3    3    0    0 -0.11474972199E+01 -0.41893478674E+01 -0.10756545539E+03  0.13440524144E+03  0.80470953433E+02 0.  0.
          6    2    1    2  501    0  0.15050646827E+03 -0.26964669382E+02  0.41503996797E+02  0.23249214011E+03  0.17014912011E+03 0.  0.
         24    2    5    5    0    0  0.15112744547E+03  0.49313664875E+01 -0.13628515112E+02  0.16862175114E+03  0.73373942129E+02 0.  0.
          5    1    5    5  501    0 -0.62097720437E+00 -0.31896035869E+02  0.55132511909E+02  0.63870388963E+02  0.47000000000E+01 0. -1.
        -13    1    6    6    0    0  0.11264858437E+03  0.30616481016E+02  0.90751048116E+01  0.11708727513E+03  0.00000000000E+00 0.  1.
         14    1    6    6    0    0  0.38478861106E+02 -0.25685114529E+02 -0.22703619924E+02  0.51534476014E+02  0.00000000000E+00 0. -1.
         -5    1    3    3    0  503 -0.14935897105E+03  0.31154017249E+02 -0.27430457644E+03  0.31391681331E+03  0.47000000000E+01 0.  1.
         11    1    4    4    0    0  0.56702541646E+01 -0.34083696458E+02 -0.16448423894E+02  0.38267490055E+02  0.00000000000E+00 0. -1.
        -12    1    4    4    0    0 -0.68177513845E+01  0.29894348590E+02 -0.91117031500E+02  0.96137751383E+02  0.00000000000E+00 0.  1.
<mgrwt>
<rscale>  2 0.23333313E+03</rscale>
<asrwt>0</asrwt>
<pdfrwt beam="1">  1       21 0.26188321E-01 0.23487857E+03</pdfrwt>
<pdfrwt beam="2">  1       21 0.78552324E-01 0.23487857E+03</pdfrwt>
<totfact> 0.19386080E+04</totfact>
</mgrwt>
</event>
<event>
12    1  0.1050690E-001  0.1757601E+03  0.7546771E-02  0.1172370E+00
         21   -1    0    0  501  502  0.00000000000E+00  0.00000000000E+00  0.25617356742E+03  0.25617356742E+03  0.00000000000E+00 0.  1.
         21   -1    0    0  502  503 -0.00000000000E+00 -0.00000000000E+00 -0.12183708754E+03  0.12183708754E+03  0.00000000000E+00 0. -1.
         -6    2    1    2    0  503  0.48432695268E+01 -0.32255072874E+02  0.40688800123E+02  0.17885871892E+03  0.17108774325E+03 0.  0.
        -24    2    3    3    0    0  0.65089619385E+02 -0.27128053271E+02  0.56087916988E+00  0.10613837073E+03  0.79324960315E+02 0.  0.
          6    2    1    2  501    0 -0.48432695268E+01  0.32255072874E+02  0.93647679759E+02  0.19915193604E+03  0.17270714727E+03 0.  0.
         24    2    5    5    0    0 -0.44640133352E+02 -0.18583276039E+02  0.95902192812E+02  0.13437924951E+03  0.80761825510E+02 0.  0.
          5    1    5    5  501    0  0.39796863825E+02  0.50838348913E+02 -0.22545130530E+01  0.64772686525E+02  0.47000000000E+01 0. -1.
        -13    1    6    6    0    0 -0.29326472616E+02 -0.50673896137E+02  0.61165348309E+02  0.84670452813E+02  0.00000000000E+00 0.  1.
         14    1    6    6    0    0 -0.15313660736E+02  0.32090620098E+02  0.34736844503E+02  0.49708796701E+02  0.00000000000E+00 0. -1.
         -5    1    3    3    0  503 -0.60246349858E+02 -0.51270196030E+01  0.40127920953E+02  0.72720348193E+02  0.47000000000E+01 0.  1.
         13    1    4    4    0    0  0.48991654254E+02  0.15306692257E+01 -0.33057052487E+02  0.59121010258E+02  0.00000000000E+00 0. -1.
        -14    1    4    4    0    0  0.16097965131E+02 -0.28658722496E+02  0.33617931657E+02  0.47017360468E+02  0.00000000000E+00 0.  1.
<mgrwt>
<rscale>  2 0.17536097E+03</rscale>
<asrwt>0</asrwt>
<pdfrwt beam="1">  1       21 0.39411318E-01 0.17576008E+03</pdfrwt>
<pdfrwt beam="2">  1       21 0.18744167E-01 0.17576008E+03</pdfrwt>
<totfact> 0.16251500E+05</totfact>
</mgrwt>
</event>
<event>
12    1  0.1050690E-001  0.1925620E+03  0.7546771E-02  0.1156175E+00
         21   -1    0    0  501  502  0.00000000000E+00  0.00000000000E+00  0.55194033330E+03  0.55194033330E+03  0.00000000000E+00 0. -1.
         21   -1    0    0  502  503 -0.00000000000E+00 -0.00000000000E+00 -0.11529859529E+03  0.11529859529E+03  0.00000000000E+00 0. -1.
         -6    2    1    2    0  503 -0.11933256135E+02  0.82813020082E+02  0.43386479674E+03  0.47467754945E+03  0.17343504607E+03 0.  0.
        -24    2    3    3    0    0 -0.52685288278E+02 -0.39314901888E+01  0.21504759271E+03  0.23574576637E+03  0.80866575395E+02 0.  0.
          6    2    1    2  501    0  0.11933256135E+02 -0.82813020082E+02  0.27769412654E+01  0.19256137914E+03  0.17341215193E+03 0.  0.
         24    2    5    5    0    0 -0.30367065167E+02 -0.27721762380E+02  0.54390794733E+02  0.10589856285E+03  0.81027725541E+02 0.  0.
          5    1    5    5  501    0  0.42300321302E+02 -0.55091257701E+02 -0.51613853467E+02  0.86662816289E+02  0.47000000000E+01 0. -1.
        -13    1    6    6    0    0  0.96946942921E+01  0.20279940372E+02  0.32779224819E+02  0.39745951475E+02  0.00000000000E+00 0.  1.
         14    1    6    6    0    0 -0.40061759459E+02 -0.48001702752E+02  0.21611569914E+02  0.66152611378E+02  0.00000000000E+00 0. -1.
         -5    1    3    3    0  503  0.40752032142E+02  0.86744510271E+02  0.21881720403E+03  0.23893178308E+03  0.47000000000E+01 0.  1.
         11    1    4    4    0    0  0.25041599132E+01  0.36672657415E+01  0.15015210277E+03  0.15021775401E+03  0.00000000000E+00 0. -1.
        -12    1    4    4    0    0 -0.55189448191E+02 -0.75987559303E+01  0.64895489939E+02  0.85528012357E+02  0.00000000000E+00 0.  1.
<mgrwt>
<rscale>  2 0.19255682E+03</rscale>
<asrwt>0</asrwt>
<pdfrwt beam="1">  1       21 0.84913896E-01 0.19256197E+03</pdfrwt>
<pdfrwt beam="2">  1       21 0.17738246E-01 0.19256197E+03</pdfrwt>
<totfact> 0.34648779E+04</totfact>
</mgrwt>
</event>
<event>
11    1  0.1050690E-001  0.2517848E+03  0.7546771E-02  0.1112465E+00
         21   -1    0    0  501  502  0.00000000000E+00  0.00000000000E+00  0.44711105827E+03  0.44711105827E+03  0.00000000000E+00 0. -1.
         21   -1    0    0  502  503 -0.00000000000E+00 -0.00000000000E+00 -0.22083528540E+03  0.22083528540E+03  0.00000000000E+00 0.  1.
         -6    2    1    2    0  503 -0.12595257458E+03  0.12997749282E+03 -0.88202560027E+02  0.26509129295E+03  0.17243985131E+03 0.  0.
        -24    2    3    3    0    0 -0.10782782871E+02  0.58265249551E+02  0.57005203556E+01  0.10002583544E+03  0.80383854797E+02 0.  0.
          6    2    1    2  501    0  0.12595257458E+03 -0.12997749282E+03  0.31447833290E+03  0.40285505071E+03  0.17503534026E+03 0.  0.
          5    1    5    5  501    0  0.19435780986E+02 -0.50187527166E+02  0.67652940208E+02  0.86576831683E+02  0.47000000000E+01 0. -1.
        -11    1    5    5    0    0 -0.23271457324E+02 -0.61449506069E+02  0.68024165416E+02  0.94577426496E+02  0.00000000000E+00 0.  1.
         12    1    5    5    0    0  0.12978825092E+03 -0.18340459586E+02  0.17880122727E+03  0.22170079253E+03  0.00000000000E+00 0. -1.
         -5    1    3    3    0  503 -0.11516979171E+03  0.71712243270E+02 -0.93903080383E+02  0.16506545751E+03  0.47000000000E+01 0.  1.
         13    1    4    4    0    0  0.24518566684E+02 -0.68258347921E+01  0.51993123680E+01  0.25976623760E+02  0.00000000000E+00 0. -1.
        -14    1    4    4    0    0 -0.35301349555E+02  0.65091084343E+02  0.50120798757E+00  0.74049211683E+02  0.00000000000E+00 0.  1.
<mgrwt>
<rscale>  2 0.25133422E+03</rscale>
<asrwt>0</asrwt>
<pdfrwt beam="1">  1       21 0.68786316E-01 0.25178477E+03</pdfrwt>
<pdfrwt beam="2">  1       21 0.33974659E-01 0.25178477E+03</pdfrwt>
<totfact> 0.15537033E+04</totfact>
</mgrwt>
</event>
<event>
12    1  0.1050690E-001  0.2211449E+03  0.7546771E-02  0.1133039E+00
         21   -1    0    0  503  502  0.00000000000E+00  0.00000000000E+00  0.37051641443E+02  0.37051641443E+02  0.00000000000E+00 0.  1.
         21   -1    0    0  501  503 -0.00000000000E+00 -0.00000000000E+00 -0.15750955380E+04  0.15750955380E+04  0.00000000000E+00 0.  1.
          6    2    1    2  501    0 -0.13179179672E+03 -0.39394898968E+02 -0.44449552028E+03  0.49646885140E+03  0.17315893599E+03 0.  0.
         24    2    3    3    0    0 -0.12827118203E+03 -0.17130305166E+02 -0.20105350368E+03  0.25194030028E+03  0.79400630148E+02 0.  0.
         -6    2    1    2    0  502  0.13179179672E+03  0.39394898968E+02 -0.10935483763E+04  0.11156783281E+04  0.17311569735E+03 0.  0.
        -24    2    5    5    0    0  0.46644536157E+02  0.75332310970E+02 -0.44086889714E+03  0.45647111780E+03  0.78420833235E+02 0.  0.
          5    1    3    3  501    0 -0.35206146824E+01 -0.22264593801E+02 -0.24344201661E+03  0.24452855112E+03  0.47000000000E+01 0. -1.
        -13    1    4    4    0    0 -0.34242352853E+02 -0.31381349711E+02 -0.27336177570E+02  0.53894289519E+02  0.00000000000E+00 0.  1.
         14    1    4    4    0    0 -0.94028829182E+02  0.14251044545E+02 -0.17371732611E+03  0.19804601076E+03  0.00000000000E+00 0. -1.
         -5    1    5    5    0  502  0.85147260560E+02 -0.35937412002E+02 -0.65267947917E+03  0.65920721029E+03  0.47000000000E+01 0.  1.
         11    1    6    6    0    0 -0.51979797744E+01 -0.11180601059E+02 -0.18534951242E+02  0.22261384758E+02  0.00000000000E+00 0. -1.
        -12    1    6    6    0    0  0.51842515931E+02  0.86512912029E+02 -0.42233394590E+03  0.43420973304E+03  0.00000000000E+00 0.  1.
<mgrwt>
<rscale>  2 0.22113640E+03</rscale>
<asrwt>0</asrwt>
<pdfrwt beam="1">  1       21 0.57002501E-02 0.22114487E+03</pdfrwt>
<pdfrwt beam="2">  1       21 0.24232249E+00 0.22114487E+03</pdfrwt>
<totfact> 0.15507555E+04</totfact>
</mgrwt>
</event>
<event>
12    1  0.1050690E-001  0.1920791E+03  0.7546771E-02  0.1156899E+00
         21   -1    0    0  503  502  0.00000000000E+00  0.00000000000E+00  0.27356812857E+03  0.27356812857E+03  0.00000000000E+00 0. -1.
         21   -1    0    0  501  503 -0.00000000000E+00 -0.00000000000E+00 -0.47818306364E+03  0.47818306364E+03  0.00000000000E+00 0.  1.
          6    2    1    2  501    0  0.80561226962E+01  0.82780670299E+02 -0.42133428001E+03  0.46305178567E+03  0.17313821129E+03 0.  0.
         24    2    3    3    0    0  0.47701611882E+02 -0.51758264623E+01 -0.18216563075E+03  0.20511411311E+03  0.81149549688E+02 0.  0.
         -6    2    1    2    0  502 -0.80561226962E+01 -0.82780670299E+02  0.21671934493E+03  0.28869940654E+03  0.17164653326E+03 0.  0.
        -24    2    5    5    0    0 -0.20637261007E+02 -0.23740062145E+02  0.19252931133E+03  0.22349721196E+03  0.10905952935E+03 0.  0.
          5    1    3    3  501    0 -0.39645489186E+02  0.87956496761E+02 -0.23916864925E+03  0.25793767255E+03  0.47000000000E+01 0. -1.
        -11    1    4    4    0    0  0.16856633074E+02  0.31542691426E+02 -0.33868244778E+02  0.49255918074E+02  0.00000000000E+00 0.  1.
         12    1    4    4    0    0  0.30844978808E+02 -0.36718517888E+02 -0.14829738598E+03  0.15585819504E+03  0.00000000000E+00 0. -1.
         -5    1    5    5    0  502  0.12581138311E+02 -0.59040608154E+02  0.24190033607E+02  0.65202194582E+02  0.47000000000E+01 0.  1.
         13    1    6    6    0    0  0.38680469472E+02 -0.16122850411E+02  0.33680370989E+02  0.53763299880E+02  0.00000000000E+00 0. -1.
        -14    1    6    6    0    0 -0.59317730480E+02 -0.76172117335E+01  0.15884894034E+03  0.16973391208E+03  0.00000000000E+00 0.  1.
<mgrwt>
<rscale>  2 0.19174234E+03</rscale>
<asrwt>0</asrwt>
<pdfrwt beam="1">  1       21 0.42087405E-01 0.19207910E+03</pdfrwt>
<pdfrwt beam="2">  1       21 0.73566625E-01 0.19207910E+03</pdfrwt>
<totfact> 0.90221139E+03</totfact>
</mgrwt>
</event>
<event>
12    1  0.1050690E-001  0.1946808E+03  0.7546771E-02  0.1155031E+00
         21   -1    0    0  501  502  0.00000000000E+00  0.00000000000E+00  0.84828499413E+02  0.84828499413E+02  0.00000000000E+00 0.  1.
         21   -1    0    0  502  503 -0.00000000000E+00 -0.00000000000E+00 -0.15640190531E+04  0.15640190531E+04  0.00000000000E+00 0.  1.
         -6    2    1    2    0  503  0.82797280284E+02 -0.29011880813E+02 -0.14404842341E+04  0.14535802169E+04  0.17379165498E+03 0.  0.
        -24    2    3    3    0    0  0.59785947680E+01 -0.66993787590E+02 -0.93591902500E+03  0.94176787244E+03  0.80364127678E+02 0.  0.
          6    2    1    2  501    0 -0.82797280284E+02  0.29011880813E+02 -0.38706319587E+02  0.19526733564E+03  0.17010018913E+03 0.  0.
         24    2    5    5    0    0 -0.10130889565E+03  0.22575890969E+01  0.16668759782E+02  0.13087043010E+03  0.81121100064E+02 0.  0.
          5    1    5    5  501    0  0.18511615363E+02  0.26754291716E+02 -0.55375079369E+02  0.64396905544E+02  0.47000000000E+01 0. -1.
        -11    1    6    6    0    0 -0.23272525640E+02  0.22420169485E+02  0.35598430951E+02  0.48078297969E+02  0.00000000000E+00 0.  1.
         12    1    6    6    0    0 -0.78036370006E+02 -0.20162580388E+02 -0.18929671170E+02  0.82792132128E+02  0.00000000000E+00 0. -1.
         -5    1    3    3    0  503  0.76818685516E+02  0.37981906777E+02 -0.50456520908E+03  0.51181234442E+03  0.47000000000E+01 0.  1.
         11    1    4    4    0    0 -0.21671175940E+02 -0.10753656026E+02 -0.80510845220E+02  0.84067099287E+02  0.00000000000E+00 0. -1.
        -12    1    4    4    0    0  0.27649770708E+02 -0.56240131564E+02 -0.85540817978E+03  0.85770077315E+03  0.00000000000E+00 0.  1.
<mgrwt>
<rscale>  2 0.19385352E+03</rscale>
<asrwt>0</asrwt>
<pdfrwt beam="1">  1       21 0.13050539E-01 0.19468081E+03</pdfrwt>
<pdfrwt beam="2">  1       21 0.24061830E+00 0.19468081E+03</pdfrwt>
<totfact> 0.38052623E+03</totfact>
</mgrwt>
</event>
<event>
12    1  0.1050690E-001  0.1789817E+03  0.7546771E-02  0.1168879E+00
         21   -1    0    0  501  502  0.00000000000E+00  0.00000000000E+00  0.16063847136E+03  0.16063847136E+03  0.00000000000E+00 0. -1.
         21   -1    0    0  502  503 -0.00000000000E+00 -0.00000000000E+00 -0.28583971790E+03  0.28583971790E+03  0.00000000000E+00 0. -1.
         -6    2    1    2    0  503 -0.32728146642E+02 -0.29568559698E+02  0.60472742692E+02  0.18858426960E+03  0.17309431772E+03 0.  0.
        -24    2    3    3    0    0 -0.82937380199E+02 -0.11479456005E+02  0.72689424049E+02  0.13363410936E+03  0.74591794940E+02 0.  0.
          6    2    1    2  501    0  0.32728146642E+02  0.29568559698E+02 -0.18567398923E+03  0.25789391966E+03  0.17346184657E+03 0.  0.
         24    2    5    5    0    0 -0.97594325434E+01 -0.37496259378E+02 -0.14108558974E+03  0.16671771820E+03  0.79927704462E+02 0.  0.
          5    1    5    5  501    0  0.42487579185E+02  0.67064819076E+02 -0.44588399497E+02  0.91176201458E+02  0.47000000000E+01 0. -1.
        -13    1    6    6    0    0 -0.31234911772E+02 -0.49346808484E+02 -0.68056296110E+02  0.89679354710E+02  0.00000000000E+00 0.  1.
         14    1    6    6    0    0  0.21475479228E+02  0.11850549106E+02 -0.73029293625E+02  0.77038363492E+02  0.00000000000E+00 0. -1.
         -5    1    3    3    0  503  0.50209233557E+02 -0.18089103693E+02 -0.12216681357E+02  0.54950160238E+02  0.47000000000E+01 0.  1.
         11    1    4    4    0    0  0.96363903046E+01 -0.12606852730E+02  0.24692218661E+02  0.29351293264E+02  0.00000000000E+00 0. -1.
        -12    1    4    4    0    0 -0.92573770504E+02  0.11273967249E+01  0.47997205388E+02  0.10428281610E+03  0.00000000000E+00 0.  1.
<mgrwt>
<rscale>  2 0.17889258E+03</rscale>
<asrwt>0</asrwt>
<pdfrwt beam="1">  1       21 0.24713611E-01 0.17898168E+03</pdfrwt>
<pdfrwt beam="2">  1       21 0.43975340E-01 0.17898168E+03</pdfrwt>
<totfact> 0.77353232E+04</totfact>
</mgrwt>
</event>
<event>
12    1  0.1050690E-001  0.2059724E+03  0.7546771E-02  0.1144965E+00
         21   -1    0    0  503  502  0.00000000000E+00  0.00000000000E+00  0.12408521728E+04  0.12408521728E+04  0.00000000000E+00 0. -1.
         21   -1    0    0  501  503 -0.00000000000E+00 -0.00000000000E+00 -0.43363084216E+02  0.43363084216E+02  0.00000000000E+00 0. -1.
          6    2    1    2  501    0 -0.98896692398E+01 -0.11056426348E+03  0.30025811135E+03  0.36364584683E+03  0.17251407644E+03 0.  0.
         24    2    3    3    0    0  0.11044045374E+02 -0.11009489564E+03  0.31171566674E+03  0.33931877777E+03  0.75681695753E+02 0.  0.
         -6    2    1    2    0  502  0.98896692398E+01  0.11056426348E+03  0.89723097722E+03  0.92056941017E+03  0.17350028974E+03 0.  0.
        -24    2    5    5    0    0  0.13394079077E+02  0.11401060698E+03  0.90164860956E+03  0.91245993131E+03  0.80219020618E+02 0.  0.
          5    1    3    3  501    0 -0.20933714614E+02 -0.46936784177E+00 -0.11457555388E+02  0.24327069063E+02  0.47000000000E+01 0. -1.
        -11    1    4    4    0    0 -0.22225473106E+02 -0.90549271908E+01  0.93851546030E+02  0.96871440855E+02  0.00000000000E+00 0.  1.
         12    1    4    4    0    0  0.33269518480E+02 -0.10103996845E+03  0.21786412071E+03  0.24244733691E+03  0.00000000000E+00 0. -1.
         -5    1    5    5    0  502 -0.35044098367E+01 -0.34463435012E+01 -0.44176323405E+01  0.81094788567E+01  0.47000000000E+01 0.  1.
         11    1    6    6    0    0  0.11248587401E+02 -0.43897000686E+01  0.23958946933E+03  0.23989354723E+03  0.00000000000E+00 0. -1.
        -12    1    6    6    0    0  0.21454916759E+01  0.11840030705E+03  0.66205914023E+03  0.67256638409E+03  0.00000000000E+00 0.  1.
<mgrwt>
<rscale>  2 0.20576453E+03</rscale>
<asrwt>0</asrwt>
<pdfrwt beam="1">  1       21 0.19090031E+00 0.20597236E+03</pdfrwt>
<pdfrwt beam="2">  1       21 0.66712447E-02 0.20597236E+03</pdfrwt>
<totfact> 0.25048581E+04</totfact>
</mgrwt>
</event>
<event>
12    1  0.1050690E-001  0.2076787E+03  0.7546771E-02  0.1146664E+00
         21   -1    0    0  503  502  0.00000000000E+00  0.00000000000E+00  0.18987774488E+03  0.18987774488E+03  0.00000000000E+00 0.  1.
         21   -1    0    0  501  503 -0.00000000000E+00 -0.00000000000E+00 -0.38638545328E+03  0.38638545328E+03  0.00000000000E+00 0. -1.
          6    2    1    2  501    0 -0.92241175760E+02  0.67677426374E+02 -0.29049513150E+03  0.34830688738E+03  0.15440724666E+03 0.  0.
         24    2    3    3    0    0 -0.52518763840E+02  0.97661431275E+02 -0.24511810129E+03  0.28079336703E+03  0.80411788158E+02 0.  0.
         -6    2    1    2    0  502  0.92241175760E+02 -0.67677426374E+02  0.93987423100E+02  0.22795631078E+03  0.17332563393E+03 0.  0.
        -24    2    5    5    0    0  0.45937250272E+02 -0.71562376079E+01  0.11629738273E+03  0.14841580472E+03  0.79628683032E+02 0.  0.
          5    1    3    3  501    0 -0.39722411920E+02 -0.29984004901E+02 -0.45377030210E+02  0.67513520345E+02  0.47000000000E+01 0. -1.
        -13    1    4    4    0    0 -0.13220075574E+01  0.63680035572E+02 -0.67319238696E+02  0.92675641530E+02  0.00000000000E+00 0.  1.
         14    1    4    4    0    0 -0.51196756282E+02  0.33981395703E+02 -0.17779886260E+03  0.18811772550E+03  0.00000000000E+00 0. -1.
         -5    1    5    5    0  502  0.46303925488E+02 -0.60521188766E+02 -0.22309959634E+02  0.79540506059E+02  0.47000000000E+01 0.  1.
         11    1    6    6    0    0 -0.81738418480E+01  0.11995262326E+02 -0.40591525304E+01  0.15072316614E+02  0.00000000000E+00 0. -1.
        -12    1    6    6    0    0  0.54111092120E+02 -0.19151499934E+02  0.12035653526E+03  0.13334348811E+03  0.00000000000E+00 0.  1.
<mgrwt>
<rscale>  2 0.20368863E+03</rscale>
<asrwt>0</asrwt>
<pdfrwt beam="1">  1       21 0.29211961E-01 0.20767870E+03</pdfrwt>
<pdfrwt beam="2">  1       21 0.59443916E-01 0.20767870E+03</pdfrwt>
<totfact> 0.29422384E+04</totfact>
</mgrwt>
</event>
<event>
12    1  0.1050690E-001  0.1747877E+03  0.7546771E-02  0.1173100E+00
         21   -1    0    0  501  502  0.00000000000E+00  0.00000000000E+00  0.86656125404E+03  0.86656125404E+03  0.00000000000E+00 0.  1.
         21   -1    0    0  502  503 -0.00000000000E+00 -0.00000000000E+00 -0.59127771904E+02  0.59127771904E+02  0.00000000000E+00 0.  1.
         -6    2    1    2    0  503 -0.20932619768E+02 -0.13646200502E+02  0.10928060663E+03  0.20613830127E+03  0.17299235506E+03 0.  0.
        -24    2    3    3    0    0 -0.29927209754E+02 -0.60630170771E+02  0.11777518887E+03  0.15732596637E+03  0.79428011993E+02 0.  0.
          6    2    1    2  501    0  0.20932619768E+02  0.13646200502E+02  0.69815287551E+03  0.71955072467E+03  0.17236999286E+03 0.  0.
         24    2    5    5    0    0  0.76515942521E+02  0.25352894501E+02  0.52826408634E+03  0.54035573831E+03  0.80149362375E+02 0.  0.
          5    1    5    5  501    0 -0.55583322752E+02 -0.11706693999E+02  0.16988878917E+03  0.17919498636E+03  0.47000000000E+01 0. -1.
        -11    1    6    6    0    0  0.30792789337E+02  0.52137250492E+02  0.29457273947E+03  0.30073175356E+03  0.00000000000E+00 0.  1.
         12    1    6    6    0    0  0.45723153184E+02 -0.26784355992E+02  0.23369134688E+03  0.23962398475E+03  0.00000000000E+00 0. -1.
         -5    1    3    3    0  503  0.89945899851E+01  0.46983970269E+02 -0.84945822405E+01  0.48812334903E+02  0.47000000000E+01 0.  1.
         13    1    4    4    0    0  0.89467587517E+01 -0.24995313896E+02 -0.18296308104E+01  0.26611233677E+02  0.00000000000E+00 0. -1.
        -14    1    4    4    0    0 -0.38873968505E+02 -0.35634856875E+02  0.11960481968E+03  0.13071473269E+03  0.00000000000E+00 0.  1.
<mgrwt>
<rscale>  2 0.17463353E+03</rscale>
<asrwt>0</asrwt>
<pdfrwt beam="1">  1       21 0.13331711E+00 0.17478772E+03</pdfrwt>
<pdfrwt beam="2">  1       21 0.90965809E-02 0.17478772E+03</pdfrwt>
<totfact> 0.39281171E+04</totfact>
</mgrwt>
</event>
<event>
12    1  0.1050690E-001  0.2124184E+03  0.7546771E-02  0.1139701E+00
         21   -1    0    0  503  502  0.00000000000E+00  0.00000000000E+00  0.88131413277E+02  0.88131413277E+02  0.00000000000E+00 0.  1.
         21   -1    0    0  501  503 -0.00000000000E+00 -0.00000000000E+00 -0.82272091654E+03  0.82272091654E+03  0.00000000000E+00 0.  1.
          6    2    1    2  501    0 -0.11899709856E+03  0.30807391640E+02 -0.64728731196E+03  0.68119330216E+03  0.17301458273E+03 0.  0.
         24    2    3    3    0    0 -0.55719597714E+02 -0.26664147065E+02 -0.50910568171E+03  0.51864093271E+03  0.77357427733E+02 0.  0.
         -6    2    1    2    0  502  0.11899709856E+03 -0.30807391640E+02 -0.87302191306E+02  0.22965902766E+03  0.17324027111E+03 0.  0.
        -24    2    5    5    0    0  0.20377227523E+02  0.30671183999E+02 -0.10693002050E+02  0.90387522661E+02  0.81851151675E+02 0.  0.
          5    1    3    3  501    0 -0.63277500848E+02  0.57471538705E+02 -0.13818163024E+03  0.16255236944E+03  0.47000000000E+01 0. -1.
        -13    1    4    4    0    0 -0.42428168253E+01  0.15598643226E+02 -0.26852298405E+03  0.26900913020E+03  0.00000000000E+00 0.  1.
         14    1    4    4    0    0 -0.51476780888E+02 -0.42262790291E+02 -0.24058269766E+03  0.24963180252E+03  0.00000000000E+00 0. -1.
         -5    1    5    5    0  502  0.98619871038E+02 -0.61478575639E+02 -0.76609189255E+02  0.13927150500E+03  0.47000000000E+01 0.  1.
         11    1    6    6    0    0  0.34665034957E+02  0.30682785148E+02 -0.37786717766E+02  0.59757292379E+02  0.00000000000E+00 0. -1.
        -12    1    6    6    0    0 -0.14287807434E+02 -0.11601148528E-01  0.27093715716E+02  0.30630230282E+02  0.00000000000E+00 0.  1.
<mgrwt>
<rscale>  2 0.21237243E+03</rscale>
<asrwt>0</asrwt>
<pdfrwt beam="1">  1       21 0.13558679E-01 0.21241845E+03</pdfrwt>
<pdfrwt beam="2">  1       21 0.12657245E+00 0.21241845E+03</pdfrwt>
<totfact> 0.21514417E+04</totfact>
</mgrwt>
</event>
<event>
12    1  0.1050690E-001  0.1960450E+03  0.7546771E-02  0.1153170E+00
         21   -1    0    0  501  502  0.00000000000E+00  0.00000000000E+00  0.48272391169E+02  0.48272391169E+02  0.00000000000E+00 0. -1.
         21   -1    0    0  502  503 -0.00000000000E+00 -0.00000000000E+00 -0.95838222408E+03  0.95838222408E+03  0.00000000000E+00 0. -1.
         -6    2    1    2    0  503  0.71354955206E+02  0.58119947488E+02 -0.66250025001E+03  0.69083167120E+03  0.17283621942E+03 0.  0.
        -24    2    3    3    0    0  0.17152205958E+02  0.17641348860E+01 -0.53460149506E+03  0.54085134864E+03  0.80150561171E+02 0.  0.
          6    2    1    2  501    0 -0.71354955206E+02 -0.58119947488E+02 -0.24760958290E+03  0.31582294405E+03  0.17310161326E+03 0.  0.
         24    2    5    5    0    0 -0.56878614074E+02 -0.10537946259E+03 -0.20644496081E+03  0.25132765482E+03  0.78778552652E+02 0.  0.
          5    1    5    5  501    0 -0.14476341131E+02  0.47259515106E+02 -0.41164622085E+02  0.64495289223E+02  0.47000000000E+01 0. -1.
        -11    1    6    6    0    0  0.88234869955E+01 -0.56874661137E+02 -0.11583321168E+03  0.12934416852E+03  0.00000000000E+00 0.  1.
         12    1    6    6    0    0 -0.65702101070E+02 -0.48504801457E+02 -0.90611749131E+02  0.12198348630E+03  0.00000000000E+00 0. -1.
         -5    1    3    3    0  503  0.54202749247E+02  0.56355812602E+02 -0.12789875495E+03  0.14998032257E+03  0.47000000000E+01 0.  1.
         11    1    4    4    0    0  0.32371003284E+02  0.33495865953E+02 -0.28518091178E+03  0.28896021756E+03  0.00000000000E+00 0. -1.
        -12    1    4    4    0    0 -0.15218797325E+02 -0.31731731067E+02 -0.24942058328E+03  0.25189113107E+03  0.00000000000E+00 0.  1.
<mgrwt>
<rscale>  2 0.19598636E+03</rscale>
<asrwt>0</asrwt>
<pdfrwt beam="1">  1       21 0.74265223E-02 0.19604496E+03</pdfrwt>
<pdfrwt beam="2">  1       21 0.14744341E+00 0.19604496E+03</pdfrwt>
<totfact> 0.42616572E+04</totfact>
</mgrwt>
</event>
<event>
12    1  0.1050690E-001  0.1816936E+03  0.7546771E-02  0.1167354E+00
         21   -1    0    0  503  502  0.00000000000E+00  0.00000000000E+00  0.18074794884E+04  0.18074794884E+04  0.00000000000E+00 0. -1.
         21   -1    0    0  501  503 -0.00000000000E+00 -0.00000000000E+00 -0.20870194736E+02  0.20870194736E+02  0.00000000000E+00 0.  1.
          6    2    1    2  501    0 -0.53575075087E+02 -0.10179843673E+02  0.55180827956E+03  0.58095176239E+03  0.17331663206E+03 0.  0.
         24    2    3    3    0    0  0.23973141822E+02  0.34597986846E+02  0.30865889617E+03  0.32179448834E+03  0.80682379232E+02 0.  0.
         -6    2    1    2    0  502  0.53575075087E+02  0.10179843673E+02  0.12348010142E+04  0.12473979208E+04  0.16820853235E+03 0.  0.
        -24    2    5    5    0    0 -0.17575895678E+02 -0.15107927415E+02  0.37491935410E+03  0.38419429979E+03  0.80644753929E+02 0.  0.
          5    1    3    3  501    0 -0.77548216909E+02 -0.44777830519E+02  0.24314938339E+03  0.25915727405E+03  0.47000000000E+01 0. -1.
        -13    1    4    4    0    0  0.46599801485E+02  0.19603700161E+02  0.10728978261E+03  0.11860414838E+03  0.00000000000E+00 0.  1.
         14    1    4    4    0    0 -0.22626659663E+02  0.14994286685E+02  0.20136911355E+03  0.20319033996E+03  0.00000000000E+00 0. -1.
         -5    1    5    5    0  502  0.71150970765E+02  0.25287771088E+02  0.85988166006E+03  0.86320362100E+03  0.47000000000E+01 0.  1.
         13    1    6    6    0    0 -0.11059437634E+01 -0.44543173680E+01  0.35873445473E+03  0.35876381237E+03  0.00000000000E+00 0. -1.
        -14    1    6    6    0    0 -0.16469951915E+02 -0.10653610047E+02  0.16184899370E+02  0.25430487427E+02  0.00000000000E+00 0.  1.
<mgrwt>
<rscale>  2 0.18046473E+03</rscale>
<asrwt>0</asrwt>
<pdfrwt beam="1">  1       21 0.27807364E+00 0.18169362E+03</pdfrwt>
<pdfrwt beam="2">  1       21 0.32108006E-02 0.18169362E+03</pdfrwt>
<totfact> 0.26078172E+04</totfact>
</mgrwt>
</event>
<event>
12    1  0.1050690E-001  0.1741714E+03  0.7546771E-02  0.1173709E+00
         21   -1    0    0  503  502  0.00000000000E+00  0.00000000000E+00  0.27602137757E+03  0.27602137757E+03  0.00000000000E+00 0. -1.
         21   -1    0    0  501  503 -0.00000000000E+00 -0.00000000000E+00 -0.40206660375E+03  0.40206660375E+03  0.00000000000E+00 0. -1.
          6    2    1    2  501    0 -0.27608536952E+01 -0.27631921839E+02 -0.35224146614E+03  0.39295004243E+03  0.17194342080E+03 0.  0.
         24    2    3    3    0    0  0.18344528019E+02 -0.47226033357E+02 -0.92481578685E+02  0.13155636333E+03  0.78660119506E+02 0.  0.
         -6    2    1    2    0  502  0.27608536952E+01  0.27631921839E+02  0.22619623996E+03  0.28513793890E+03  0.17137024191E+03 0.  0.
        -24    2    5    5    0    0  0.19317726565E+02  0.62519475869E+02  0.22391571939E+03  0.24616920477E+03  0.78607687713E+02 0.  0.
          5    1    3    3  501    0 -0.21105381715E+02  0.19594111518E+02 -0.25975988745E+03  0.26139367910E+03  0.47000000000E+01 0. -1.
        -13    1    4    4    0    0 -0.63842287554E+01  0.94729004934E+01  0.77286956176E+01  0.13792278873E+02  0.00000000000E+00 0.  1.
         14    1    4    4    0    0  0.24728756775E+02 -0.56698933851E+02 -0.10021027430E+03  0.11776408445E+03  0.00000000000E+00 0. -1.
         -5    1    5    5    0  502 -0.16556872870E+02 -0.34887554030E+02  0.22805205703E+01  0.38968734127E+02  0.47000000000E+01 0.  1.
         13    1    6    6    0    0 -0.19133913187E+02  0.25598524171E+02  0.15895496714E+03  0.16213596965E+03  0.00000000000E+00 0. -1.
        -14    1    6    6    0    0  0.38451639752E+02  0.36920951697E+02  0.64960752243E+02  0.84033235126E+02  0.00000000000E+00 0.  1.
<mgrwt>
<rscale>  2 0.17402980E+03</rscale>
<asrwt>0</asrwt>
<pdfrwt beam="1">  1       21 0.42464827E-01 0.17417143E+03</pdfrwt>
<pdfrwt beam="2">  1       21 0.61856400E-01 0.17417143E+03</pdfrwt>
<totfact> 0.13107356E+04</totfact>
</mgrwt>
</event>
<event>
12    1  0.1050690E-001  0.1800878E+03  0.7546771E-02  0.1168077E+00
         21   -1    0    0  501  502  0.00000000000E+00  0.00000000000E+00  0.10388188219E+03  0.10388188219E+03  0.00000000000E+00 0.  1.
         21   -1    0    0  502  503 -0.00000000000E+00 -0.00000000000E+00 -0.35555710796E+03  0.35555710796E+03  0.00000000000E+00 0.  1.
         -6    2    1    2    0  503 -0.30398122517E+02  0.31477890497E+02 -0.20793917085E+03  0.27411637354E+03  0.17316519288E+03 0.  0.
        -24    2    3    3    0    0  0.13345259319E+02 -0.38596014852E+02 -0.15750575952E+03  0.17721717518E+03  0.70214774701E+02 0.  0.
          6    2    1    2  501    0  0.30398122517E+02 -0.31477890497E+02 -0.43736054924E+02  0.18532261661E+03  0.17469037262E+03 0.  0.
         24    2    5    5    0    0  0.51058385903E+01 -0.75187056826E+02 -0.66623409873E+02  0.12967990043E+03  0.81847631185E+02 0.  0.
          5    1    5    5  501    0  0.25292283927E+02  0.43709166329E+02  0.22887354950E+02  0.55642716181E+02  0.47000000000E+01 0. -1.
        -11    1    6    6    0    0  0.66961105324E+01 -0.16060458142E+02  0.18903459779E+02  0.25692742236E+02  0.00000000000E+00 0.  1.
         12    1    6    6    0    0 -0.15902719421E+01 -0.59126598684E+02 -0.85526869652E+02  0.10398715819E+03  0.00000000000E+00 0. -1.
         -5    1    3    3    0  503 -0.43743381836E+02  0.70073905349E+02 -0.50433411329E+02  0.96899198364E+02  0.47000000000E+01 0.  1.
         13    1    4    4    0    0 -0.22688586711E+02 -0.27845094854E+02 -0.39612712138E+02  0.53472312811E+02  0.00000000000E+00 0. -1.
        -14    1    4    4    0    0  0.36033846030E+02 -0.10750919998E+02 -0.11789304739E+03  0.12374486237E+03  0.00000000000E+00 0.  1.
<mgrwt>
<rscale>  2 0.17971692E+03</rscale>
<asrwt>0</asrwt>
<pdfrwt beam="1">  1       21 0.15981828E-01 0.18008784E+03</pdfrwt>
<pdfrwt beam="2">  1       21 0.54701093E-01 0.18008784E+03</pdfrwt>
<totfact> 0.11075947E+05</totfact>
</mgrwt>
</event>
<event>
12    1  0.1050690E-001  0.1802848E+03  0.7546771E-02  0.1167601E+00
         21   -1    0    0  501  502  0.00000000000E+00  0.00000000000E+00  0.32279835196E+03  0.32279835196E+03  0.00000000000E+00 0.  1.
         21   -1    0    0  502  503 -0.00000000000E+00 -0.00000000000E+00 -0.11018186494E+03  0.11018186494E+03  0.00000000000E+00 0.  1.
         -6    2    1    2    0  503  0.42441295309E+02  0.26433780543E+02  0.42287682222E+02  0.18517788290E+03  0.17321256290E+03 0.  0.
        -24    2    3    3    0    0  0.78735293224E+02  0.28527101574E+02 -0.15094118250E+02  0.11708678728E+03  0.80426621373E+02 0.  0.
          6    2    1    2  501    0 -0.42441295309E+02 -0.26433780543E+02  0.17032880480E+03  0.24780233400E+03  0.17289906504E+03 0.  0.
         24    2    5    5    0    0  0.17503602734E+02  0.19413290768E+02  0.13708974536E+03  0.16520530124E+03  0.88407812481E+02 0.  0.
          5    1    5    5  501    0 -0.59944898042E+02 -0.45847071311E+02  0.33239059445E+02  0.82597032767E+02  0.47000000000E+01 0. -1.
        -11    1    6    6    0    0 -0.71310462386E+01  0.42456841129E+02  0.28832956801E+02  0.51814810402E+02  0.00000000000E+00 0.  1.
         12    1    6    6    0    0  0.24634648972E+02 -0.23043550362E+02  0.10825678856E+03  0.11339049084E+03  0.00000000000E+00 0. -1.
         -5    1    3    3    0  503 -0.36293997915E+02 -0.20933210308E+01  0.57381800473E+02  0.68091095623E+02  0.47000000000E+01 0.  1.
         13    1    4    4    0    0  0.69153328399E+02  0.51436389947E+02  0.31978996753E+01  0.86244487370E+02  0.00000000000E+00 0. -1.
        -14    1    4    4    0    0  0.95819648250E+01 -0.22909288373E+02 -0.18292017926E+02  0.30842299905E+02  0.00000000000E+00 0.  1.
<mgrwt>
<rscale>  2 0.18020943E+03</rscale>
<asrwt>0</asrwt>
<pdfrwt beam="1">  1       21 0.49661284E-01 0.18028478E+03</pdfrwt>
<pdfrwt beam="2">  1       21 0.16951056E-01 0.18028478E+03</pdfrwt>
<totfact> 0.12174085E+05</totfact>
</mgrwt>
</event>
<event>
12    1  0.1050690E-001  0.2079403E+03  0.7546771E-02  0.1143930E+00
         21   -1    0    0  503  502  0.00000000000E+00  0.00000000000E+00  0.57425405558E+02  0.57425405558E+02  0.00000000000E+00 0. -1.
         21   -1    0    0  501  503 -0.00000000000E+00 -0.00000000000E+00 -0.88815996776E+03  0.88815996776E+03  0.00000000000E+00 0. -1.
          6    2    1    2  501    0 -0.59984907333E+02  0.91311899441E+02 -0.22532282889E+03  0.30660974515E+03  0.17692683944E+03 0.  0.
         24    2    3    3    0    0  0.14890163741E+02  0.71339065159E+01 -0.41665296912E+02  0.91100140229E+02  0.79313485515E+02 0.  0.
         -6    2    1    2    0  502  0.59984907333E+02 -0.91311899441E+02 -0.60541173330E+03  0.63897562816E+03  0.17271489360E+03 0.  0.
        -24    2    5    5    0    0  0.49256951575E+02 -0.71189154475E+02 -0.18741718380E+03  0.22033312278E+03  0.76989227915E+02 0.  0.
          5    1    3    3  501    0 -0.74875071074E+02  0.84177992925E+02 -0.18365753198E+03  0.21550960492E+03  0.47000000000E+01 0. -1.
        -13    1    4    4    0    0 -0.25709224354E+02 -0.38088405290E+01  0.68713645731E+01  0.26882840887E+02  0.00000000000E+00 0.  1.
         14    1    4    4    0    0  0.40599388095E+02  0.10942747045E+02 -0.48536661485E+02  0.64217299342E+02  0.00000000000E+00 0. -1.
         -5    1    5    5    0  502  0.10727955757E+02 -0.20122744965E+02 -0.41799454950E+03  0.41864250538E+03  0.47000000000E+01 0.  1.
         11    1    6    6    0    0 -0.12930004289E+02 -0.36195725383E+02 -0.34761875924E+02  0.51823774126E+02  0.00000000000E+00 0. -1.
        -12    1    6    6    0    0  0.62186955865E+02 -0.34993429092E+02 -0.15265530788E+03  0.16850934865E+03  0.00000000000E+00 0.  1.
<mgrwt>
<rscale>  2 0.20704152E+03</rscale>
<asrwt>0</asrwt>
<pdfrwt beam="1">  1       21 0.88346777E-02 0.20794028E+03</pdfrwt>
<pdfrwt beam="2">  1       21 0.13664000E+00 0.20794028E+03</pdfrwt>
<totfact> 0.38102164E+04</totfact>
</mgrwt>
</event>
<event>
12    1  0.1050690E-001  0.1883223E+03  0.7546771E-02  0.1160667E+00
         21   -1    0    0  501  502  0.00000000000E+00  0.00000000000E+00  0.94590767889E+02  0.94590767889E+02  0.00000000000E+00 0.  1.
         21   -1    0    0  502  503 -0.00000000000E+00 -0.00000000000E+00 -0.87405440002E+03  0.87405440002E+03  0.00000000000E+00 0.  1.
         -6    2    1    2    0  503 -0.49489552372E+02 -0.50493609757E+02 -0.75917976112E+03  0.78218872641E+03  0.17454647978E+03 0.  0.
        -24    2    3    3    0    0 -0.80275801449E+02 -0.76189821722E+02 -0.44323749243E+03  0.46367703810E+03  0.79295824203E+02 0.  0.
          6    2    1    2  501    0  0.49489552372E+02  0.50493609757E+02 -0.20283871013E+02  0.18645644150E+03  0.17133519409E+03 0.  0.
         24    2    5    5    0    0  0.97877097397E+02  0.39851847659E+02  0.24542670301E+01  0.13174159401E+03  0.78623967146E+02 0.  0.
          5    1    5    5  501    0 -0.48387545025E+02  0.10641762099E+02 -0.22738138043E+02  0.54714847489E+02  0.47000000000E+01 0. -1.
        -11    1    6    6    0    0  0.17682373136E+02  0.31577797990E+02  0.29515063937E+02  0.46700777775E+02  0.00000000000E+00 0.  1.
         12    1    6    6    0    0  0.80194724261E+02  0.82740496693E+01 -0.27060796907E+02  0.85040816238E+02  0.00000000000E+00 0. -1.
         -5    1    3    3    0  503  0.30786249077E+02  0.25696211964E+02 -0.31594226869E+03  0.31851168831E+03  0.47000000000E+01 0.  1.
         11    1    4    4    0    0 -0.28538711655E+02  0.14068638213E+02 -0.91344906416E+02  0.96727847966E+02  0.00000000000E+00 0. -1.
        -12    1    4    4    0    0 -0.51737089794E+02 -0.90258459935E+02 -0.35189258601E+03  0.36694919013E+03  0.00000000000E+00 0.  1.
<mgrwt>
<rscale>  2 0.18757476E+03</rscale>
<asrwt>0</asrwt>
<pdfrwt beam="1">  1       21 0.14552425E-01 0.18832231E+03</pdfrwt>
<pdfrwt beam="2">  1       21 0.13446991E+00 0.18832231E+03</pdfrwt>
<totfact> 0.16494980E+04</totfact>
</mgrwt>
</event>
<event>
12    1  0.1050690E-001  0.2301507E+03  0.7546771E-02  0.1127091E+00
         21   -1    0    0  503  502  0.00000000000E+00  0.00000000000E+00  0.45091385662E+02  0.45091385662E+02  0.00000000000E+00 0. -1.
         21   -1    0    0  501  503 -0.00000000000E+00 -0.00000000000E+00 -0.11731810117E+04  0.11731810117E+04  0.00000000000E+00 0. -1.
          6    2    1    2  501    0 -0.77093897481E+02 -0.12693655374E+03 -0.62787647272E+03  0.66765225828E+03  0.17168085302E+03 0.  0.
         24    2    3    3    0    0  0.18451466380E+02 -0.72606475055E+02 -0.24597763505E+03  0.27022366568E+03  0.83088360905E+02 0.  0.
         -6    2    1    2    0  502  0.77093897481E+02  0.12693655374E+03 -0.50021315331E+03  0.55062013907E+03  0.17582087789E+03 0.  0.
        -24    2    5    5    0    0  0.10133121761E+03  0.90069067812E+02 -0.47327834097E+03  0.49871413439E+03  0.79642621608E+02 0.  0.
          5    1    3    3  501    0 -0.95545363861E+02 -0.54330078682E+02 -0.38189883767E+03  0.39742859261E+03  0.47000000000E+01 0. -1.
        -13    1    4    4    0    0  0.38316293956E+02 -0.45935340006E+02 -0.22010535646E+03  0.22808893394E+03  0.00000000000E+00 0.  1.
         14    1    4    4    0    0 -0.19864827576E+02 -0.26671135049E+02 -0.25872278591E+02  0.42134731741E+02  0.00000000000E+00 0. -1.
         -5    1    5    5    0  502 -0.24237320132E+02  0.36867485925E+02 -0.26934812347E+02  0.51906004680E+02  0.47000000000E+01 0.  1.
         11    1    6    6    0    0  0.64565256022E+02  0.37012893158E+02 -0.13335335581E+03  0.15271458363E+03  0.00000000000E+00 0. -1.
        -12    1    6    6    0    0  0.36765961591E+02  0.53056174654E+02 -0.33992498515E+03  0.34599955077E+03  0.00000000000E+00 0.  1.
<mgrwt>
<rscale>  2 0.22935987E+03</rscale>
<asrwt>0</asrwt>
<pdfrwt beam="1">  1       21 0.69371356E-02 0.23015069E+03</pdfrwt>
<pdfrwt beam="2">  1       21 0.18048940E+00 0.23015069E+03</pdfrwt>
<totfact> 0.27071854E+04</totfact>
</mgrwt>
</event>
<event>
12    1  0.1050690E-001  0.2106620E+03  0.7546771E-02  0.1141361E+00
         21   -1    0    0  503  502  0.00000000000E+00  0.00000000000E+00  0.38776358035E+03  0.38776358035E+03  0.00000000000E+00 0.  1.
         21   -1    0    0  501  503 -0.00000000000E+00 -0.00000000000E+00 -0.19308843015E+03  0.19308843015E+03  0.00000000000E+00 0. -1.
          6    2    1    2  501    0  0.11693073187E+03  0.98503374065E+01 -0.88812229764E+02  0.22861779198E+03  0.17495330077E+03 0.  0.
         24    2    3    3    0    0  0.12747160353E+03  0.53988535697E+02 -0.91564644976E+02  0.18291269037E+03  0.76871297615E+02 0.  0.
         -6    2    1    2    0  502 -0.11693073187E+03 -0.98503374065E+01  0.28348737997E+03  0.35223421851E+03  0.17301452219E+03 0.  0.
        -24    2    5    5    0    0 -0.13065965149E+03  0.29269637083E+02  0.16658722008E+03  0.22811092086E+03  0.79715959141E+02 0.  0.
          5    1    3    3  501    0 -0.10540871657E+02 -0.44138198291E+02  0.27524152119E+01  0.45705101609E+02  0.47000000000E+01 0. -1.
        -11    1    4    4    0    0  0.30423987662E+02  0.31685478302E+02  0.49903650395E+01  0.44209640393E+02  0.00000000000E+00 0.  1.
         12    1    4    4    0    0  0.97047615863E+02  0.22303057395E+02 -0.96555010016E+02  0.13870304998E+03  0.00000000000E+00 0. -1.
         -5    1    5    5    0  502  0.13728919619E+02 -0.39119974490E+02  0.11690015989E+03  0.12412329765E+03  0.47000000000E+01 0.  1.
         11    1    6    6    0    0 -0.61277585585E+02 -0.95095733438E+01  0.27329663279E+02  0.67766400046E+02  0.00000000000E+00 0. -1.
        -12    1    6    6    0    0 -0.69382065902E+02  0.38779210427E+02  0.13925755680E+03  0.16034452082E+03  0.00000000000E+00 0.  1.
<mgrwt>
<rscale>  2 0.21025902E+03</rscale>
<asrwt>0</asrwt>
<pdfrwt beam="1">  1       21 0.59655935E-01 0.21066201E+03</pdfrwt>
<pdfrwt beam="2">  1       21 0.29705912E-01 0.21066201E+03</pdfrwt>
<totfact> 0.28214183E+04</totfact>
</mgrwt>
</event>
<event>
12    1  0.1050690E-001  0.1856470E+03  0.7546771E-02  0.1162771E+00
         21   -1    0    0  501  502  0.00000000000E+00  0.00000000000E+00  0.39124386581E+03  0.39124386581E+03  0.00000000000E+00 0.  1.
         21   -1    0    0  502  503 -0.00000000000E+00 -0.00000000000E+00 -0.22324744513E+03  0.22324744513E+03  0.00000000000E+00 0.  1.
         -6    2    1    2    0  503  0.53293708212E+02 -0.39900839571E+02 -0.15552053181E+03  0.24218063365E+03  0.17329895316E+03 0.  0.
        -24    2    3    3    0    0  0.30862806222E+02 -0.72368379012E+02 -0.16731570531E+03  0.20072580764E+03  0.78144798429E+02 0.  0.
          6    2    1    2  501    0 -0.53293708212E+02  0.39900839571E+02  0.32351695249E+03  0.37231067728E+03  0.17181305403E+03 0.  0.
         24    2    5    5    0    0 -0.96360197777E+02  0.56413600135E+02  0.24986362704E+03  0.28528024505E+03  0.80530764934E+02 0.  0.
          5    1    5    5  501    0  0.43066489565E+02 -0.16512760565E+02  0.73653325456E+02  0.87030432238E+02  0.47000000000E+01 0. -1.
        -11    1    6    6    0    0 -0.80918911773E+02  0.19402129280E+01  0.14142550866E+03  0.16295032742E+03  0.00000000000E+00 0.  1.
         12    1    6    6    0    0 -0.15441286004E+02  0.54473387207E+02  0.10843811838E+03  0.12232991762E+03  0.00000000000E+00 0. -1.
         -5    1    3    3    0  503  0.22430901990E+02  0.32467539442E+02  0.11795173498E+02  0.41454826008E+02  0.47000000000E+01 0.  1.
         11    1    4    4    0    0  0.16338985131E+02 -0.45954030828E+02 -0.24155253733E+02  0.54426203866E+02  0.00000000000E+00 0. -1.
        -12    1    4    4    0    0  0.14523821091E+02 -0.26414348184E+02 -0.14316045158E+03  0.14629960378E+03  0.00000000000E+00 0.  1.
<mgrwt>
<rscale>  2 0.18529949E+03</rscale>
<asrwt>0</asrwt>
<pdfrwt beam="1">  1       21 0.60191364E-01 0.18564704E+03</pdfrwt>
<pdfrwt beam="2">  1       21 0.34345761E-01 0.18564704E+03</pdfrwt>
<totfact> 0.21110636E+04</totfact>
</mgrwt>
</event>
<event>
12    1  0.1050690E-001  0.1976150E+03  0.7546771E-02  0.1152022E+00
         21   -1    0    0  501  502  0.00000000000E+00  0.00000000000E+00  0.95683663649E+03  0.95683663649E+03  0.00000000000E+00 0. -1.
         21   -1    0    0  502  503 -0.00000000000E+00 -0.00000000000E+00 -0.40841167379E+02  0.40841167379E+02  0.00000000000E+00 0. -1.
         -6    2    1    2    0  503  0.81545445866E+02  0.46010255327E+02  0.41864370690E+03  0.46294087237E+03  0.17402613208E+03 0.  0.
        -24    2    3    3    0    0  0.33903018877E+02  0.35351469648E+02  0.89150464754E+02  0.12981732595E+03  0.80657248000E+02 0.  0.
          6    2    1    2  501    0 -0.81545445866E+02 -0.46010255327E+02  0.49735176221E+03  0.53473693150E+03  0.17267949269E+03 0.  0.
         24    2    5    5    0    0  0.23211739630E+02 -0.25362764312E+02  0.19223173001E+03  0.21144030168E+03  0.81067308355E+02 0.  0.
          5    1    5    5  501    0 -0.10475718550E+03 -0.20647491015E+02  0.30512003220E+03  0.32329662982E+03  0.47000000000E+01 0. -1.
        -11    1    6    6    0    0  0.32580767461E+02  0.20391901670E+02  0.11425392755E+03  0.12054582540E+03  0.00000000000E+00 0.  1.
         12    1    6    6    0    0 -0.93690278315E+01 -0.45754665982E+02  0.77977802460E+02  0.90894476280E+02  0.00000000000E+00 0. -1.
         -5    1    3    3    0  503  0.47642426989E+02  0.10658785679E+02  0.32949324215E+03  0.33312354642E+03  0.47000000000E+01 0.  1.
         13    1    4    4    0    0  0.69496048967E+01  0.19404920435E+02  0.95638946730E+02  0.97834840813E+02  0.00000000000E+00 0. -1.
        -14    1    4    4    0    0  0.26953413981E+02  0.15946549214E+02 -0.64884819755E+01  0.31982485135E+02  0.00000000000E+00 0.  1.
<mgrwt>
<rscale>  2 0.19731814E+03</rscale>
<asrwt>0</asrwt>
<pdfrwt beam="1">  1       21 0.14720562E+00 0.19761502E+03</pdfrwt>
<pdfrwt beam="2">  1       21 0.62832572E-02 0.19761502E+03</pdfrwt>
<totfact> 0.57056537E+04</totfact>
</mgrwt>
</event>
<event>
12    1  0.1050690E-001  0.1809703E+03  0.7546771E-02  0.1167370E+00
         21   -1    0    0  501  502  0.00000000000E+00  0.00000000000E+00  0.13739208524E+03  0.13739208524E+03  0.00000000000E+00 0.  1.
         21   -1    0    0  502  503 -0.00000000000E+00 -0.00000000000E+00 -0.29525556832E+03  0.29525556832E+03  0.00000000000E+00 0.  1.
         -6    2    1    2    0  503 -0.21309658639E+02  0.47749100238E+02 -0.17576987287E+03  0.25079363736E+03  0.17107987083E+03 0.  0.
        -24    2    3    3    0    0  0.27722622666E+02 -0.63671794728E+01 -0.15108887303E+03  0.17356684089E+03  0.80551324757E+02 0.  0.
          6    2    1    2  501    0  0.21309658639E+02 -0.47749100238E+02  0.17906389786E+02  0.18185401620E+03  0.17325174253E+03 0.  0.
         24    2    5    5    0    0  0.43359390726E+02 -0.90348609415E+02  0.30643639927E+02  0.13200187073E+03  0.80265517009E+02 0.  0.
          5    1    5    5  501    0 -0.22049732087E+02  0.42599509177E+02 -0.12737250142E+02  0.49852145474E+02  0.47000000000E+01 0. -1.
        -13    1    6    6    0    0  0.28015530818E+02 -0.70674039106E+02 -0.17288018843E+02  0.77965154820E+02  0.00000000000E+00 0.  1.
         14    1    6    6    0    0  0.15343859908E+02 -0.19674570308E+02  0.47931658771E+02  0.54036715909E+02  0.00000000000E+00 0. -1.
         -5    1    3    3    0  503 -0.49032281304E+02  0.54116279710E+02 -0.24680999840E+02  0.77226796468E+02  0.47000000000E+01 0.  1.
         13    1    4    4    0    0 -0.14094402026E+02 -0.32972489938E+02 -0.62569293641E+02  0.72116251760E+02  0.00000000000E+00 0. -1.
        -14    1    4    4    0    0  0.41817024692E+02  0.26605310465E+02 -0.88519579391E+02  0.10145058913E+03  0.00000000000E+00 0.  1.
<mgrwt>
<rscale>  2 0.18044850E+03</rscale>
<asrwt>0</asrwt>
<pdfrwt beam="1">  1       21 0.21137244E-01 0.18097029E+03</pdfrwt>
<pdfrwt beam="2">  1       21 0.45423933E-01 0.18097029E+03</pdfrwt>
<totfact> 0.97169801E+04</totfact>
</mgrwt>
</event>
<event>
12    1  0.1050690E-001  0.1781478E+03  0.7546771E-02  0.1170030E+00
         21   -1    0    0  503  502  0.00000000000E+00  0.00000000000E+00  0.76686665060E+03  0.76686665060E+03  0.00000000000E+00 0. -1.
         21   -1    0    0  501  503 -0.00000000000E+00 -0.00000000000E+00 -0.41588203469E+02  0.41588203469E+02  0.00000000000E+00 0. -1.
          6    2    1    2  501    0 -0.34096535328E+02 -0.17086141675E+02  0.31235753296E+03  0.35874346072E+03  0.17226471564E+03 0.  0.
         24    2    3    3    0    0  0.20166696112E+01  0.15541994350E+02  0.29520603619E+03  0.30692625631E+03  0.82531826972E+02 0.  0.
         -6    2    1    2    0  502  0.34096535328E+02  0.17086141675E+02  0.41292091417E+03  0.44971139335E+03  0.17401765999E+03 0.  0.
        -24    2    5    5    0    0  0.47584173444E+02  0.72848909792E+02  0.31231850423E+03  0.33380480348E+03  0.79445462541E+02 0.  0.
          5    1    3    3  501    0 -0.36113204939E+02 -0.32628136025E+02  0.17151496768E+02  0.51817204409E+02  0.47000000000E+01 0. -1.
        -11    1    4    4    0    0  0.25209460889E+02  0.14149441997E+02  0.33744493278E+02  0.44434383689E+02  0.00000000000E+00 0.  1.
         12    1    4    4    0    0 -0.23192791278E+02  0.13925523528E+01  0.26146154292E+03  0.26249187262E+03  0.00000000000E+00 0. -1.
         -5    1    5    5    0  502 -0.13487638117E+02 -0.55762768117E+02  0.10060240994E+03  0.11590658987E+03  0.47000000000E+01 0.  1.
         13    1    6    6    0    0  0.17371351120E+02 -0.10580717919E+02  0.12365662517E+03  0.12531830026E+03  0.00000000000E+00 0. -1.
        -14    1    6    6    0    0  0.30212822325E+02  0.83429627711E+02  0.18866187906E+03  0.20848650322E+03  0.00000000000E+00 0.  1.
<mgrwt>
<rscale>  2 0.17771832E+03</rscale>
<asrwt>0</asrwt>
<pdfrwt beam="1">  1       21 0.11797947E+00 0.17814785E+03</pdfrwt>
<pdfrwt beam="2">  1       21 0.63981857E-02 0.17814785E+03</pdfrwt>
<totfact> 0.97876971E+04</totfact>
</mgrwt>
</event>
<event>
12    1  0.1050690E-001  0.1972298E+03  0.7546771E-02  0.1152387E+00
         21   -1    0    0  503  502  0.00000000000E+00  0.00000000000E+00  0.93484571420E+02  0.93484571420E+02  0.00000000000E+00 0. -1.
         21   -1    0    0  501  503 -0.00000000000E+00 -0.00000000000E+00 -0.12861763142E+04  0.12861763142E+04  0.00000000000E+00 0. -1.
          6    2    1    2  501    0  0.92478176859E+02  0.79405558165E+01 -0.11639851642E+04  0.11803529212E+04  0.17250011733E+03 0.  0.
         24    2    3    3    0    0  0.10591500025E+03  0.53118057216E+02 -0.72225066160E+03  0.73608609187E+03  0.78340290906E+02 0.  0.
         -6    2    1    2    0  502 -0.92478176859E+02 -0.79405558165E+01 -0.28706578549E+02  0.19930796439E+03  0.17402393915E+03 0.  0.
        -24    2    5    5    0    0 -0.99985594610E+02  0.38738680112E+02 -0.55925404447E+02  0.14455153215E+03  0.79181374826E+02 0.  0.
          5    1    3    3  501    0 -0.13436823387E+02 -0.45177501400E+02 -0.44173450260E+03  0.44426682933E+03  0.47000000000E+01 0. -1.
        -11    1    4    4    0    0  0.10574954719E+02  0.38319828382E+02 -0.12727832898E+03  0.13334171119E+03  0.00000000000E+00 0.  1.
         12    1    4    4    0    0  0.95340045527E+02  0.14798228835E+02 -0.59497233262E+03  0.60274438068E+03  0.00000000000E+00 0. -1.
         -5    1    5    5    0  502  0.75074177508E+01 -0.46679235928E+02  0.27218825898E+02  0.54756432237E+02  0.47000000000E+01 0.  1.
         13    1    6    6    0    0 -0.15088468612E+02 -0.74653517180E+01  0.16653329547E+02  0.23679669473E+02  0.00000000000E+00 0. -1.
        -14    1    6    6    0    0 -0.84897125998E+02  0.46204031830E+02 -0.72578733994E+02  0.12087186268E+03  0.00000000000E+00 0.  1.
<mgrwt>
<rscale>  2 0.19689314E+03</rscale>
<asrwt>0</asrwt>
<pdfrwt beam="1">  1       21 0.14382241E-01 0.19722981E+03</pdfrwt>
<pdfrwt beam="2">  1       21 0.19787329E+00 0.19722981E+03</pdfrwt>
<totfact> 0.58435493E+03</totfact>
</mgrwt>
</event>
<event>
12    1  0.1050690E-001  0.1780425E+03  0.7546771E-02  0.1170032E+00
         21   -1    0    0  503  502  0.00000000000E+00  0.00000000000E+00  0.15166068000E+03  0.15166068000E+03  0.00000000000E+00 0. -1.
         21   -1    0    0  501  503 -0.00000000000E+00 -0.00000000000E+00 -0.56642073977E+03  0.56642073977E+03  0.00000000000E+00 0.  1.
          6    2    1    2  501    0  0.20276988551E+00 -0.41034462193E+02 -0.49347053226E+03  0.52460679882E+03  0.17324912395E+03 0.  0.
         24    2    3    3    0    0 -0.66367110141E+01 -0.94153648831E+02 -0.34205700311E+03  0.36393143263E+03  0.80834019817E+02 0.  0.
         -6    2    1    2    0  502 -0.20276988551E+00  0.41034462193E+02  0.78710472491E+02  0.19347462095E+03  0.17191050657E+03 0.  0.
        -24    2    5    5    0    0 -0.35550000270E+01  0.49884663804E+02  0.11936219781E+03  0.15147204618E+03  0.78710411009E+02 0.  0.
          5    1    3    3  501    0  0.68394808996E+01  0.53119186638E+02 -0.15141352915E+03  0.16067536618E+03  0.47000000000E+01 0. -1.
        -11    1    4    4    0    0  0.24759140633E+02 -0.14153711237E+02 -0.16108792512E+03  0.16359297725E+03  0.00000000000E+00 0.  1.
         12    1    4    4    0    0 -0.31395851647E+02 -0.79999937594E+02 -0.18096907800E+03  0.20033845539E+03  0.00000000000E+00 0. -1.
         -5    1    5    5    0  502  0.33522301415E+01 -0.88502016111E+01 -0.40651725319E+02  0.42002574765E+02  0.47000000000E+01 0.  1.
         11    1    6    6    0    0 -0.27933434170E+02  0.25107744290E+02  0.10886566266E+03  0.11516252895E+03  0.00000000000E+00 0. -1.
        -12    1    6    6    0    0  0.24378434143E+02  0.24776919514E+02  0.10496535155E+02  0.36309517238E+02  0.00000000000E+00 0.  1.
<mgrwt>
<rscale>  2 0.17771601E+03</rscale>
<asrwt>0</asrwt>
<pdfrwt beam="1">  1       21 0.23332412E-01 0.17804249E+03</pdfrwt>
<pdfrwt beam="2">  1       21 0.87141653E-01 0.17804249E+03</pdfrwt>
<totfact> 0.19724973E+04</totfact>
</mgrwt>
</event>
<event>
12    1  0.1050690E-001  0.2266464E+03  0.7546771E-02  0.1129401E+00
         21   -1    0    0  503  502  0.00000000000E+00  0.00000000000E+00  0.36107809756E+03  0.36107809756E+03  0.00000000000E+00 0.  1.
         21   -1    0    0  501  503 -0.00000000000E+00 -0.00000000000E+00 -0.14267795422E+03  0.14267795422E+03  0.00000000000E+00 0.  1.
          6    2    1    2  501    0  0.76009384225E+02  0.12356273603E+03  0.81992646442E+02  0.24102156298E+03  0.17413622117E+03 0.  0.
         24    2    3    3    0    0  0.93481996196E+02  0.33895875234E+02  0.74540317864E+02  0.14924430384E+03  0.82642539109E+02 0.  0.
         -6    2    1    2    0  502 -0.76009384225E+02 -0.12356273603E+03  0.13640749689E+03  0.26273448880E+03  0.17139787097E+03 0.  0.
        -24    2    5    5    0    0 -0.22989960087E+01  0.84316050861E+00  0.24037402280E+02  0.79542849835E+02  0.75784378002E+02 0.  0.
          5    1    3    3  501    0 -0.17472611971E+02  0.89666860793E+02  0.74523285779E+01  0.91777259138E+02  0.47000000000E+01 0. -1.
        -11    1    4    4    0    0  0.95468920024E+02  0.23006292100E+02  0.29023776302E+02  0.10240109256E+03  0.00000000000E+00 0.  1.
         12    1    4    4    0    0 -0.19869238277E+01  0.10889583135E+02  0.45516541562E+02  0.46843211279E+02  0.00000000000E+00 0. -1.
         -5    1    5    5    0  502 -0.73710388216E+02 -0.12440589654E+03  0.11237009461E+03  0.18319163897E+03  0.47000000000E+01 0.  1.
         11    1    6    6    0    0  0.64874126963E+01 -0.12977328617E+02 -0.24413351118E+02  0.28399107280E+02  0.00000000000E+00 0. -1.
        -12    1    6    6    0    0 -0.87864087050E+01  0.13820489125E+02  0.48450753398E+02  0.51143742554E+02  0.00000000000E+00 0.  1.
<mgrwt>
<rscale>  2 0.22612032E+03</rscale>
<asrwt>0</asrwt>
<pdfrwt beam="1">  1       21 0.55550476E-01 0.22664642E+03</pdfrwt>
<pdfrwt beam="2">  1       21 0.21950455E-01 0.22664642E+03</pdfrwt>
<totfact> 0.58302540E+04</totfact>
</mgrwt>
</event>
<event>
12    1  0.1050690E-001  0.2123485E+03  0.7546771E-02  0.1140137E+00
         21   -1    0    0  501  502  0.00000000000E+00  0.00000000000E+00  0.47102714490E+03  0.47102714490E+03  0.00000000000E+00 0.  1.
         21   -1    0    0  502  503 -0.00000000000E+00 -0.00000000000E+00 -0.32146669232E+03  0.32146669232E+03  0.00000000000E+00 0.  1.
         -6    2    1    2    0  503  0.11854889878E+03  0.14811446382E+02 -0.25807761915E+03  0.33286279765E+03  0.17297503926E+03 0.  0.
        -24    2    3    3    0    0  0.12455088609E+03 -0.10662980699E+00 -0.27056113616E+03  0.31197019020E+03  0.92785433003E+02 0.  0.
          6    2    1    2  501    0 -0.11854889878E+03 -0.14811446382E+02  0.40763807173E+03  0.45963103957E+03  0.17555248409E+03 0.  0.
         24    2    5    5    0    0 -0.24396191595E+02 -0.58050086818E+02  0.26096582482E+03  0.27999487865E+03  0.79554909357E+02 0.  0.
          5    1    5    5  501    0 -0.94152707187E+02  0.43238640436E+02  0.14667224691E+03  0.17963616092E+03  0.47000000000E+01 0. -1.
        -11    1    6    6    0    0 -0.11085098734E+02 -0.70199574572E+02  0.24748900954E+03  0.25749110572E+03  0.00000000000E+00 0.  1.
         12    1    6    6    0    0 -0.13311092861E+02  0.12149487754E+02  0.13476815279E+02  0.22503772925E+02  0.00000000000E+00 0. -1.
         -5    1    3    3    0  503 -0.60019873049E+01  0.14918076189E+02  0.12483517018E+02  0.20892607447E+02  0.47000000000E+01 0.  1.
         13    1    4    4    0    0  0.10067081950E+01  0.26123434559E+02 -0.26835616226E+02  0.37464617878E+02  0.00000000000E+00 0. -1.
        -14    1    4    4    0    0  0.12354417789E+03 -0.26230064366E+02 -0.24372551994E+03  0.27450557232E+03  0.00000000000E+00 0.  1.
<mgrwt>
<rscale>  2 0.21181506E+03</rscale>
<asrwt>0</asrwt>
<pdfrwt beam="1">  1       21 0.72465715E-01 0.21234852E+03</pdfrwt>
<pdfrwt beam="2">  1       21 0.49456414E-01 0.21234852E+03</pdfrwt>
<totfact> 0.65950373E+03</totfact>
</mgrwt>
</event>
<event>
12    1  0.1050690E-001  0.1983320E+03  0.7546771E-02  0.1151255E+00
         21   -1    0    0  503  502  0.00000000000E+00  0.00000000000E+00  0.17106705219E+04  0.17106705219E+04  0.00000000000E+00 0.  1.
         21   -1    0    0  501  503 -0.00000000000E+00 -0.00000000000E+00 -0.25206408249E+02  0.25206408249E+02  0.00000000000E+00 0.  1.
          6    2    1    2  501    0  0.51370314249E+02  0.80955659448E+02  0.58336899971E+03  0.61616147983E+03  0.17361696756E+03 0.  0.
         24    2    3    3    0    0  0.62486006756E+02  0.92104943769E+02  0.58371478692E+03  0.59972752931E+03  0.81008241818E+02 0.  0.
         -6    2    1    2    0  502 -0.51370314249E+02 -0.80955659448E+02  0.11020951140E+04  0.11197154504E+04  0.17307894592E+03 0.  0.
        -24    2    5    5    0    0 -0.21564151013E+02 -0.25206927751E+01  0.85056451477E+03  0.85451706479E+03  0.79171041056E+02 0.  0.
          5    1    3    3  501    0 -0.11115692506E+02 -0.11149284321E+02 -0.34578721244E+00  0.16433950516E+02  0.47000000000E+01 0. -1.
        -13    1    4    4    0    0  0.25861782032E+02  0.47137019654E+02  0.10958485919E+03  0.12206380198E+03  0.00000000000E+00 0.  1.
         14    1    4    4    0    0  0.36624224724E+02  0.44967924115E+02  0.47412992773E+03  0.47766372733E+03  0.00000000000E+00 0. -1.
         -5    1    5    5    0  502 -0.29806163236E+02 -0.78434966673E+02  0.25153059922E+03  0.26519838557E+03  0.47000000000E+01 0.  1.
         11    1    6    6    0    0 -0.19759820201E+02  0.34268317007E+02  0.28202340085E+03  0.28478407026E+03  0.00000000000E+00 0. -1.
        -12    1    6    6    0    0 -0.18043308118E+01 -0.36789009782E+02  0.56854111391E+03  0.56973299454E+03  0.00000000000E+00 0.  1.
<mgrwt>
<rscale>  2 0.19821419E+03</rscale>
<asrwt>0</asrwt>
<pdfrwt beam="1">  1       21 0.26317999E+00 0.19833199E+03</pdfrwt>
<pdfrwt beam="2">  1       21 0.38779103E-02 0.19833199E+03</pdfrwt>
<totfact> 0.22867727E+04</totfact>
</mgrwt>
</event>
<event>
12    1  0.1050690E-001  0.2128116E+03  0.7546771E-02  0.1139404E+00
         21   -1    0    0  503  502  0.00000000000E+00  0.00000000000E+00  0.30563820485E+03  0.30563820485E+03  0.00000000000E+00 0.  1.
         21   -1    0    0  501  503 -0.00000000000E+00 -0.00000000000E+00 -0.47292035947E+03  0.47292035947E+03  0.00000000000E+00 0.  1.
          6    2    1    2  501    0 -0.12333567137E+03  0.69894678027E+01 -0.40628617880E+03  0.45854029624E+03  0.17300347886E+03 0.  0.
         24    2    3    3    0    0 -0.67679189575E+02  0.25819931171E+02 -0.37765454219E+03  0.39301098271E+03  0.81163647943E+02 0.  0.
         -6    2    1    2    0  502  0.12333567137E+03 -0.69894678027E+01  0.23900402418E+03  0.32001826809E+03  0.17328654835E+03 0.  0.
        -24    2    5    5    0    0  0.29219582589E+02  0.43329681418E+02  0.66217034734E+02  0.11687475067E+03  0.80893549536E+02 0.  0.
          5    1    3    3  501    0 -0.55656481799E+02 -0.18830463369E+02 -0.28631636613E+02  0.65529313533E+02  0.47000000000E+01 0. -1.
        -11    1    4    4    0    0 -0.11208591283E+02  0.46320733969E+02 -0.19457641470E+03  0.20032779156E+03  0.00000000000E+00 0.  1.
         12    1    4    4    0    0 -0.56470598291E+02 -0.20500802797E+02 -0.18307812749E+03  0.19268319115E+03  0.00000000000E+00 0. -1.
         -5    1    5    5    0  502  0.94116088784E+02 -0.50319149221E+02  0.17278698945E+03  0.20314351742E+03  0.47000000000E+01 0.  1.
         13    1    6    6    0    0  0.45796333283E+02  0.49428986595E+02  0.71686213609E+02  0.98384155633E+02  0.00000000000E+00 0. -1.
        -14    1    6    6    0    0 -0.16576750694E+02 -0.60993051772E+01 -0.54691788754E+01  0.18490595036E+02  0.00000000000E+00 0.  1.
<mgrwt>
<rscale>  2 0.21275395E+03</rscale>
<asrwt>0</asrwt>
<pdfrwt beam="1">  1       21 0.47021262E-01 0.21281158E+03</pdfrwt>
<pdfrwt beam="2">  1       21 0.72756978E-01 0.21281158E+03</pdfrwt>
<totfact> 0.72576094E+03</totfact>
</mgrwt>
</event>
<event>
12    1  0.1050690E-001  0.2944515E+03  0.7546771E-02  0.1088109E+00
         21   -1    0    0  503  502  0.00000000000E+00  0.00000000000E+00  0.10978126446E+03  0.10978126446E+03  0.00000000000E+00 0. -1.
         21   -1    0    0  501  503 -0.00000000000E+00 -0.00000000000E+00 -0.79166326084E+03  0.79166326084E+03  0.00000000000E+00 0.  1.
          6    2    1    2  501    0 -0.23586119047E+03  0.35564845973E+02 -0.36977886467E+03  0.47269237232E+03  0.17264504236E+03 0.  0.
         24    2    3    3    0    0 -0.11741833407E+03  0.68711966616E+02 -0.27623441913E+03  0.31809581631E+03  0.79819136228E+02 0.  0.
         -6    2    1    2    0  502  0.23586119047E+03 -0.35564845973E+02 -0.31210313171E+03  0.42875215298E+03  0.17182748449E+03 0.  0.
        -24    2    5    5    0    0  0.10345868273E+03 -0.46613173445E+02 -0.74641720433E+02  0.15660788712E+03  0.77962535295E+02 0.  0.
          5    1    3    3  501    0 -0.11844285640E+03 -0.33147120643E+02 -0.93544445544E+02  0.15459655602E+03  0.47000000000E+01 0. -1.
        -11    1    4    4    0    0 -0.26414936349E+02  0.23066471261E+01 -0.13427172924E+03  0.13686477544E+03  0.00000000000E+00 0.  1.
         12    1    4    4    0    0 -0.91003397719E+02  0.66405319490E+02 -0.14196268990E+03  0.18123104087E+03  0.00000000000E+00 0. -1.
         -5    1    5    5    0  502  0.13240250774E+03  0.11048327472E+02 -0.23746141127E+03  0.27214426586E+03  0.47000000000E+01 0.  1.
         11    1    6    6    0    0  0.88011259970E+02 -0.58231149248E+02 -0.84236920518E+02  0.13502854292E+03  0.00000000000E+00 0. -1.
        -12    1    6    6    0    0  0.15447422758E+02  0.11617975803E+02  0.95952000856E+01  0.21579344205E+02  0.00000000000E+00 0.  1.
<mgrwt>
<rscale>  2 0.29433175E+03</rscale>
<asrwt>0</asrwt>
<pdfrwt beam="1">  1       21 0.16889426E-01 0.29445147E+03</pdfrwt>
<pdfrwt beam="2">  1       21 0.12179435E+00 0.29445147E+03</pdfrwt>
<totfact> 0.15184340E+04</totfact>
</mgrwt>
</event>
<event>
12    1  0.1050690E-001  0.2042841E+03  0.7546771E-02  0.1146667E+00
         21   -1    0    0  501  502  0.00000000000E+00  0.00000000000E+00  0.96797662121E+03  0.96797662121E+03  0.00000000000E+00 0. -1.
         21   -1    0    0  502  503 -0.00000000000E+00 -0.00000000000E+00 -0.59489160731E+02  0.59489160731E+02  0.00000000000E+00 0. -1.
         -6    2    1    2    0  503  0.96955365592E+00  0.10845589728E+03  0.18251214305E+03  0.27393921867E+03  0.17311381076E+03 0.  0.
        -24    2    3    3    0    0  0.48970367368E+01  0.76879757758E+02  0.25622712121E+02  0.11378660006E+03  0.79726964418E+02 0.  0.
          6    2    1    2  501    0 -0.96955365592E+00 -0.10845589728E+03  0.72597531743E+03  0.75352656327E+03  0.17028945461E+03 0.  0.
         24    2    5    5    0    0  0.49527397899E+02 -0.14411848567E+02  0.32723710605E+03  0.34072094748E+03  0.79661634144E+02 0.  0.
          5    1    5    5  501    0 -0.50496951555E+02 -0.94044048709E+02  0.39873821138E+03  0.41280561579E+03  0.47000000000E+01 0. -1.
        -13    1    6    6    0    0 -0.52967414861E+01  0.12102964534E+02  0.19142004589E+03  0.19187540538E+03  0.00000000000E+00 0.  1.
         14    1    6    6    0    0  0.54824139385E+02 -0.26514813101E+02  0.13581706016E+03  0.14884554210E+03  0.00000000000E+00 0. -1.
         -5    1    3    3    0  503 -0.39274830808E+01  0.31576139518E+02  0.15688943093E+03  0.16015261861E+03  0.47000000000E+01 0.  1.
         11    1    4    4    0    0 -0.34592252278E+02  0.45770698306E+02  0.27194237451E+02  0.63491001658E+02  0.00000000000E+00 0. -1.
        -12    1    4    4    0    0  0.39489289014E+02  0.31109059452E+02 -0.15715253298E+01  0.50295598403E+02  0.00000000000E+00 0.  1.
<mgrwt>
<rscale>  2 0.20368455E+03</rscale>
<asrwt>0</asrwt>
<pdfrwt beam="1">  1       21 0.14891947E+00 0.20428415E+03</pdfrwt>
<pdfrwt beam="2">  1       21 0.91521793E-02 0.20428415E+03</pdfrwt>
<totfact> 0.28683968E+04</totfact>
</mgrwt>
</event>
<event>
12    1  0.1050690E-001  0.1965240E+03  0.7546771E-02  0.1153142E+00
         21   -1    0    0  501  502  0.00000000000E+00  0.00000000000E+00  0.23683090802E+03  0.23683090802E+03  0.00000000000E+00 0.  1.
         21   -1    0    0  502  503 -0.00000000000E+00 -0.00000000000E+00 -0.42360498915E+03  0.42360498915E+03  0.00000000000E+00 0.  1.
         -6    2    1    2    0  503 -0.66777394918E+02  0.63886691607E+02 -0.35299773068E+03  0.40304127936E+03  0.17115532470E+03 0.  0.
        -24    2    3    3    0    0  0.25536669854E+02  0.29956198705E+02 -0.21999772670E+03  0.23755938923E+03  0.80535509639E+02 0.  0.
          6    2    1    2  501    0  0.66777394918E+02 -0.63886691607E+02  0.16622364955E+03  0.25739461781E+03  0.17343862826E+03 0.  0.
         24    2    5    5    0    0  0.87588089724E+02  0.93022015990E+00  0.14106748777E+03  0.18466745958E+03  0.80805295304E+02 0.  0.
          5    1    5    5  501    0 -0.20810694806E+02 -0.64816911767E+02  0.25156161780E+02  0.72727158235E+02  0.47000000000E+01 0. -1.
        -11    1    6    6    0    0 -0.14301904622E+02 -0.15021579889E+01  0.33645385501E+02  0.36589792565E+02  0.00000000000E+00 0.  1.
         12    1    6    6    0    0  0.10188999435E+03  0.24323781488E+01  0.10742210227E+03  0.14807766701E+03  0.00000000000E+00 0. -1.
         -5    1    3    3    0  503 -0.92314064771E+02  0.33930492903E+02 -0.13300000398E+03  0.16548189013E+03  0.47000000000E+01 0.  1.
         13    1    4    4    0    0  0.16367420470E+02 -0.27149425535E+02 -0.83387961348E+02  0.89210626371E+02  0.00000000000E+00 0. -1.
        -14    1    4    4    0    0  0.91692493835E+01  0.57105624239E+02 -0.13660976535E+03  0.14834876286E+03  0.00000000000E+00 0.  1.
<mgrwt>
<rscale>  2 0.19601904E+03</rscale>
<asrwt>0</asrwt>
<pdfrwt beam="1">  1       21 0.36435524E-01 0.19652401E+03</pdfrwt>
<pdfrwt beam="2">  1       21 0.65169998E-01 0.19652401E+03</pdfrwt>
<totfact> 0.15704782E+04</totfact>
</mgrwt>
</event>
<event>
11    1  0.1050690E-001  0.1761839E+03  0.7546771E-02  0.1172280E+00
         21   -1    0    0  501  502  0.00000000000E+00  0.00000000000E+00  0.16965308107E+03  0.16965308107E+03  0.00000000000E+00 0.  1.
         21   -1    0    0  502  503 -0.00000000000E+00 -0.00000000000E+00 -0.28880950078E+03  0.28880950078E+03  0.00000000000E+00 0.  1.
         -6    2    1    2    0  503  0.16799947841E+02 -0.16779609853E+01 -0.19999899352E+03  0.26461652156E+03  0.17244492534E+03 0.  0.
          6    2    1    2  501    0 -0.16799947841E+02  0.16779609853E+01  0.80842573810E+02  0.19384606029E+03  0.17537308673E+03 0.  0.
         24    2    4    4    0    0  0.60053824675E+02  0.70843300127E+01  0.64134292923E+02  0.11487145787E+03  0.73658636393E+02 0.  0.
          5    1    4    4  501    0 -0.76853772516E+02 -0.54063690274E+01  0.16708280887E+02  0.78974602413E+02  0.47000000000E+01 0. -1.
        -11    1    5    5    0    0 -0.39141481713E+01  0.21420164494E+02  0.38993233461E+02  0.44661126929E+02  0.00000000000E+00 0.  1.
         12    1    5    5    0    0  0.63967972846E+02 -0.14335834481E+02  0.25141059462E+02  0.70210330944E+02  0.00000000000E+00 0. -1.
         -5    1    3    3    0  503  0.27000824518E+02 -0.72524695074E+01 -0.56845818603E+02  0.63523066135E+02  0.47000000000E+01 0.  1.
         13    1    3    3    0    0  0.36225057271E+02  0.56743389992E+02 -0.44674833377E+02  0.80795469052E+02  0.00000000000E+00 0. -1.
        -14    1    3    3    0    0 -0.46425933948E+02 -0.51168881470E+02 -0.98478341535E+02  0.12029798637E+03  0.00000000000E+00 0.  1.
<mgrwt>
<rscale>  2 0.17545074E+03</rscale>
<asrwt>0</asrwt>
<pdfrwt beam="1">  1       21 0.26100474E-01 0.17618392E+03</pdfrwt>
<pdfrwt beam="2">  1       21 0.44432231E-01 0.17618392E+03</pdfrwt>
<totfact> 0.68324687E+04</totfact>
</mgrwt>
</event>
<event>
12    1  0.1050690E-001  0.1918181E+03  0.7546771E-02  0.1157255E+00
         21   -1    0    0  503  502  0.00000000000E+00  0.00000000000E+00  0.78836637451E+03  0.78836637451E+03  0.00000000000E+00 0.  1.
         21   -1    0    0  501  503 -0.00000000000E+00 -0.00000000000E+00 -0.48620556160E+02  0.48620556160E+02  0.00000000000E+00 0.  1.
          6    2    1    2  501    0 -0.80304400578E+02 -0.12279432717E+02  0.27500797671E+03  0.33421915214E+03  0.17167840045E+03 0.  0.
         24    2    3    3    0    0  0.21808203312E+02 -0.25619407427E+02  0.14589590649E+03  0.16900124913E+03  0.78382746240E+02 0.  0.
         -6    2    1    2    0  502  0.80304400578E+02  0.12279432717E+02  0.46473784163E+03  0.50276777852E+03  0.17376592432E+03 0.  0.
        -24    2    5    5    0    0  0.11559479632E+03 -0.22836924289E+02  0.32111177898E+03  0.35068521399E+03  0.77354138011E+02 0.  0.
          5    1    3    3  501    0 -0.10211260389E+03  0.13339974710E+02  0.12911207022E+03  0.16521790301E+03  0.47000000000E+01 0. -1.
        -13    1    4    4    0    0  0.12327701570E+02 -0.46854649906E+02  0.47336235288E+02  0.67735143131E+02  0.00000000000E+00 0.  1.
         14    1    4    4    0    0  0.94805017420E+01  0.21235242479E+02  0.98559671204E+02  0.10126610600E+03  0.00000000000E+00 0. -1.
         -5    1    5    5    0  502 -0.35290395739E+02  0.35116357007E+02  0.14362606266E+03  0.15208256453E+03  0.47000000000E+01 0.  1.
         13    1    6    6    0    0 -0.11427426072E+02  0.10569320218E+01  0.32061374544E+02  0.34053412599E+02  0.00000000000E+00 0. -1.
        -14    1    6    6    0    0  0.12702222239E+03 -0.23893856311E+02  0.28905040443E+03  0.31663180139E+03  0.00000000000E+00 0.  1.
<mgrwt>
<rscale>  2 0.19134408E+03</rscale>
<asrwt>0</asrwt>
<pdfrwt beam="1">  1       21 0.12128712E+00 0.19181808E+03</pdfrwt>
<pdfrwt beam="2">  1       21 0.74800862E-02 0.19181808E+03</pdfrwt>
<totfact> 0.69388459E+04</totfact>
</mgrwt>
</event>
<event>
12    1  0.1050690E-001  0.2098676E+03  0.7546771E-02  0.1141832E+00
         21   -1    0    0  501  502  0.00000000000E+00  0.00000000000E+00  0.42770359647E+03  0.42770359647E+03  0.00000000000E+00 0. -1.
         21   -1    0    0  502  503 -0.00000000000E+00 -0.00000000000E+00 -0.10820683971E+03  0.10820683971E+03  0.00000000000E+00 0.  1.
         -6    2    1    2    0  503 -0.42049138029E+02  0.11114708553E+03  0.98361313538E+02  0.23104112691E+03  0.17199781885E+03 0.  0.
        -24    2    3    3    0    0 -0.95165619699E+02  0.10920917815E+03  0.76813440282E+02  0.17349534555E+03  0.56720283451E+02 0.  0.
          6    2    1    2  501    0  0.42049138029E+02 -0.11114708553E+03  0.22113544322E+03  0.30486930927E+03  0.17298152171E+03 0.  0.
         24    2    5    5    0    0 -0.40065759907E+02 -0.34207272899E+02  0.11221454466E+03  0.14818988058E+03  0.81195652815E+02 0.  0.
          5    1    5    5  501    0  0.82114897936E+02 -0.76939812636E+02  0.10892089856E+03  0.15667942869E+03  0.47000000000E+01 0. -1.
        -13    1    6    6    0    0 -0.35888719985E+02  0.19334908795E+02  0.32810153292E+02  0.52329199108E+02  0.00000000000E+00 0.  1.
         14    1    6    6    0    0 -0.41770399222E+01 -0.53542181694E+02  0.79404391372E+02  0.95860681472E+02  0.00000000000E+00 0. -1.
         -5    1    3    3    0  503  0.53116481670E+02  0.19379073854E+01  0.21547873257E+02  0.57545781356E+02  0.47000000000E+01 0.  1.
         11    1    4    4    0    0 -0.38118511970E+02  0.63363213652E+02  0.66757116291E+02  0.99621435317E+02  0.00000000000E+00 0. -1.
        -12    1    4    4    0    0 -0.57047107728E+02  0.45845964498E+02  0.10056323991E+02  0.73873910233E+02  0.00000000000E+00 0.  1.
<mgrwt>
<rscale>  2 0.20966479E+03</rscale>
<asrwt>0</asrwt>
<pdfrwt beam="1">  1       21 0.65800553E-01 0.20986760E+03</pdfrwt>
<pdfrwt beam="2">  1       21 0.16647206E-01 0.20986760E+03</pdfrwt>
<totfact> 0.68272632E+04</totfact>
</mgrwt>
</event>
<event>
11    1  0.1050690E-001  0.2251894E+03  0.7546771E-02  0.1130128E+00
         21   -1    0    0  501  502  0.00000000000E+00  0.00000000000E+00  0.29824114897E+03  0.29824114897E+03  0.00000000000E+00 0.  1.
         21   -1    0    0  502  503 -0.00000000000E+00 -0.00000000000E+00 -0.17663657553E+03  0.17663657553E+03  0.00000000000E+00 0. -1.
         -6    2    1    2    0  503 -0.12663820447E+03 -0.68561888028E+02  0.14040804661E+02  0.22531763796E+03  0.17272210761E+03 0.  0.
        -24    2    3    3    0    0 -0.14749538527E+03 -0.21136310652E+02  0.28950385830E+02  0.17120116181E+03  0.79183840909E+02 0.  0.
          6    2    1    2  501    0  0.12663820447E+03  0.68561888028E+02  0.10756376877E+03  0.24956008654E+03  0.17312511406E+03 0.  0.
          5    1    5    5  501    0  0.68575905882E+02  0.45255237104E+02  0.85437964545E+02  0.11862726136E+03  0.47000000000E+01 0. -1.
        -13    1    5    5    0    0  0.18733033708E+02  0.59409600789E+02  0.40695579164E+02  0.74408046482E+02  0.00000000000E+00 0.  1.
         14    1    5    5    0    0  0.39329264884E+02 -0.36102949864E+02 -0.18569774938E+02  0.56524778694E+02  0.00000000000E+00 0. -1.
         -5    1    3    3    0  503  0.20857180796E+02 -0.47425577376E+02 -0.14909581169E+02  0.54116476150E+02  0.47000000000E+01 0.  1.
         11    1    4    4    0    0 -0.23915075753E+02  0.21754906299E+02  0.24056229697E+02  0.40297754076E+02  0.00000000000E+00 0. -1.
        -12    1    4    4    0    0 -0.12358030952E+03 -0.42891216951E+02  0.48941561325E+01  0.13090340773E+03  0.00000000000E+00 0.  1.
<mgrwt>
<rscale>  2 0.22511195E+03</rscale>
<asrwt>0</asrwt>
<pdfrwt beam="1">  1       21 0.45883254E-01 0.22518941E+03</pdfrwt>
<pdfrwt beam="2">  1       21 0.27174858E-01 0.22518941E+03</pdfrwt>
<totfact> 0.57911709E+04</totfact>
</mgrwt>
</event>
<event>
12    1  0.1050690E-001  0.2181218E+03  0.7546771E-02  0.1135324E+00
         21   -1    0    0  501  502  0.00000000000E+00  0.00000000000E+00  0.24195734662E+03  0.24195734662E+03  0.00000000000E+00 0.  1.
         21   -1    0    0  502  503 -0.00000000000E+00 -0.00000000000E+00 -0.45359982437E+03  0.45359982437E+03  0.00000000000E+00 0.  1.
         -6    2    1    2    0  503 -0.57366384080E+02 -0.11958087099E+03 -0.36767956931E+03  0.42751070693E+03  0.17316654447E+03 0.  0.
        -24    2    3    3    0    0 -0.71355323869E+02 -0.60715555581E+02 -0.12000293602E+03  0.17250752956E+03  0.81118322010E+02 0.  0.
          6    2    1    2  501    0  0.57366384080E+02  0.11958087099E+03  0.15603709157E+03  0.26804646405E+03  0.17294752446E+03 0.  0.
         24    2    5    5    0    0  0.77646536436E+02  0.53848187801E+02  0.15547231586E+03  0.19909373249E+03  0.80858279518E+02 0.  0.
          5    1    5    5  501    0 -0.20280152356E+02  0.65732683190E+02  0.56477570996E+00  0.68952731567E+02  0.47000000000E+01 0. -1.
        -11    1    6    6    0    0  0.17836103137E+02  0.52710297443E+02  0.11226833869E+03  0.12530236193E+03  0.00000000000E+00 0.  1.
         12    1    6    6    0    0  0.59810433299E+02  0.11378903573E+01  0.43203977165E+02  0.73791370558E+02  0.00000000000E+00 0. -1.
         -5    1    3    3    0  503  0.13988939789E+02 -0.58865315409E+02 -0.24767663329E+03  0.25500317738E+03  0.47000000000E+01 0.  1.
         13    1    4    4    0    0 -0.27373421217E+00  0.11494676161E+02  0.41778714956E+01  0.12233442717E+02  0.00000000000E+00 0. -1.
        -14    1    4    4    0    0 -0.71081589657E+02 -0.72210231743E+02 -0.12418080752E+03  0.16027408684E+03  0.00000000000E+00 0.  1.
<mgrwt>
<rscale>  2 0.21807837E+03</rscale>
<asrwt>0</asrwt>
<pdfrwt beam="1">  1       21 0.37224208E-01 0.21812184E+03</pdfrwt>
<pdfrwt beam="2">  1       21 0.69784588E-01 0.21812184E+03</pdfrwt>
<totfact> 0.12774218E+04</totfact>
</mgrwt>
</event>
<event>
12    1  0.1050690E-001  0.2003428E+03  0.7546771E-02  0.1149693E+00
         21   -1    0    0  501  502  0.00000000000E+00  0.00000000000E+00  0.58165636685E+03  0.58165636685E+03  0.00000000000E+00 0. -1.
         21   -1    0    0  502  503 -0.00000000000E+00 -0.00000000000E+00 -0.13006688584E+03  0.13006688584E+03  0.00000000000E+00 0. -1.
         -6    2    1    2    0  503  0.85613725469E+02  0.52331107543E+02 -0.18477947079E+02  0.20119308506E+03  0.17340406033E+03 0.  0.
        -24    2    3    3    0    0  0.11797780005E+03  0.65343033008E+02 -0.35831792594E+02  0.16195038532E+03  0.82192071868E+02 0.  0.
          6    2    1    2  501    0 -0.85613725469E+02 -0.52331107543E+02  0.47006742808E+03  0.51053016764E+03  0.17207385135E+03 0.  0.
         24    2    5    5    0    0 -0.97752327157E+02 -0.43225162891E+02  0.20359717517E+03  0.24358682240E+03  0.80366648168E+02 0.  0.
          5    1    5    5  501    0  0.12138601687E+02 -0.91059446521E+01  0.26647025292E+03  0.26694334524E+03  0.47000000000E+01 0. -1.
        -11    1    6    6    0    0 -0.68247376487E+02  0.39630792391E+01  0.65412490404E+02  0.94616088988E+02  0.00000000000E+00 0.  1.
         12    1    6    6    0    0 -0.29504950669E+02 -0.47188242130E+02  0.13818468476E+03  0.14897073341E+03  0.00000000000E+00 0. -1.
         -5    1    3    3    0  503 -0.32364074585E+02 -0.13011925464E+02  0.17353845515E+02  0.39242699731E+02  0.47000000000E+01 0.  1.
         13    1    4    4    0    0  0.45009696928E+02  0.65653935090E+02 -0.39554254981E+02  0.88886731841E+02  0.00000000000E+00 0. -1.
        -14    1    4    4    0    0  0.72968103127E+02 -0.31090208230E+00  0.37224623874E+01  0.73063653483E+02  0.00000000000E+00 0.  1.
<mgrwt>
<rscale>  2 0.20005458E+03</rscale>
<asrwt>0</asrwt>
<pdfrwt beam="1">  1       21 0.89485594E-01 0.20034276E+03</pdfrwt>
<pdfrwt beam="2">  1       21 0.20010290E-01 0.20034276E+03</pdfrwt>
<totfact> 0.24439352E+04</totfact>
</mgrwt>
</event>
<event>
12    1  0.1050690E-001  0.1906591E+03  0.7546771E-02  0.1157957E+00
         21   -1    0    0  501  502  0.00000000000E+00  0.00000000000E+00  0.84651668126E+03  0.84651668126E+03  0.00000000000E+00 0. -1.
         21   -1    0    0  502  503 -0.00000000000E+00 -0.00000000000E+00 -0.56158968728E+02  0.56158968728E+02  0.00000000000E+00 0. -1.
         -6    2    1    2    0  503 -0.79531457435E+02  0.28870473541E+02  0.17516683955E+03  0.25861764270E+03  0.17041392687E+03 0.  0.
        -24    2    3    3    0    0 -0.11511351655E+03  0.41856233757E+02  0.16233769851E+03  0.21835115839E+03  0.79502415146E+02 0.  0.
          6    2    1    2  501    0  0.79531457435E+02 -0.28870473541E+02  0.61519087298E+03  0.64405800729E+03  0.17085710285E+03 0.  0.
         24    2    5    5    0    0  0.33655555954E+02  0.20690441460E+02  0.25078228592E+03  0.27341452501E+03  0.10150348143E+03 0.  0.
          5    1    5    5  501    0  0.45875901481E+02 -0.49560915001E+02  0.36440858706E+03  0.37064348228E+03  0.47000000000E+01 0. -1.
        -11    1    6    6    0    0  0.68536586126E+02  0.33951034111E+01  0.13836720025E+03  0.15444828413E+03  0.00000000000E+00 0.  1.
         12    1    6    6    0    0 -0.34881030172E+02  0.17295338049E+02  0.11241508567E+03  0.11896624088E+03  0.00000000000E+00 0. -1.
         -5    1    3    3    0  503  0.35582059112E+02 -0.12985760216E+02  0.12829141042E+02  0.40266484313E+02  0.47000000000E+01 0.  1.
         11    1    4    4    0    0 -0.93595463564E+02 -0.37272461533E+01  0.87913172048E+02  0.12846294790E+03  0.00000000000E+00 0. -1.
        -12    1    4    4    0    0 -0.21518052983E+02  0.45583479910E+02  0.74424526465E+02  0.89888210486E+02  0.00000000000E+00 0.  1.
<mgrwt>
<rscale>  2 0.19055980E+03</rscale>
<asrwt>0</asrwt>
<pdfrwt beam="1">  1       21 0.13023333E+00 0.19065914E+03</pdfrwt>
<pdfrwt beam="2">  1       21 0.86398420E-02 0.19065914E+03</pdfrwt>
<totfact> 0.45199511E+04</totfact>
</mgrwt>
</event>
<event>
12    1  0.1050690E-001  0.1766823E+03  0.7546771E-02  0.1172225E+00
         21   -1    0    0  503  502  0.00000000000E+00  0.00000000000E+00  0.43864852606E+03  0.43864852606E+03  0.00000000000E+00 0. -1.
         21   -1    0    0  501  503 -0.00000000000E+00 -0.00000000000E+00 -0.73101310385E+02  0.73101310385E+02  0.00000000000E+00 0. -1.
          6    2    1    2  501    0 -0.36182258936E+02  0.10370869357E+02  0.24342979283E+03  0.30079014761E+03  0.17262658564E+03 0.  0.
         24    2    3    3    0    0 -0.13620417118E+01 -0.38003276678E+02  0.21933905937E+03  0.23633117639E+03  0.79351734522E+02 0.  0.
         -6    2    1    2    0  502  0.36182258936E+02 -0.10370869357E+02  0.12211742285E+03  0.21095968884E+03  0.16785295517E+03 0.  0.
        -24    2    5    5    0    0  0.67920228428E+02 -0.37198991247E+02  0.12684808724E+03  0.16887030755E+03  0.80186165622E+02 0.  0.
          5    1    3    3  501    0 -0.34820217225E+02  0.48374146035E+02  0.24090733455E+02  0.64458971219E+02  0.47000000000E+01 0. -1.
        -11    1    4    4    0    0  0.35990749505E+02 -0.27818983591E+02  0.15194320174E+03  0.15860632538E+03  0.00000000000E+00 0.  1.
         12    1    4    4    0    0 -0.37352791217E+02 -0.10184293087E+02  0.67395857637E+02  0.77724851007E+02  0.00000000000E+00 0. -1.
         -5    1    5    5    0  502 -0.31737969492E+02  0.26828121890E+02 -0.47306643888E+01  0.42089381288E+02  0.47000000000E+01 0.  1.
         11    1    6    6    0    0  0.57274689599E+02  0.88573303150E+01  0.96907266613E+02  0.11291528104E+03  0.00000000000E+00 0. -1.
        -12    1    6    6    0    0  0.10645538829E+02 -0.46056321562E+02  0.29940820628E+02  0.55955026518E+02  0.00000000000E+00 0.  1.
<mgrwt>
<rscale>  2 0.17550537E+03</rscale>
<asrwt>0</asrwt>
<pdfrwt beam="1">  1       21 0.67484387E-01 0.17668234E+03</pdfrwt>
<pdfrwt beam="2">  1       21 0.11246356E-01 0.17668234E+03</pdfrwt>
<totfact> 0.13304880E+05</totfact>
</mgrwt>
</event>
<event>
12    1  0.1050690E-001  0.2249193E+03  0.7546771E-02  0.1131825E+00
         21   -1    0    0  503  502  0.00000000000E+00  0.00000000000E+00  0.59708307704E+03  0.59708307704E+03  0.00000000000E+00 0.  1.
         21   -1    0    0  501  503 -0.00000000000E+00 -0.00000000000E+00 -0.19875414463E+03  0.19875414463E+03  0.00000000000E+00 0.  1.
          6    2    1    2  501    0  0.26754934025E+02 -0.14155503346E+03 -0.10789677311E+03  0.24189394096E+03  0.16160851164E+03 0.  0.
         24    2    3    3    0    0 -0.42986547664E+02 -0.63699379816E+02 -0.53251962254E+02  0.12385359859E+03  0.81231078608E+02 0.  0.
         -6    2    1    2    0  502 -0.26754934025E+02  0.14155503346E+03  0.50622570552E+03  0.55394328070E+03  0.17272822385E+03 0.  0.
        -24    2    5    5    0    0 -0.31979287682E+02  0.18749158736E+02  0.15016795653E+03  0.17723678042E+03  0.86534706170E+02 0.  0.
          5    1    3    3  501    0  0.69741481688E+02 -0.77855653641E+02 -0.54644810858E+02  0.11804034236E+03  0.47000000000E+01 0. -1.
        -13    1    4    4    0    0 -0.14266623289E+02 -0.78309320721E+02 -0.37771123486E+02  0.88105300756E+02  0.00000000000E+00 0.  1.
         14    1    4    4    0    0 -0.28719924375E+02  0.14609940905E+02 -0.15480838768E+02  0.35748297838E+02  0.00000000000E+00 0. -1.
         -5    1    5    5    0  502  0.52243536569E+01  0.12280587472E+03  0.35605774900E+03  0.37670650028E+03  0.47000000000E+01 0.  1.
         13    1    6    6    0    0 -0.21885901463E+02 -0.29373821873E+02  0.10211013371E+03  0.10848176575E+03  0.00000000000E+00 0. -1.
        -14    1    6    6    0    0 -0.10093386219E+02  0.48122980610E+02  0.48057822819E+02  0.68755014669E+02  0.00000000000E+00 0.  1.
<mgrwt>
<rscale>  2 0.22278351E+03</rscale>
<asrwt>0</asrwt>
<pdfrwt beam="1">  1       21 0.91858934E-01 0.22491930E+03</pdfrwt>
<pdfrwt beam="2">  1       21 0.30577561E-01 0.22491930E+03</pdfrwt>
<totfact> 0.10066914E+04</totfact>
</mgrwt>
</event>
<event>
12    1  0.1050690E-001  0.1921111E+03  0.7546771E-02  0.1157649E+00
         21   -1    0    0  501  502  0.00000000000E+00  0.00000000000E+00  0.62592106325E+02  0.62592106325E+02  0.00000000000E+00 0.  1.
         21   -1    0    0  502  503 -0.00000000000E+00 -0.00000000000E+00 -0.58645320903E+03  0.58645320903E+03  0.00000000000E+00 0.  1.
         -6    2    1    2    0  503 -0.66197891707E+02  0.17730052927E+02 -0.21989956916E+03  0.29199745192E+03  0.17947193588E+03 0.  0.
        -24    2    3    3    0    0 -0.44126028018E+02 -0.21319682145E+02 -0.34559962199E+02  0.10124916521E+03  0.81580434371E+02 0.  0.
          6    2    1    2  501    0  0.66197891707E+02 -0.17730052927E+02 -0.30396153355E+03  0.35704786343E+03  0.17433888627E+03 0.  0.
         24    2    5    5    0    0  0.60965850488E+02  0.46804996273E+02 -0.26044607109E+03  0.27889524158E+03  0.63583466603E+02 0.  0.
          5    1    5    5  501    0  0.52320412188E+01 -0.64535049200E+02 -0.43515462453E+02  0.78152621857E+02  0.47000000000E+01 0. -1.
        -13    1    6    6    0    0 -0.41578565169E+01  0.32228936192E+02 -0.72393633987E+02  0.79352569844E+02  0.00000000000E+00 0.  1.
         14    1    6    6    0    0  0.65123707005E+02  0.14576060081E+02 -0.18805243711E+03  0.19954267173E+03  0.00000000000E+00 0. -1.
         -5    1    3    3    0  503 -0.22071863688E+02  0.39049735072E+02 -0.18533960696E+03  0.19074828672E+03  0.47000000000E+01 0.  1.
         13    1    4    4    0    0 -0.44717862658E+01  0.25644917121E+02 -0.29843917084E+02  0.39601995322E+02  0.00000000000E+00 0. -1.
        -14    1    4    4    0    0 -0.39654241753E+02 -0.46964599266E+02 -0.47160451152E+01  0.61647169884E+02  0.00000000000E+00 0.  1.
<mgrwt>
<rscale>  2 0.19090320E+03</rscale>
<asrwt>0</asrwt>
<pdfrwt beam="1">  1       21 0.96295553E-02 0.19211114E+03</pdfrwt>
<pdfrwt beam="2">  1       21 0.90223566E-01 0.19211114E+03</pdfrwt>
<totfact> 0.90623623E+04</totfact>
</mgrwt>
</event>
<event>
12    1  0.1050690E-001  0.1779849E+03  0.7546771E-02  0.1170065E+00
         21   -1    0    0  501  502  0.00000000000E+00  0.00000000000E+00  0.66707412926E+02  0.66707412926E+02  0.00000000000E+00 0. -1.
         21   -1    0    0  502  503 -0.00000000000E+00 -0.00000000000E+00 -0.66212085180E+03  0.66212085180E+03  0.00000000000E+00 0. -1.
         -6    2    1    2    0  503  0.29834606693E+02  0.11677787224E+02 -0.49242452457E+03  0.52319430302E+03  0.17385019942E+03 0.  0.
        -24    2    3    3    0    0  0.28803656851E+02  0.67872932653E+02 -0.40528142029E+03  0.41939176041E+03  0.78740291052E+02 0.  0.
          6    2    1    2  501    0 -0.29834606693E+02 -0.11677787224E+02 -0.10298891430E+03  0.20563396171E+03  0.17507751217E+03 0.  0.
         24    2    5    5    0    0 -0.75205073979E+02  0.29488160965E+02 -0.48740817656E+02  0.12367018567E+03  0.79958068570E+02 0.  0.
          5    1    5    5  501    0  0.45370467286E+02 -0.41165948189E+02 -0.54248096645E+02  0.81963776034E+02  0.47000000000E+01 0. -1.
        -13    1    6    6    0    0 -0.21045133915E+02 -0.49104228940E+01 -0.55108801211E+02  0.59194508912E+02  0.00000000000E+00 0.  1.
         14    1    6    6    0    0 -0.54159940064E+02  0.34398583859E+02  0.63679835547E+01  0.64475676761E+02  0.00000000000E+00 0. -1.
         -5    1    3    3    0  503  0.10309498415E+01 -0.56195145429E+02 -0.87143104281E+02  0.10380254260E+03  0.47000000000E+01 0.  1.
         11    1    4    4    0    0  0.12569964442E+01  0.50705296124E+02 -0.97502778655E+02  0.10990631893E+03  0.00000000000E+00 0. -1.
        -12    1    4    4    0    0  0.27546660407E+02  0.17167636528E+02 -0.30777864164E+03  0.30948544148E+03  0.00000000000E+00 0.  1.
<mgrwt>
<rscale>  2 0.17768231E+03</rscale>
<asrwt>0</asrwt>
<pdfrwt beam="1">  1       21 0.10262679E-01 0.17798486E+03</pdfrwt>
<pdfrwt beam="2">  1       21 0.10186474E+00 0.17798486E+03</pdfrwt>
<totfact> 0.61319450E+04</totfact>
</mgrwt>
</event>
<event>
12    1  0.1050690E-001  0.1916450E+03  0.7546771E-02  0.1156997E+00
         21   -1    0    0  503  502  0.00000000000E+00  0.00000000000E+00  0.81641764593E+03  0.81641764593E+03  0.00000000000E+00 0. -1.
         21   -1    0    0  501  503 -0.00000000000E+00 -0.00000000000E+00 -0.71854568378E+02  0.71854568378E+02  0.00000000000E+00 0. -1.
          6    2    1    2  501    0 -0.53710708092E+02  0.63145142469E+02  0.10066720548E+03  0.21647565552E+03  0.17278794516E+03 0.  0.
         24    2    3    3    0    0 -0.68979612997E+02 -0.11381825814E+02  0.26083524733E+02  0.10983502587E+03  0.80595593411E+02 0.  0.
         -6    2    1    2    0  502  0.53710708092E+02 -0.63145142469E+02  0.64389587208E+03  0.67179655879E+03  0.17273266380E+03 0.  0.
        -24    2    5    5    0    0  0.10286072265E+03 -0.55653427014E+02  0.47726782010E+03  0.49784585475E+03  0.79926783908E+02 0.  0.
          5    1    3    3  501    0  0.15268904905E+02  0.74526968283E+02  0.74583680744E+02  0.10664062965E+03  0.47000000000E+01 0. -1.
        -11    1    4    4    0    0 -0.95904358508E+01 -0.35747909154E+02  0.26702156188E+02  0.45638740274E+02  0.00000000000E+00 0.  1.
         12    1    4    4    0    0 -0.59389177147E+02  0.24366083340E+02 -0.61863145552E+00  0.64196285596E+02  0.00000000000E+00 0. -1.
         -5    1    5    5    0  502 -0.49150014555E+02 -0.74917154553E+01  0.16662805198E+03  0.17395070404E+03  0.47000000000E+01 0.  1.
         11    1    6    6    0    0  0.46760059863E+02 -0.45120035462E+02  0.37622001603E+03  0.38179028439E+03  0.00000000000E+00 0. -1.
        -12    1    6    6    0    0  0.56100662784E+02 -0.10533391552E+02  0.10104780407E+03  0.11605557035E+03  0.00000000000E+00 0.  1.
<mgrwt>
<rscale>  2 0.19163258E+03</rscale>
<asrwt>0</asrwt>
<pdfrwt beam="1">  1       21 0.12560271E+00 0.19164504E+03</pdfrwt>
<pdfrwt beam="2">  1       21 0.11054550E-01 0.19164504E+03</pdfrwt>
<totfact> 0.32037605E+04</totfact>
</mgrwt>
</event>
<event>
12    1  0.1050690E-001  0.2134804E+03  0.7546771E-02  0.1138877E+00
         21   -1    0    0  503  502  0.00000000000E+00  0.00000000000E+00  0.50636831862E+03  0.50636831862E+03  0.00000000000E+00 0. -1.
         21   -1    0    0  501  503 -0.00000000000E+00 -0.00000000000E+00 -0.95345466329E+02  0.95345466329E+02  0.00000000000E+00 0.  1.
          6    2    1    2  501    0 -0.10839224999E+03  0.62838660456E+02  0.13365781780E+03  0.25170632318E+03  0.17260962825E+03 0.  0.
         24    2    3    3    0    0 -0.13065321266E+03  0.51086606953E+02  0.57825672209E+02  0.17166717322E+03  0.80285158072E+02 0.  0.
         -6    2    1    2    0  502  0.10839224999E+03 -0.62838660456E+02  0.27736503449E+03  0.35000746177E+03  0.17284757398E+03 0.  0.
        -24    2    5    5    0    0  0.54279059042E+02 -0.10032557526E+03  0.14321139661E+03  0.20049895107E+03  0.81724463645E+02 0.  0.
          5    1    3    3  501    0  0.22260962675E+02  0.11752053503E+02  0.75832145593E+02  0.80039149958E+02  0.47000000000E+01 0. -1.
        -11    1    4    4    0    0 -0.96828748893E+02  0.60380179091E+02  0.70771550864E+02  0.13427652457E+03  0.00000000000E+00 0.  1.
         12    1    4    4    0    0 -0.33824463771E+02 -0.92935721380E+01 -0.12945878655E+02  0.37390648652E+02  0.00000000000E+00 0. -1.
         -5    1    5    5    0  502  0.54113190947E+02  0.37486914803E+02  0.13415363788E+03  0.14950851070E+03  0.47000000000E+01 0.  1.
         13    1    6    6    0    0  0.50684857215E+02 -0.43566322638E+02  0.12328524223E+03  0.14023633684E+03  0.00000000000E+00 0. -1.
        -14    1    6    6    0    0  0.35942018271E+01 -0.56759252621E+02  0.19926154382E+02  0.60262614226E+02  0.00000000000E+00 0.  1.
<mgrwt>
<rscale>  2 0.21343218E+03</rscale>
<asrwt>0</asrwt>
<pdfrwt beam="1">  1       21 0.77902817E-01 0.21348035E+03</pdfrwt>
<pdfrwt beam="2">  1       21 0.14668534E-01 0.21348035E+03</pdfrwt>
<totfact> 0.59076475E+04</totfact>
</mgrwt>
</event>
<event>
12    1  0.1050690E-001  0.1885811E+03  0.7546771E-02  0.1160097E+00
         21   -1    0    0  503  502  0.00000000000E+00  0.00000000000E+00  0.17439087062E+04  0.17439087062E+04  0.00000000000E+00 0.  1.
         21   -1    0    0  501  503 -0.00000000000E+00 -0.00000000000E+00 -0.20313551482E+02  0.20313551482E+02  0.00000000000E+00 0. -1.
          6    2    1    2  501    0  0.58729633749E+02  0.42665216255E+02  0.80798098531E+03  0.82969638423E+03  0.17404978260E+03 0.  0.
         24    2    3    3    0    0 -0.92007910757E+01  0.36684248796E+02  0.66609620701E+03  0.67220449587E+03  0.82123922192E+02 0.  0.
         -6    2    1    2    0  502 -0.58729633749E+02 -0.42665216255E+02  0.91561416944E+03  0.93452587348E+03  0.17239434554E+03 0.  0.
        -24    2    5    5    0    0 -0.38997316351E+02 -0.44448266812E+02  0.90677330514E+03  0.91232689827E+03  0.81277938452E+02 0.  0.
          5    1    3    3  501    0  0.67930424824E+02  0.59809674585E+01  0.14188477830E+03  0.15749188836E+03  0.47000000000E+01 0. -1.
        -13    1    4    4    0    0  0.26808573396E+02  0.45975386490E+02  0.39553059703E+03  0.39909508761E+03  0.00000000000E+00 0.  1.
         14    1    4    4    0    0 -0.36009364472E+02 -0.92911376938E+01  0.27056560999E+03  0.27310940826E+03  0.00000000000E+00 0. -1.
         -5    1    5    5    0  502 -0.19732317397E+02  0.17830505573E+01  0.88408642980E+01  0.22198975217E+02  0.47000000000E+01 0.  1.
         13    1    6    6    0    0  0.13452685324E+02 -0.51052854348E+01  0.31839412453E+02  0.34939760548E+02  0.00000000000E+00 0. -1.
        -14    1    6    6    0    0 -0.52450001676E+02 -0.39342981377E+02  0.87493389269E+03  0.87738713772E+03  0.00000000000E+00 0.  1.
<mgrwt>
<rscale>  2 0.18819820E+03</rscale>
<asrwt>0</asrwt>
<pdfrwt beam="1">  1       21 0.26829353E+00 0.18858106E+03</pdfrwt>
<pdfrwt beam="2">  1       21 0.31251631E-02 0.18858106E+03</pdfrwt>
<totfact> 0.30861418E+04</totfact>
</mgrwt>
</event>
<event>
12    1  0.1050690E-001  0.1809364E+03  0.7546771E-02  0.1167814E+00
         21   -1    0    0  503  502  0.00000000000E+00  0.00000000000E+00  0.52299720541E+02  0.52299720541E+02  0.00000000000E+00 0. -1.
         21   -1    0    0  501  503 -0.00000000000E+00 -0.00000000000E+00 -0.86039088834E+03  0.86039088834E+03  0.00000000000E+00 0. -1.
          6    2    1    2  501    0 -0.35713877730E+02  0.40376402203E+02 -0.64570147069E+03  0.66956844048E+03  0.16877728612E+03 0.  0.
         24    2    3    3    0    0 -0.72126827306E+02  0.42157798000E+02 -0.59733933363E+03  0.60882255527E+03  0.82891888388E+02 0.  0.
         -6    2    1    2    0  502  0.35713877730E+02 -0.40376402203E+02 -0.16238969711E+03  0.24312216840E+03  0.17272012079E+03 0.  0.
        -24    2    5    5    0    0  0.38945648252E+02  0.16858121595E+01 -0.17638936222E+03  0.19842591754E+03  0.82097698924E+02 0.  0.
          5    1    3    3  501    0  0.36412949576E+02 -0.17813957970E+01 -0.48362137067E+02  0.60745885206E+02  0.47000000000E+01 0. -1.
        -13    1    4    4    0    0  0.35689187766E+01  0.34273060206E+02 -0.29693757295E+03  0.29893026288E+03  0.00000000000E+00 0.  1.
         14    1    4    4    0    0 -0.75695746082E+02  0.78847377944E+01 -0.30040176068E+03  0.30989229239E+03  0.00000000000E+00 0. -1.
         -5    1    5    5    0  502 -0.32317705228E+01 -0.42062214363E+02  0.13999665111E+02  0.44696250861E+02  0.47000000000E+01 0.  1.
         13    1    6    6    0    0  0.37065866859E+02 -0.87568659645E+01 -0.22632535608E+02  0.44303418102E+02  0.00000000000E+00 0. -1.
        -14    1    6    6    0    0  0.18797813934E+01  0.10442678124E+02 -0.15375682661E+03  0.15412249944E+03  0.00000000000E+00 0.  1.
<mgrwt>
<rscale>  2 0.17998899E+03</rscale>
<asrwt>0</asrwt>
<pdfrwt beam="1">  1       21 0.80461100E-02 0.18093638E+03</pdfrwt>
<pdfrwt beam="2">  1       21 0.13236784E+00 0.18093638E+03</pdfrwt>
<totfact> 0.49373352E+04</totfact>
</mgrwt>
</event>
<event>
12    1  0.1050690E-001  0.1843959E+03  0.7546771E-02  0.1163698E+00
         21   -1    0    0  503  502  0.00000000000E+00  0.00000000000E+00  0.11541979387E+03  0.11541979387E+03  0.00000000000E+00 0. -1.
         21   -1    0    0  501  503 -0.00000000000E+00 -0.00000000000E+00 -0.71059097665E+03  0.71059097665E+03  0.00000000000E+00 0. -1.
          6    2    1    2  501    0 -0.59093804536E+02 -0.48654275085E+01 -0.61368441700E+03  0.64068784663E+03  0.17423146396E+03 0.  0.
         24    2    3    3    0    0  0.10650953931E+02 -0.55907226469E+02 -0.36115518404E+03  0.37373710198E+03  0.77506732867E+02 0.  0.
         -6    2    1    2    0  502  0.59093804536E+02  0.48654275085E+01  0.18513234217E+02  0.18532292390E+03  0.17460268085E+03 0.  0.
        -24    2    5    5    0    0  0.13199317772E+02 -0.40292492969E+02 -0.37777095964E+02  0.99671111487E+02  0.81911626197E+02 0.  0.
          5    1    3    3  501    0 -0.69744758467E+02  0.51041798960E+02 -0.25252923295E+03  0.26695074465E+03  0.47000000000E+01 0. -1.
        -13    1    4    4    0    0 -0.12777318687E+02 -0.36469795367E+02 -0.62135790532E+02  0.73172141639E+02  0.00000000000E+00 0.  1.
         14    1    4    4    0    0  0.23428272619E+02 -0.19437431102E+02 -0.29901939351E+03  0.30056496034E+03  0.00000000000E+00 0. -1.
         -5    1    5    5    0  502  0.45894486764E+02  0.45157920477E+02  0.56290330182E+02  0.85651812410E+02  0.47000000000E+01 0.  1.
         11    1    6    6    0    0  0.43404439344E+02 -0.21974039794E+02 -0.97685423642E+00  0.48659613889E+02  0.00000000000E+00 0. -1.
        -12    1    6    6    0    0 -0.30205121573E+02 -0.18318453175E+02 -0.36800241728E+02  0.51011497598E+02  0.00000000000E+00 0.  1.
<mgrwt>
<rscale>  2 0.18430797E+03</rscale>
<asrwt>0</asrwt>
<pdfrwt beam="1">  1       21 0.17756891E-01 0.18439590E+03</pdfrwt>
<pdfrwt beam="2">  1       21 0.10932169E+00 0.18439590E+03</pdfrwt>
<totfact> 0.19185672E+04</totfact>
</mgrwt>
</event>
<event>
12    1  0.1050690E-001  0.1804497E+03  0.7546771E-02  0.1167478E+00
         21   -1    0    0  501  502  0.00000000000E+00  0.00000000000E+00  0.49698849754E+02  0.49698849754E+02  0.00000000000E+00 0.  1.
         21   -1    0    0  502  503 -0.00000000000E+00 -0.00000000000E+00 -0.65409625747E+03  0.65409625747E+03  0.00000000000E+00 0.  1.
         -6    2    1    2    0  503 -0.99741854364E+01 -0.47623958204E+02 -0.29161724242E+03  0.34269467680E+03  0.17329598859E+03 0.  0.
        -24    2    3    3    0    0 -0.47021603438E+02 -0.84337273411E+02 -0.19527956720E+03  0.23304333681E+03  0.82772462756E+02 0.  0.
          6    2    1    2  501    0  0.99741854364E+01  0.47623958204E+02 -0.31278016530E+03  0.36110043043E+03  0.17376582886E+03 0.  0.
         24    2    5    5    0    0 -0.16739273064E+02  0.68380364443E+02 -0.30857078456E+03  0.32668755273E+03  0.80949061288E+02 0.  0.
          5    1    5    5  501    0  0.26713458501E+02 -0.20756406239E+02 -0.42093807417E+01  0.34412877695E+02  0.47000000000E+01 0. -1.
        -13    1    6    6    0    0 -0.33489793645E+02  0.37668676768E+02 -0.74075963221E+02  0.89597677509E+02  0.00000000000E+00 0.  1.
         14    1    6    6    0    0  0.16750520581E+02  0.30711687675E+02 -0.23449482134E+03  0.23708987522E+03  0.00000000000E+00 0. -1.
         -5    1    3    3    0  503  0.37047418002E+02  0.36713315207E+02 -0.96337675218E+02  0.10965133999E+03  0.47000000000E+01 0.  1.
         13    1    4    4    0    0 -0.68653542023E+02 -0.44394184235E+02 -0.12540285231E+03  0.14969979223E+03  0.00000000000E+00 0. -1.
        -14    1    4    4    0    0  0.21631938585E+02 -0.39943089176E+02 -0.69876714883E+02  0.83343544577E+02  0.00000000000E+00 0.  1.
<mgrwt>
<rscale>  2 0.18033648E+03</rscale>
<asrwt>0</asrwt>
<pdfrwt beam="1">  1       21 0.76459777E-02 0.18044969E+03</pdfrwt>
<pdfrwt beam="2">  1       21 0.10063018E+00 0.18044969E+03</pdfrwt>
<totfact> 0.10552182E+05</totfact>
</mgrwt>
</event>
<event>
12    1  0.1050690E-001  0.1906139E+03  0.7546771E-02  0.1159014E+00
         21   -1    0    0  503  502  0.00000000000E+00  0.00000000000E+00  0.72943739580E+02  0.72943739580E+02  0.00000000000E+00 0.  1.
         21   -1    0    0  501  503 -0.00000000000E+00 -0.00000000000E+00 -0.84445742559E+03  0.84445742559E+03  0.00000000000E+00 0.  1.
          6    2    1    2  501    0 -0.32830938430E+02 -0.71565676371E+02 -0.68194455677E+03  0.70679180590E+03  0.16824613467E+03 0.  0.
         24    2    3    3    0    0  0.10159725880E+02  0.13557036377E+02 -0.41886967983E+03  0.42692656276E+03  0.80792747460E+02 0.  0.
         -6    2    1    2    0  502  0.32830938430E+02  0.71565676371E+02 -0.89569129235E+02  0.21060935926E+03  0.17359192592E+03 0.  0.
        -24    2    5    5    0    0 -0.16193761036E+02  0.93279213292E+02 -0.25298051682E+02  0.12677762152E+03  0.80432110317E+02 0.  0.
          5    1    3    3  501    0 -0.42990664311E+02 -0.85122712748E+02 -0.26307487695E+03  0.27986524315E+03  0.47000000000E+01 0. -1.
        -13    1    4    4    0    0 -0.21833548221E+02 -0.67303487368E+01 -0.32353556858E+03  0.32434127946E+03  0.00000000000E+00 0.  1.
         14    1    4    4    0    0  0.31993274101E+02  0.20287385114E+02 -0.95334111244E+02  0.10258528330E+03  0.00000000000E+00 0. -1.
         -5    1    5    5    0  502  0.49024699466E+02 -0.21713536921E+02 -0.64271077553E+02  0.83831737744E+02  0.47000000000E+01 0.  1.
         13    1    6    6    0    0 -0.32417662728E+02  0.46382319784E+01  0.14447975459E+01  0.32779650587E+02  0.00000000000E+00 0. -1.
        -14    1    6    6    0    0  0.16223901692E+02  0.88640981314E+02 -0.26742849228E+02  0.93997970931E+02  0.00000000000E+00 0.  1.
<mgrwt>
<rscale>  2 0.18938835E+03</rscale>
<asrwt>0</asrwt>
<pdfrwt beam="1">  1       21 0.11222113E-01 0.19061394E+03</pdfrwt>
<pdfrwt beam="2">  1       21 0.12991654E+00 0.19061394E+03</pdfrwt>
<totfact> 0.28670409E+04</totfact>
</mgrwt>
</event>
<event>
12    1  0.1050690E-001  0.2339788E+03  0.7546771E-02  0.1124094E+00
         21   -1    0    0  503  502  0.00000000000E+00  0.00000000000E+00  0.57956826794E+03  0.57956826794E+03  0.00000000000E+00 0.  1.
         21   -1    0    0  501  503 -0.00000000000E+00 -0.00000000000E+00 -0.11589673607E+03  0.11589673607E+03  0.00000000000E+00 0. -1.
          6    2    1    2  501    0  0.98282706192E+02 -0.12185215156E+03  0.79950403655E+02  0.24603427777E+03  0.17214343327E+03 0.  0.
         24    2    3    3    0    0  0.91059847114E+01 -0.97317369455E+02  0.92524772581E+02  0.15257493933E+03  0.71865772216E+02 0.  0.
         -6    2    1    2    0  502 -0.98282706192E+02  0.12185215156E+03  0.38372112821E+03  0.44943072625E+03  0.17389259985E+03 0.  0.
        -24    2    5    5    0    0 -0.18899601021E+02  0.12916730160E+03  0.26120296263E+03  0.30318442815E+03  0.81562387584E+02 0.  0.
          5    1    3    3  501    0  0.89176721481E+02 -0.24534782104E+02 -0.12574368925E+02  0.93459338436E+02  0.47000000000E+01 0. -1.
        -13    1    4    4    0    0 -0.22898909221E+02 -0.25223404024E+02  0.44738336243E+01  0.34359792510E+02  0.00000000000E+00 0.  1.
         14    1    4    4    0    0  0.32004893932E+02 -0.72093965431E+02  0.88050938957E+02  0.11821514682E+03  0.00000000000E+00 0. -1.
         -5    1    5    5    0  502 -0.79383105171E+02 -0.73151500455E+01  0.12251816559E+03  0.14624629809E+03  0.47000000000E+01 0.  1.
         13    1    6    6    0    0 -0.38663515986E+01  0.10656697674E+03  0.12501324208E+03  0.16431609751E+03  0.00000000000E+00 0. -1.
        -14    1    6    6    0    0 -0.15033249422E+02  0.22600324859E+02  0.13618972055E+03  0.13886833064E+03  0.00000000000E+00 0.  1.
<mgrwt>
<rscale>  2 0.23365385E+03</rscale>
<asrwt>0</asrwt>
<pdfrwt beam="1">  1       21 0.89164347E-01 0.23397879E+03</pdfrwt>
<pdfrwt beam="2">  1       21 0.17830267E-01 0.23397879E+03</pdfrwt>
<totfact> 0.30003152E+04</totfact>
</mgrwt>
</event>
<event>
12    1  0.1050690E-001  0.1885034E+03  0.7546771E-02  0.1159888E+00
         21   -1    0    0  501  502  0.00000000000E+00  0.00000000000E+00  0.19219195692E+03  0.19219195692E+03  0.00000000000E+00 0. -1.
         21   -1    0    0  502  503 -0.00000000000E+00 -0.00000000000E+00 -0.36575184073E+03  0.36575184073E+03  0.00000000000E+00 0.  1.
         -6    2    1    2    0  503 -0.10165685686E+01  0.75536691034E+02 -0.28308302749E+03  0.33993267587E+03  0.17236994683E+03 0.  0.
        -24    2    3    3    0    0  0.53087225888E+02  0.56714105157E+01 -0.11329873946E+03  0.14847204687E+03  0.79730332307E+02 0.  0.
          6    2    1    2  501    0  0.10165685686E+01 -0.75536691034E+02  0.10952314367E+03  0.21801112178E+03  0.17270409699E+03 0.  0.
         24    2    5    5    0    0  0.19651238873E+02 -0.27846804919E+02 -0.10849252906E+02  0.87117347929E+02  0.79436202629E+02 0.  0.
          5    1    5    5  501    0 -0.18634670304E+02 -0.47689886115E+02  0.12037239658E+03  0.13089377385E+03  0.47000000000E+01 0. -1.
        -13    1    6    6    0    0  0.42804032419E+02 -0.19751191882E+02  0.16902838058E+02  0.50079943156E+02  0.00000000000E+00 0.  1.
         14    1    6    6    0    0 -0.23152793546E+02 -0.80956130366E+01 -0.27752090964E+02  0.37037404773E+02  0.00000000000E+00 0. -1.
         -5    1    3    3    0  503 -0.54103794457E+02  0.69865280518E+02 -0.16978428803E+03  0.19146062900E+03  0.47000000000E+01 0.  1.
         11    1    4    4    0    0  0.44121697185E+02 -0.51046109727E+01 -0.11727660109E+02  0.45938210972E+02  0.00000000000E+00 0. -1.
        -12    1    4    4    0    0  0.89655287034E+01  0.10776021488E+02 -0.10157107935E+03  0.10253383590E+03  0.00000000000E+00 0.  1.
<mgrwt>
<rscale>  2 0.18842683E+03</rscale>
<asrwt>0</asrwt>
<pdfrwt beam="1">  1       21 0.29567994E-01 0.18850340E+03</pdfrwt>
<pdfrwt beam="2">  1       21 0.56269514E-01 0.18850340E+03</pdfrwt>
<totfact> 0.32648180E+04</totfact>
</mgrwt>
</event>
<event>
12    1  0.1050690E-001  0.1840187E+03  0.7546771E-02  0.1164137E+00
         21   -1    0    0  503  502  0.00000000000E+00  0.00000000000E+00  0.32182190229E+03  0.32182190229E+03  0.00000000000E+00 0. -1.
         21   -1    0    0  501  503 -0.00000000000E+00 -0.00000000000E+00 -0.10482671800E+03  0.10482671800E+03  0.00000000000E+00 0. -1.
          6    2    1    2  501    0 -0.62897933775E+02  0.58203976804E+01  0.10624293196E+03  0.21187211723E+03  0.17208197572E+03 0.  0.
         24    2    3    3    0    0  0.16646703949E+02 -0.33393807424E+02  0.26326542414E+02  0.92399013185E+02  0.80325784623E+02 0.  0.
         -6    2    1    2    0  502  0.62897933775E+02 -0.58203976804E+01  0.11075225233E+03  0.21477650306E+03  0.17283766305E+03 0.  0.
        -24    2    5    5    0    0  0.22635786214E+02 -0.49557181136E+02  0.12060684338E+03  0.15433521156E+03  0.79404369134E+02 0.  0.
          5    1    3    3  501    0 -0.79544637724E+02  0.39214205105E+02  0.79916389546E+02  0.11947310405E+03  0.47000000000E+01 0. -1.
        -11    1    4    4    0    0  0.24370835712E+02  0.76316972820E+01  0.40869335017E+02  0.48192146471E+02  0.00000000000E+00 0.  1.
         12    1    4    4    0    0 -0.77241317633E+01 -0.41025504706E+02 -0.14542792604E+02  0.44206866714E+02  0.00000000000E+00 0. -1.
         -5    1    5    5    0  502  0.40262147560E+02  0.43736783455E+02 -0.98545910485E+01  0.60441291498E+02  0.47000000000E+01 0.  1.
         13    1    6    6    0    0  0.99699337342E+01 -0.50624022652E+02  0.24016387932E+02  0.56912021028E+02  0.00000000000E+00 0. -1.
        -14    1    6    6    0    0  0.12665852480E+02  0.10668415168E+01  0.96590455447E+02  0.97423190532E+02  0.00000000000E+00 0.  1.
<mgrwt>
<rscale>  2 0.18384105E+03</rscale>
<asrwt>0</asrwt>
<pdfrwt beam="1">  1       21 0.49511061E-01 0.18401871E+03</pdfrwt>
<pdfrwt beam="2">  1       21 0.16127188E-01 0.18401871E+03</pdfrwt>
<totfact> 0.13405060E+05</totfact>
</mgrwt>
</event>
<event>
12    1  0.1050690E-001  0.2018326E+03  0.7546771E-02  0.1148404E+00
         21   -1    0    0  503  502  0.00000000000E+00  0.00000000000E+00  0.10542673986E+03  0.10542673986E+03  0.00000000000E+00 0. -1.
         21   -1    0    0  501  503 -0.00000000000E+00 -0.00000000000E+00 -0.41848785757E+03  0.41848785757E+03  0.00000000000E+00 0. -1.
          6    2    1    2  501    0 -0.10221978310E+03  0.20980251036E+02 -0.23148317238E+03  0.30711701814E+03  0.17276385254E+03 0.  0.
         24    2    3    3    0    0 -0.12506868109E+03  0.52242282925E+02 -0.20942886621E+03  0.26230776465E+03  0.81077014512E+02 0.  0.
         -6    2    1    2    0  502  0.10221978310E+03 -0.20980251036E+02 -0.81577945338E+02  0.21679757929E+03  0.17163092446E+03 0.  0.
        -24    2    5    5    0    0  0.81496057911E+02  0.10316619747E+02  0.13025191403E+02  0.11491131728E+03  0.79290069550E+02 0.  0.
          5    1    3    3  501    0  0.22848897988E+02 -0.31262031889E+02 -0.22054306173E+02  0.44809253485E+02  0.47000000000E+01 0. -1.
        -13    1    4    4    0    0 -0.10014033955E+02  0.34897490070E+02 -0.24429076529E+02  0.43759518613E+02  0.00000000000E+00 0.  1.
         14    1    4    4    0    0 -0.11505464713E+03  0.17344792855E+02 -0.18499978968E+03  0.21854824604E+03  0.00000000000E+00 0. -1.
         -5    1    5    5    0  502  0.20723725186E+02 -0.31296870783E+02 -0.94603136741E+02  0.10188626202E+03  0.47000000000E+01 0.  1.
         13    1    6    6    0    0  0.59903950263E+02  0.42832164490E+02 -0.37757737469E+00  0.73642515823E+02  0.00000000000E+00 0. -1.
        -14    1    6    6    0    0  0.21592107647E+02 -0.32515544743E+02  0.13402768777E+02  0.41268801454E+02  0.00000000000E+00 0.  1.
<mgrwt>
<rscale>  2 0.20158995E+03</rscale>
<asrwt>0</asrwt>
<pdfrwt beam="1">  1       21 0.16219498E-01 0.20183261E+03</pdfrwt>
<pdfrwt beam="2">  1       21 0.64382748E-01 0.20183261E+03</pdfrwt>
<totfact> 0.75367981E+04</totfact>
</mgrwt>
</event>
<event>
12    1  0.1050690E-001  0.1812981E+03  0.7546771E-02  0.1166618E+00
         21   -1    0    0  501  502  0.00000000000E+00  0.00000000000E+00  0.28752405821E+03  0.28752405821E+03  0.00000000000E+00 0. -1.
         21   -1    0    0  502  503 -0.00000000000E+00 -0.00000000000E+00 -0.11814942544E+03  0.11814942544E+03  0.00000000000E+00 0. -1.
         -6    2    1    2    0  503  0.48938544327E+02  0.23291580521E+02  0.47407887465E+02  0.18739395218E+03  0.17300724458E+03 0.  0.
        -24    2    3    3    0    0  0.92067266238E+02  0.34082238892E+02  0.61692868899E+02  0.14046128066E+03  0.79280393361E+02 0.  0.
          6    2    1    2  501    0 -0.48938544327E+02 -0.23291580521E+02  0.12196674530E+03  0.21827953146E+03  0.17272112799E+03 0.  0.
         24    2    5    5    0    0  0.40953442664E+02 -0.10858837833E+02  0.23025936062E+02  0.83942209216E+02  0.68709547601E+02 0.  0.
          5    1    5    5  501    0 -0.89891986991E+02 -0.12432742688E+02  0.98940809237E+02  0.13433732225E+03  0.47000000000E+01 0. -1.
        -13    1    6    6    0    0  0.51696110251E+02  0.12817446340E+02  0.78473393224E+01  0.53836376923E+02  0.00000000000E+00 0.  1.
         14    1    6    6    0    0 -0.10742667587E+02 -0.23676284172E+02  0.15178596739E+02  0.30105832293E+02  0.00000000000E+00 0. -1.
         -5    1    3    3    0  503 -0.43128721911E+02 -0.10790658371E+02 -0.14284981434E+02  0.46932671523E+02  0.47000000000E+01 0.  1.
         11    1    4    4    0    0  0.91631494126E+02  0.14515645920E+02  0.20728320241E+02  0.95061548232E+02  0.00000000000E+00 0. -1.
        -12    1    4    4    0    0  0.43577211197E+00  0.19566592971E+02  0.40964548658E+02  0.45399732428E+02  0.00000000000E+00 0.  1.
<mgrwt>
<rscale>  2 0.18122977E+03</rscale>
<asrwt>0</asrwt>
<pdfrwt beam="1">  1       21 0.44234470E-01 0.18129806E+03</pdfrwt>
<pdfrwt beam="2">  1       21 0.18176835E-01 0.18129806E+03</pdfrwt>
<totfact> 0.13585421E+05</totfact>
</mgrwt>
</event>
<event>
12    1  0.1050690E-001  0.1971775E+03  0.7546771E-02  0.1154071E+00
         21   -1    0    0  501  502  0.00000000000E+00  0.00000000000E+00  0.10711918842E+04  0.10711918842E+04  0.00000000000E+00 0.  1.
         21   -1    0    0  502  503 -0.00000000000E+00 -0.00000000000E+00 -0.65958725350E+02  0.65958725350E+02  0.00000000000E+00 0.  1.
         -6    2    1    2    0  503  0.49216100896E+02  0.75257291118E+02  0.10524992869E+03  0.21582070868E+03  0.16557519848E+03 0.  0.
        -24    2    3    3    0    0  0.90078031753E+02  0.25461653447E+02  0.74495003542E+02  0.14428569386E+03  0.80662930147E+02 0.  0.
          6    2    1    2  501    0 -0.49216100896E+02 -0.75257291118E+02  0.89998323019E+03  0.92132990090E+03  0.17547959202E+03 0.  0.
         24    2    5    5    0    0 -0.72810730814E+02 -0.68462168883E+02  0.88055155055E+03  0.88966666637E+03  0.78404546951E+02 0.  0.
          5    1    5    5  501    0  0.23594629919E+02 -0.67951222354E+01  0.19431679636E+02  0.31663234526E+02  0.47000000000E+01 0. -1.
        -13    1    6    6    0    0 -0.20482050722E+02 -0.60764946573E+02  0.30372826869E+03  0.31042350803E+03  0.00000000000E+00 0.  1.
         14    1    6    6    0    0 -0.52328680092E+02 -0.76972223094E+01  0.57682328186E+03  0.57924315834E+03  0.00000000000E+00 0. -1.
         -5    1    3    3    0  503 -0.40861930857E+02  0.49795637671E+02  0.30754925150E+02  0.71535014821E+02  0.47000000000E+01 0.  1.
         13    1    4    4    0    0  0.10097514719E+03  0.26347190823E+02  0.46529698763E+02  0.11425921267E+03  0.00000000000E+00 0. -1.
        -14    1    4    4    0    0 -0.10897115434E+02 -0.88553737548E+00  0.27965304779E+02  0.30026481189E+02  0.00000000000E+00 0.  1.
<mgrwt>
<rscale>  2 0.19494996E+03</rscale>
<asrwt>0</asrwt>
<pdfrwt beam="1">  1       21 0.16479874E+00 0.19717751E+03</pdfrwt>
<pdfrwt beam="2">  1       21 0.10147497E-01 0.19717751E+03</pdfrwt>
<totfact> 0.18311509E+04</totfact>
</mgrwt>
</event>
<event>
12    1  0.1050690E-001  0.1978570E+03  0.7546771E-02  0.1152220E+00
         21   -1    0    0  503  502  0.00000000000E+00  0.00000000000E+00  0.55428652476E+03  0.55428652476E+03  0.00000000000E+00 0.  1.
         21   -1    0    0  501  503 -0.00000000000E+00 -0.00000000000E+00 -0.14768244276E+03  0.14768244276E+03  0.00000000000E+00 0.  1.
          6    2    1    2  501    0  0.83525574645E+02 -0.44151313673E+02 -0.51261133464E+02  0.20438956919E+03  0.17384341250E+03 0.  0.
         24    2    3    3    0    0  0.89975691219E+02 -0.89509932236E+02 -0.49827468980E+02  0.15831187745E+03  0.80450114349E+02 0.  0.
         -6    2    1    2    0  502 -0.83525574645E+02  0.44151313673E+02  0.45786521547E+03  0.49757939833E+03  0.17034917666E+03 0.  0.
        -24    2    5    5    0    0  0.26085579170E+02  0.40655872168E+02  0.26653056832E+03  0.27699413057E+03  0.57912409221E+02 0.  0.
          5    1    3    3  501    0 -0.64501165736E+01  0.45358618563E+02 -0.14336644836E+01  0.46077691735E+02  0.47000000000E+01 0. -1.
        -13    1    4    4    0    0  0.26340599335E+02 -0.67430614996E+02 -0.54765696582E+02  0.90774426652E+02  0.00000000000E+00 0.  1.
         14    1    4    4    0    0  0.63635091884E+02 -0.22079317240E+02  0.49382276015E+01  0.67537450801E+02  0.00000000000E+00 0. -1.
         -5    1    5    5    0  502 -0.10961115382E+03  0.34954415050E+01  0.19133464715E+03  0.22058526776E+03  0.47000000000E+01 0.  1.
         11    1    6    6    0    0 -0.56948393929E+01  0.16987289597E+02  0.18262146130E+02  0.25583298944E+02  0.00000000000E+00 0. -1.
        -12    1    6    6    0    0  0.31780418563E+02  0.23668582570E+02  0.24826842219E+03  0.25141083163E+03  0.00000000000E+00 0.  1.
<mgrwt>
<rscale>  2 0.19708676E+03</rscale>
<asrwt>0</asrwt>
<pdfrwt beam="1">  1       21 0.85274849E-01 0.19785700E+03</pdfrwt>
<pdfrwt beam="2">  1       21 0.22720376E-01 0.19785700E+03</pdfrwt>
<totfact> 0.21537207E+04</totfact>
</mgrwt>
</event>
<event>
12    1  0.1050690E-001  0.2495580E+03  0.7546771E-02  0.1114306E+00
         21   -1    0    0  501  502  0.00000000000E+00  0.00000000000E+00  0.37665773706E+03  0.37665773706E+03  0.00000000000E+00 0.  1.
         21   -1    0    0  502  503 -0.00000000000E+00 -0.00000000000E+00 -0.19565394673E+03  0.19565394673E+03  0.00000000000E+00 0. -1.
         -6    2    1    2    0  503 -0.38175544120E+02  0.16999192383E+03 -0.26832290220E+02  0.25099638774E+03  0.17867453239E+03 0.  0.
        -24    2    3    3    0    0  0.42051776172E+02  0.87245872490E+02  0.18407048407E+02  0.12709312026E+03  0.80210022074E+02 0.  0.
          6    2    1    2  501    0  0.38175544120E+02 -0.16999192383E+03  0.20783608056E+03  0.32131529604E+03  0.17231673382E+03 0.  0.
         24    2    5    5    0    0 -0.45604587386E+02 -0.90900528057E+02  0.12192066506E+03  0.17751645064E+03  0.79402501763E+02 0.  0.
          5    1    5    5  501    0  0.83780131506E+02 -0.79091395772E+02  0.85915415492E+02  0.14379884540E+03  0.47000000000E+01 0. -1.
        -13    1    6    6    0    0 -0.50640559015E+02 -0.85672614636E+02  0.13186484087E+03  0.16520471959E+03  0.00000000000E+00 0.  1.
         14    1    6    6    0    0  0.50359716290E+01 -0.52279134209E+01 -0.99441758079E+01  0.12311731051E+02  0.00000000000E+00 0. -1.
         -5    1    3    3    0  503 -0.80227320292E+02  0.82746051338E+02 -0.45239338626E+02  0.12390326748E+03  0.47000000000E+01 0.  1.
         11    1    4    4    0    0  0.24915350140E+02 -0.73852696243E+01 -0.83057049503E+01  0.27281891700E+02  0.00000000000E+00 0. -1.
        -12    1    4    4    0    0  0.17136426032E+02  0.94631142115E+02  0.26712753357E+02  0.99811228562E+02  0.00000000000E+00 0.  1.
<mgrwt>
<rscale>  2 0.24842237E+03</rscale>
<asrwt>0</asrwt>
<pdfrwt beam="1">  1       21 0.57947344E-01 0.24955804E+03</pdfrwt>
<pdfrwt beam="2">  1       21 0.30100607E-01 0.24955804E+03</pdfrwt>
<totfact> 0.28715080E+04</totfact>
</mgrwt>
</event>
<event>
12    1  0.1050690E-001  0.2101851E+03  0.7546771E-02  0.1141602E+00
         21   -1    0    0  503  502  0.00000000000E+00  0.00000000000E+00  0.47111025157E+03  0.47111025157E+03  0.00000000000E+00 0.  1.
         21   -1    0    0  501  503 -0.00000000000E+00 -0.00000000000E+00 -0.11618872372E+03  0.11618872372E+03  0.00000000000E+00 0. -1.
          6    2    1    2  501    0  0.10950832034E+03 -0.46668223225E+02  0.46997410798E+02  0.21447861532E+03  0.17211137244E+03 0.  0.
         24    2    3    3    0    0  0.45987008361E+02 -0.56013223041E+02 -0.39853087069E+02  0.10637040528E+03  0.66888776919E+02 0.  0.
         -6    2    1    2    0  502 -0.10950832034E+03  0.46668223225E+02  0.30792411706E+03  0.37282035997E+03  0.17322749106E+03 0.  0.
        -24    2    5    5    0    0 -0.13780212514E+03  0.60453882029E+02  0.26643984875E+03  0.32053634429E+03  0.95442430097E+02 0.  0.
          5    1    3    3  501    0  0.63521311978E+02  0.93449998158E+01  0.86850497867E+02  0.10810821003E+03  0.47000000000E+01 0. -1.
        -13    1    4    4    0    0 -0.15374627244E+02 -0.21561371970E+02 -0.20198666328E+02  0.33305525751E+02  0.00000000000E+00 0.  1.
         14    1    4    4    0    0  0.61361635605E+02 -0.34451851071E+02 -0.19654420741E+02  0.73064879532E+02  0.00000000000E+00 0. -1.
         -5    1    5    5    0  502  0.28293804800E+02 -0.13785658804E+02  0.41484268311E+02  0.52284015684E+02  0.47000000000E+01 0.  1.
         11    1    6    6    0    0 -0.46030675591E+02  0.57513886992E+02  0.61482393682E+02  0.95951837007E+02  0.00000000000E+00 0. -1.
        -12    1    6    6    0    0 -0.91771449549E+02  0.29399950378E+01  0.20495745507E+03  0.22458450728E+03  0.00000000000E+00 0.  1.
<mgrwt>
<rscale>  2 0.20995495E+03</rscale>
<asrwt>0</asrwt>
<pdfrwt beam="1">  1       21 0.72478499E-01 0.21018506E+03</pdfrwt>
<pdfrwt beam="2">  1       21 0.17875189E-01 0.21018506E+03</pdfrwt>
<totfact> 0.48370446E+04</totfact>
</mgrwt>
</event>
<event>
12    1  0.1050690E-001  0.2010153E+03  0.7546771E-02  0.1149407E+00
         21   -1    0    0  503  502  0.00000000000E+00  0.00000000000E+00  0.23948247933E+03  0.23948247933E+03  0.00000000000E+00 0. -1.
         21   -1    0    0  501  503 -0.00000000000E+00 -0.00000000000E+00 -0.30803908560E+03  0.30803908560E+03  0.00000000000E+00 0. -1.
          6    2    1    2  501    0  0.66691317427E+02 -0.72002579843E+02 -0.21962714292E+03  0.29606688759E+03  0.17259031461E+03 0.  0.
         24    2    3    3    0    0  0.16475381294E+02 -0.89771173711E+01 -0.19480235928E+03  0.21161448061E+03  0.80502809878E+02 0.  0.
         -6    2    1    2    0  502 -0.66691317427E+02  0.72002579843E+02  0.15107053664E+03  0.25145467734E+03  0.17542817444E+03 0.  0.
        -24    2    5    5    0    0  0.15638643757E+02  0.29226521266E+02  0.19440490158E+02  0.90344240575E+02  0.81764249056E+02 0.  0.
          5    1    3    3  501    0  0.50215936133E+02 -0.63025462472E+02 -0.24824783637E+02  0.84452406977E+02  0.47000000000E+01 0. -1.
        -13    1    4    4    0    0 -0.14912378894E+02 -0.31689291782E+02 -0.14118602896E+03  0.14546506464E+03  0.00000000000E+00 0.  1.
         14    1    4    4    0    0  0.31387760189E+02  0.22712174410E+02 -0.53616330322E+02  0.66149415971E+02  0.00000000000E+00 0. -1.
         -5    1    5    5    0  502 -0.82329961184E+02  0.42776058578E+02  0.13163004649E+03  0.16111043676E+03  0.47000000000E+01 0.  1.
         13    1    6    6    0    0 -0.96538198276E+01 -0.10762058693E+02 -0.22746566211E+02  0.26952261853E+02  0.00000000000E+00 0. -1.
        -14    1    6    6    0    0  0.25292463585E+02  0.39988579959E+02  0.42187056369E+02  0.63391978723E+02  0.00000000000E+00 0.  1.
<mgrwt>
<rscale>  2 0.20039447E+03</rscale>
<asrwt>0</asrwt>
<pdfrwt beam="1">  1       21 0.36843458E-01 0.20101529E+03</pdfrwt>
<pdfrwt beam="2">  1       21 0.47390629E-01 0.20101529E+03</pdfrwt>
<totfact> 0.30121076E+04</totfact>
</mgrwt>
</event>
<event>
12    1  0.1050690E-001  0.1953269E+03  0.7546771E-02  0.1153869E+00
         21   -1    0    0  501  502  0.00000000000E+00  0.00000000000E+00  0.54771079723E+03  0.54771079723E+03  0.00000000000E+00 0.  1.
         21   -1    0    0  502  503 -0.00000000000E+00 -0.00000000000E+00 -0.19646561840E+03  0.19646561840E+03  0.00000000000E+00 0.  1.
         -6    2    1    2    0  503  0.88720318162E+02 -0.14842887892E+02 -0.12364546089E+03  0.23068473288E+03  0.17272996211E+03 0.  0.
        -24    2    3    3    0    0  0.28438772737E+01 -0.52410002224E+02 -0.36690033810E+02  0.10274182578E+03  0.80341945542E+02 0.  0.
          6    2    1    2  501    0 -0.88720318162E+02  0.14842887892E+02  0.47489063972E+03  0.51349168275E+03  0.17338103238E+03 0.  0.
         24    2    5    5    0    0 -0.74352591202E+02  0.38786660874E+02  0.15910971265E+03  0.19644370572E+03  0.79003265610E+02 0.  0.
          5    1    5    5  501    0 -0.14367726960E+02 -0.23943772982E+02  0.31578092706E+03  0.31704797703E+03  0.47000000000E+01 0. -1.
        -11    1    6    6    0    0 -0.66974393500E+00  0.19397358933E+02  0.94720646315E+02  0.96688711486E+02  0.00000000000E+00 0.  1.
         12    1    6    6    0    0 -0.73682847267E+02  0.19389301941E+02  0.64389066339E+02  0.99754994237E+02  0.00000000000E+00 0. -1.
         -5    1    3    3    0  503  0.85876440888E+02  0.37567114332E+02 -0.86955427075E+02  0.12794290710E+03  0.47000000000E+01 0.  1.
         11    1    4    4    0    0  0.36086753748E+02 -0.45922558636E+01 -0.22591455518E+02  0.42821915795E+02  0.00000000000E+00 0. -1.
        -12    1    4    4    0    0 -0.33242876474E+02 -0.47817746361E+02 -0.14098578292E+02  0.59919909989E+02  0.00000000000E+00 0.  1.
<mgrwt>
<rscale>  2 0.19518229E+03</rscale>
<asrwt>0</asrwt>
<pdfrwt beam="1">  1       21 0.84263199E-01 0.19532688E+03</pdfrwt>
<pdfrwt beam="2">  1       21 0.30225480E-01 0.19532688E+03</pdfrwt>
<totfact> 0.12814217E+04</totfact>
</mgrwt>
</event>
<event>
12    1  0.1050690E-001  0.1747237E+03  0.7546771E-02  0.1173092E+00
         21   -1    0    0  501  502  0.00000000000E+00  0.00000000000E+00  0.92571543722E+03  0.92571543722E+03  0.00000000000E+00 0.  1.
         21   -1    0    0  502  503 -0.00000000000E+00 -0.00000000000E+00 -0.36143183675E+02  0.36143183675E+02  0.00000000000E+00 0.  1.
         -6    2    1    2    0  503  0.21862092987E+02 -0.16462973851E+02  0.30147037201E+03  0.34844333318E+03  0.17256706122E+03 0.  0.
        -24    2    3    3    0    0 -0.14840619677E+02  0.19552225458E+02  0.28060450765E+03  0.29275080232E+03  0.79759695524E+02 0.  0.
          6    2    1    2  501    0 -0.21862092987E+02  0.16462973851E+02  0.58810188153E+03  0.61341528771E+03  0.17223678911E+03 0.  0.
         24    2    5    5    0    0 -0.71283646102E+01 -0.19724225365E+02  0.55749968070E+03  0.56356369963E+03  0.79738892074E+02 0.  0.
          5    1    5    5  501    0 -0.14733728377E+02  0.36187199216E+02  0.30602200832E+02  0.49851588086E+02  0.47000000000E+01 0. -1.
        -13    1    6    6    0    0 -0.17545207391E+02 -0.23373418362E+02  0.68936351949E+02  0.74875707732E+02  0.00000000000E+00 0.  1.
         14    1    6    6    0    0  0.10416842781E+02  0.36491929971E+01  0.48856332875E+03  0.48868799189E+03  0.00000000000E+00 0. -1.
         -5    1    3    3    0  503  0.36702712664E+02 -0.36015199309E+02  0.20865864355E+02  0.55692530858E+02  0.47000000000E+01 0.  1.
         11    1    4    4    0    0 -0.16619257802E+02 -0.25134843381E+02  0.54589880577E+02  0.62353950501E+02  0.00000000000E+00 0. -1.
        -12    1    4    4    0    0  0.17786381255E+01  0.44687068839E+02  0.22601462708E+03  0.23039685182E+03  0.00000000000E+00 0.  1.
<mgrwt>
<rscale>  2 0.17464210E+03</rscale>
<asrwt>0</asrwt>
<pdfrwt beam="1">  1       21 0.14241774E+00 0.17472370E+03</pdfrwt>
<pdfrwt beam="2">  1       21 0.55604905E-02 0.17472370E+03</pdfrwt>
<totfact> 0.77554306E+04</totfact>
</mgrwt>
</event>
<event>
12    1  0.1050690E-001  0.2150214E+03  0.7546771E-02  0.1138002E+00
         21   -1    0    0  501  502  0.00000000000E+00  0.00000000000E+00  0.97089791953E+03  0.97089791953E+03  0.00000000000E+00 0. -1.
         21   -1    0    0  502  503 -0.00000000000E+00 -0.00000000000E+00 -0.12019399959E+03  0.12019399959E+03  0.00000000000E+00 0. -1.
         -6    2    1    2    0  503  0.25007344459E+02 -0.12379677296E+03  0.97281315582E+00  0.21502364955E+03  0.17402073218E+03 0.  0.
        -24    2    3    3    0    0  0.17970486993E+02 -0.27701638293E+01 -0.31757995547E+02  0.89363976948E+02  0.81527528384E+02 0.  0.
          6    2    1    2  501    0 -0.25007344459E+02  0.12379677296E+03  0.84973110678E+03  0.87606826958E+03  0.17176044611E+03 0.  0.
         24    2    5    5    0    0 -0.63528469758E+02  0.46044044397E+02  0.31840899228E+03  0.33768676613E+03  0.80573849102E+02 0.  0.
          5    1    5    5  501    0  0.38521125300E+02  0.77752728561E+02  0.53132211450E+03  0.53838150345E+03  0.47000000000E+01 0. -1.
        -13    1    6    6    0    0  0.12315407125E+02 -0.38163163920E+01  0.10346543217E+02  0.16531318157E+02  0.00000000000E+00 0.  1.
         14    1    6    6    0    0 -0.75843876884E+02  0.49860360789E+02  0.30806244906E+03  0.32115544797E+03  0.00000000000E+00 0. -1.
         -5    1    3    3    0  503  0.70368574661E+01 -0.12102660913E+03  0.32730808703E+02  0.12565967260E+03  0.47000000000E+01 0.  1.
         11    1    4    4    0    0  0.24802327427E+02  0.35131029104E+02 -0.26452070388E+02  0.50488183563E+02  0.00000000000E+00 0. -1.
        -12    1    4    4    0    0 -0.68318404342E+01 -0.37901192933E+02 -0.53059251590E+01  0.38875793385E+02  0.00000000000E+00 0.  1.
<mgrwt>
<rscale>  2 0.21456370E+03</rscale>
<asrwt>0</asrwt>
<pdfrwt beam="1">  1       21 0.14936891E+00 0.21502145E+03</pdfrwt>
<pdfrwt beam="2">  1       21 0.18491385E-01 0.21502145E+03</pdfrwt>
<totfact> 0.79359564E+03</totfact>
</mgrwt>
</event>
<event>
12    1  0.1050690E-001  0.1845635E+03  0.7546771E-02  0.1163864E+00
         21   -1    0    0  501  502  0.00000000000E+00  0.00000000000E+00  0.70892120177E+02  0.70892120177E+02  0.00000000000E+00 0.  1.
         21   -1    0    0  502  503 -0.00000000000E+00 -0.00000000000E+00 -0.20750485764E+04  0.20750485764E+04  0.00000000000E+00 0.  1.
         -6    2    1    2    0  503 -0.24926283512E+02 -0.59323697197E+02 -0.19428898144E+04  0.19514740544E+04  0.17114185238E+03 0.  0.
        -24    2    3    3    0    0 -0.65311944389E+02 -0.48698595636E+02 -0.85779666650E+03  0.86556746362E+03  0.82187041100E+02 0.  0.
          6    2    1    2  501    0  0.24926283512E+02  0.59323697197E+02 -0.61266641867E+02  0.19446664217E+03  0.17298281086E+03 0.  0.
         24    2    5    5    0    0  0.73627205867E+02  0.59287557858E+01 -0.54880164579E+02  0.12176398267E+03  0.79740324943E+02 0.  0.
          5    1    5    5  501    0 -0.48700922354E+02  0.53394941411E+02 -0.63864772886E+01  0.72702659502E+02  0.47000000000E+01 0. -1.
        -13    1    6    6    0    0  0.34558599968E+02  0.69035237475E+01  0.17620550973E+02  0.39401006186E+02  0.00000000000E+00 0.  1.
         14    1    6    6    0    0  0.39068605898E+02 -0.97476796178E+00 -0.72500715552E+02  0.82362976482E+02  0.00000000000E+00 0. -1.
         -5    1    3    3    0  503  0.40385660876E+02 -0.10625101561E+02 -0.10850931479E+04  0.10859065908E+04  0.47000000000E+01 0.  1.
         11    1    4    4    0    0 -0.16966898372E+00  0.10235659361E+02 -0.14738135755E+02  0.17944641419E+02  0.00000000000E+00 0. -1.
        -12    1    4    4    0    0 -0.65142275405E+02 -0.58934254997E+02 -0.84305853074E+03  0.84762282220E+03  0.00000000000E+00 0.  1.
<mgrwt>
<rscale>  2 0.18413087E+03</rscale>
<asrwt>0</asrwt>
<pdfrwt beam="1">  1       21 0.10906480E-01 0.18456347E+03</pdfrwt>
<pdfrwt beam="2">  1       21 0.31923825E+00 0.18456347E+03</pdfrwt>
<totfact> 0.18600388E+03</totfact>
</mgrwt>
</event>
<event>
12    1  0.1050690E-001  0.1827612E+03  0.7546771E-02  0.1165277E+00
         21   -1    0    0  501  502  0.00000000000E+00  0.00000000000E+00  0.99508196063E+02  0.99508196063E+02  0.00000000000E+00 0. -1.
         21   -1    0    0  502  503 -0.00000000000E+00 -0.00000000000E+00 -0.41393934456E+03  0.41393934456E+03  0.00000000000E+00 0. -1.
         -6    2    1    2    0  503  0.49953971952E+02  0.31134445478E+02 -0.26933476214E+03  0.32520477710E+03  0.17248820232E+03 0.  0.
        -24    2    3    3    0    0 -0.35455260412E+02 -0.38744070531E+01 -0.10416721997E+03  0.13593575239E+03  0.79722221117E+02 0.  0.
          6    2    1    2  501    0 -0.49953971952E+02 -0.31134445478E+02 -0.45096386357E+02  0.18824276353E+03  0.17302283360E+03 0.  0.
         24    2    5    5    0    0 -0.18185695570E+02 -0.84804446188E+02 -0.17203110399E+02  0.11976052346E+03  0.80772039445E+02 0.  0.
          5    1    5    5  501    0 -0.31768276382E+02  0.53670000710E+02 -0.27893275958E+02  0.68482240064E+02  0.47000000000E+01 0. -1.
        -11    1    6    6    0    0  0.13103749457E+02 -0.60310376187E+02 -0.40384957545E+02  0.73756318519E+02  0.00000000000E+00 0.  1.
         12    1    6    6    0    0 -0.31289445027E+02 -0.24494070001E+02  0.23181847147E+02  0.46004204943E+02  0.00000000000E+00 0. -1.
         -5    1    3    3    0  503  0.85409232364E+02  0.35008852531E+02 -0.16516754216E+03  0.18926902471E+03  0.47000000000E+01 0.  1.
         13    1    4    4    0    0 -0.29279191866E+02  0.35145224203E+02 -0.40979150811E+02  0.61414563923E+02  0.00000000000E+00 0. -1.
        -14    1    4    4    0    0 -0.61760685458E+01 -0.39019631256E+02 -0.63188069163E+02  0.74521188467E+02  0.00000000000E+00 0.  1.
<mgrwt>
<rscale>  2 0.18263455E+03</rscale>
<asrwt>0</asrwt>
<pdfrwt beam="1">  1       21 0.15308953E-01 0.18276119E+03</pdfrwt>
<pdfrwt beam="2">  1       21 0.63682977E-01 0.18276119E+03</pdfrwt>
<totfact> 0.86469057E+04</totfact>
</mgrwt>
</event>
<event>
12    1  0.1050690E-001  0.1757562E+03  0.7546771E-02  0.1173080E+00
         21   -1    0    0  503  502  0.00000000000E+00  0.00000000000E+00  0.61674733180E+03  0.61674733180E+03  0.00000000000E+00 0.  1.
         21   -1    0    0  501  503 -0.00000000000E+00 -0.00000000000E+00 -0.59550266561E+02  0.59550266561E+02  0.00000000000E+00 0. -1.
          6    2    1    2  501    0 -0.20957985090E+02 -0.22845472784E+02  0.13813286386E+03  0.22354175099E+03  0.17300021270E+03 0.  0.
         24    2    3    3    0    0  0.49437753827E+02  0.37451104418E+01  0.10491853614E+03  0.14115303369E+03  0.80362692447E+02 0.  0.
         -6    2    1    2    0  502  0.20957985090E+02  0.22845472784E+02  0.41906420138E+03  0.45275584737E+03  0.16855829757E+03 0.  0.
        -24    2    5    5    0    0  0.25297937245E+02 -0.49690437298E+02  0.25247801137E+03  0.27095006600E+03  0.80991770279E+02 0.  0.
          5    1    3    3  501    0 -0.70395738917E+02 -0.26590583225E+02  0.33214327719E+02  0.82388717308E+02  0.47000000000E+01 0. -1.
        -11    1    4    4    0    0 -0.17102653146E+02  0.17530272719E+02  0.41589128941E+02  0.48264550680E+02  0.00000000000E+00 0.  1.
         12    1    4    4    0    0  0.66540406973E+02 -0.13785162277E+02  0.63329407199E+02  0.92888483006E+02  0.00000000000E+00 0. -1.
         -5    1    5    5    0  502 -0.43399521549E+01  0.72535910082E+02  0.16658619002E+03  0.18180578137E+03  0.47000000000E+01 0.  1.
         13    1    6    6    0    0 -0.26104273438E+02 -0.30107167793E+01  0.10020945864E+03  0.10359745705E+03  0.00000000000E+00 0. -1.
        -14    1    6    6    0    0  0.51402210683E+02 -0.46679720519E+02  0.15226855273E+03  0.16735260894E+03  0.00000000000E+00 0.  1.
<mgrwt>
<rscale>  2 0.17465320E+03</rscale>
<asrwt>0</asrwt>
<pdfrwt beam="1">  1       21 0.94884201E-01 0.17575616E+03</pdfrwt>
<pdfrwt beam="2">  1       21 0.91615799E-02 0.17575616E+03</pdfrwt>
<totfact> 0.88589990E+04</totfact>
</mgrwt>
</event>
<event>
12    1  0.1050690E-001  0.1941945E+03  0.7546771E-02  0.1154961E+00
         21   -1    0    0  501  502  0.00000000000E+00  0.00000000000E+00  0.38157484677E+02  0.38157484677E+02  0.00000000000E+00 0.  1.
         21   -1    0    0  502  503 -0.00000000000E+00 -0.00000000000E+00 -0.98958248856E+03  0.98958248856E+03  0.00000000000E+00 0.  1.
         -6    2    1    2    0  503  0.78806199008E+02  0.36220718388E+02 -0.43252523380E+03  0.47369262170E+03  0.17258118244E+03 0.  0.
        -24    2    3    3    0    0  0.10841001958E+03 -0.11824488382E+02 -0.27710527594E+03  0.30827744287E+03  0.79718861968E+02 0.  0.
          6    2    1    2  501    0 -0.78806199008E+02 -0.36220718388E+02 -0.51889977008E+03  0.55404735153E+03  0.17375021990E+03 0.  0.
         24    2    5    5    0    0 -0.60362165492E+02  0.33531735266E+02 -0.40681475263E+03  0.42066546258E+03  0.81812102803E+02 0.  0.
          5    1    5    5  501    0 -0.18444033516E+02 -0.69752453654E+02 -0.11208501745E+03  0.13338188895E+03  0.47000000000E+01 0. -1.
        -11    1    6    6    0    0  0.38474429341E+01 -0.21782806367E+02 -0.74542972270E+02  0.77755695516E+02  0.00000000000E+00 0.  1.
         12    1    6    6    0    0 -0.64209608426E+02  0.55314541634E+02 -0.33227178036E+03  0.34290976707E+03  0.00000000000E+00 0. -1.
         -5    1    3    3    0  503 -0.29603820576E+02  0.48045206770E+02 -0.15541995786E+03  0.16541517883E+03  0.47000000000E+01 0.  1.
         13    1    4    4    0    0  0.28300721291E+02 -0.38338086181E+02 -0.13306473164E+03  0.14133988285E+03  0.00000000000E+00 0. -1.
        -14    1    4    4    0    0  0.80109298293E+02  0.26513597798E+02 -0.14404054430E+03  0.16693756001E+03  0.00000000000E+00 0.  1.
<mgrwt>
<rscale>  2 0.19393264E+03</rscale>
<asrwt>0</asrwt>
<pdfrwt beam="1">  1       21 0.58703818E-02 0.19419448E+03</pdfrwt>
<pdfrwt beam="2">  1       21 0.15224347E+00 0.19419448E+03</pdfrwt>
<totfact> 0.58783060E+04</totfact>
</mgrwt>
</event>
<event>
12    1  0.1050690E-001  0.1827075E+03  0.7546771E-02  0.1165342E+00
         21   -1    0    0  501  502  0.00000000000E+00  0.00000000000E+00  0.97196534560E+03  0.97196534560E+03  0.00000000000E+00 0.  1.
         21   -1    0    0  502  503 -0.00000000000E+00 -0.00000000000E+00 -0.42278593966E+02  0.42278593966E+02  0.00000000000E+00 0.  1.
         -6    2    1    2    0  503  0.37844819149E+02  0.41779152037E+02  0.24312127267E+03  0.30378340616E+03  0.17320126082E+03 0.  0.
        -24    2    3    3    0    0  0.21590833332E+02  0.82528448508E+02  0.22894473753E+03  0.25743945977E+03  0.81131212914E+02 0.  0.
          6    2    1    2  501    0 -0.37844819149E+02 -0.41779152037E+02  0.68656547896E+03  0.71046053341E+03  0.17379379951E+03 0.  0.
         24    2    5    5    0    0 -0.64120213354E+02 -0.49734727046E+01  0.23323312377E+03  0.25485393925E+03  0.80104326597E+02 0.  0.
          5    1    5    5  501    0  0.26275394206E+02 -0.36805679332E+02  0.45333235519E+03  0.45560659415E+03  0.47000000000E+01 0. -1.
        -13    1    6    6    0    0 -0.58012827131E+02 -0.35955187811E+02  0.18514574579E+03  0.19732513987E+03  0.00000000000E+00 0.  1.
         14    1    6    6    0    0 -0.61073862235E+01  0.30981715106E+02  0.48087377983E+02  0.57528799385E+02  0.00000000000E+00 0. -1.
         -5    1    3    3    0  503  0.16253985817E+02 -0.40749296472E+02  0.14176535146E+02  0.46343946386E+02  0.47000000000E+01 0.  1.
         13    1    4    4    0    0 -0.29588677193E+02  0.21051766774E+02  0.91025445670E+02  0.98001522752E+02  0.00000000000E+00 0. -1.
        -14    1    4    4    0    0  0.51179510524E+02  0.61476681735E+02  0.13791929186E+03  0.15943793702E+03  0.00000000000E+00 0.  1.
<mgrwt>
<rscale>  2 0.18256640E+03</rscale>
<asrwt>0</asrwt>
<pdfrwt beam="1">  1       21 0.14953311E+00 0.18270745E+03</pdfrwt>
<pdfrwt beam="2">  1       21 0.65043998E-02 0.18270745E+03</pdfrwt>
<totfact> 0.52022346E+04</totfact>
</mgrwt>
</event>
<event>
12    1  0.1050690E-001  0.1759648E+03  0.7546771E-02  0.1171879E+00
         21   -1    0    0  501  502  0.00000000000E+00  0.00000000000E+00  0.14155757667E+03  0.14155757667E+03  0.00000000000E+00 0.  1.
         21   -1    0    0  502  503 -0.00000000000E+00 -0.00000000000E+00 -0.23736619368E+03  0.23736619368E+03  0.00000000000E+00 0. -1.
         -6    2    1    2    0  503  0.16083292118E+02 -0.25143455790E+02 -0.10171880859E+03  0.20285976378E+03  0.17295809344E+03 0.  0.
        -24    2    3    3    0    0 -0.10965846844E+02  0.44920108874E+02 -0.81945044365E+02  0.12505455339E+03  0.82374662665E+02 0.  0.
          6    2    1    2  501    0 -0.16083292118E+02  0.25143455790E+02  0.59101915734E+01  0.17606400657E+03  0.17341493128E+03 0.  0.
         24    2    5    5    0    0 -0.46453461923E+02  0.18864162507E+02 -0.53880077321E+02  0.10854554248E+03  0.79782775766E+02 0.  0.
          5    1    5    5  501    0  0.30370169805E+02  0.62792932831E+01  0.59790268895E+02  0.67518464087E+02  0.47000000000E+01 0. -1.
        -13    1    6    6    0    0  0.25648347631E+01  0.29850431330E+02  0.58221543064E+01  0.30520879882E+02  0.00000000000E+00 0.  1.
         14    1    6    6    0    0 -0.49018296686E+02 -0.10986268823E+02 -0.59702231628E+02  0.78024662601E+02  0.00000000000E+00 0. -1.
         -5    1    3    3    0  503  0.27049138962E+02 -0.70063564665E+02 -0.19773764224E+02  0.77805210389E+02  0.47000000000E+01 0.  1.
         11    1    4    4    0    0 -0.55338986829E+01  0.52475401041E+02 -0.11509547129E+02  0.54007049764E+02  0.00000000000E+00 0. -1.
        -12    1    4    4    0    0 -0.54319481608E+01 -0.75552921670E+01 -0.70435497236E+02  0.71047503626E+02  0.00000000000E+00 0.  1.
<mgrwt>
<rscale>  2 0.17585212E+03</rscale>
<asrwt>0</asrwt>
<pdfrwt beam="1">  1       21 0.21778089E-01 0.17596478E+03</pdfrwt>
<pdfrwt beam="2">  1       21 0.36517876E-01 0.17596478E+03</pdfrwt>
<totfact> 0.14307513E+05</totfact>
</mgrwt>
</event>
<event>
12    1  0.1050690E-001  0.1833752E+03  0.7546771E-02  0.1166862E+00
         21   -1    0    0  503  502  0.00000000000E+00  0.00000000000E+00  0.72946681963E+03  0.72946681963E+03  0.00000000000E+00 0. -1.
         21   -1    0    0  501  503 -0.00000000000E+00 -0.00000000000E+00 -0.71777349686E+02  0.71777349686E+02  0.00000000000E+00 0. -1.
          6    2    1    2  501    0  0.16161461984E+02  0.30380079165E+02  0.83890824729E+02  0.20165348458E+03  0.18011750416E+03 0.  0.
         24    2    3    3    0    0  0.10035077642E+02  0.76311963755E+02  0.75250928460E+01  0.11220469692E+03  0.81296053987E+02 0.  0.
         -6    2    1    2    0  502 -0.16161461984E+02 -0.30380079165E+02  0.57379864521E+03  0.59959068473E+03  0.17052847830E+03 0.  0.
        -24    2    5    5    0    0 -0.51139641947E+02 -0.45631166009E+02  0.53352499322E+03  0.54391191168E+03  0.80584012027E+02 0.  0.
          5    1    3    3  501    0  0.61263843419E+01 -0.45931884590E+02  0.76365731883E+02  0.89448787655E+02  0.47000000000E+01 0. -1.
        -11    1    4    4    0    0 -0.17388587867E+02  0.46343271404E+02  0.37182635869E+02  0.61908078654E+02  0.00000000000E+00 0.  1.
         12    1    4    4    0    0  0.27423665509E+02  0.29968692351E+02 -0.29657543023E+02  0.50296618269E+02  0.00000000000E+00 0. -1.
         -5    1    5    5    0  502  0.34978179963E+02  0.15251086844E+02  0.40273651993E+02  0.55678773050E+02  0.47000000000E+01 0.  1.
         13    1    6    6    0    0  0.17236918893E+02  0.56559841856E+01  0.14276868551E+03  0.14391663938E+03  0.00000000000E+00 0. -1.
        -14    1    6    6    0    0 -0.68376560840E+02 -0.51287150194E+02  0.39075630771E+03  0.39999527230E+03  0.00000000000E+00 0.  1.
<mgrwt>
<rscale>  2 0.18097617E+03</rscale>
<asrwt>0</asrwt>
<pdfrwt beam="1">  1       21 0.11222566E+00 0.18337518E+03</pdfrwt>
<pdfrwt beam="2">  1       21 0.11042670E-01 0.18337518E+03</pdfrwt>
<totfact> 0.42553850E+04</totfact>
</mgrwt>
</event>
<event>
12    1  0.1050690E-001  0.1955527E+03  0.7546771E-02  0.1153676E+00
         21   -1    0    0  503  502  0.00000000000E+00  0.00000000000E+00  0.53611262508E+03  0.53611262508E+03  0.00000000000E+00 0. -1.
         21   -1    0    0  501  503 -0.00000000000E+00 -0.00000000000E+00 -0.10460031098E+03  0.10460031098E+03  0.00000000000E+00 0.  1.
          6    2    1    2  501    0  0.46015790292E+01  0.89655411610E+02  0.34270434429E+02  0.19794667926E+03  0.17305824971E+03 0.  0.
         24    2    3    3    0    0  0.70368876399E+02  0.61695037258E+02  0.24784506962E+02  0.12570269849E+03  0.80180048856E+02 0.  0.
         -6    2    1    2    0  502 -0.46015790292E+01 -0.89655411610E+02  0.39724187968E+03  0.44276625680E+03  0.17372846581E+03 0.  0.
        -24    2    5    5    0    0  0.51861439029E+02 -0.97779888175E+02  0.29591556082E+03  0.32639103426E+03  0.81942496448E+02 0.  0.
          5    1    3    3  501    0 -0.65767297370E+02  0.27960374352E+02  0.94859274664E+01  0.72243980767E+02  0.47000000000E+01 0. -1.
        -13    1    4    4    0    0  0.28088366167E+02  0.19001394507E+02 -0.29333130600E+02  0.44837951090E+02  0.00000000000E+00 0.  1.
         14    1    4    4    0    0  0.42280510231E+02  0.42693642751E+02  0.54117637563E+02  0.80864747400E+02  0.00000000000E+00 0. -1.
         -5    1    5    5    0  502 -0.56463018058E+02  0.81244765645E+01  0.10132631886E+03  0.11637522254E+03  0.47000000000E+01 0.  1.
         13    1    6    6    0    0  0.13969948671E+02 -0.31360882792E+02  0.20380469562E+03  0.20667611955E+03  0.00000000000E+00 0. -1.
        -14    1    6    6    0    0  0.37891490357E+02 -0.66419005383E+02  0.92110865197E+02  0.11971491471E+03  0.00000000000E+00 0.  1.
<mgrwt>
<rscale>  2 0.19540371E+03</rscale>
<asrwt>0</asrwt>
<pdfrwt beam="1">  1       21 0.82478864E-01 0.19555267E+03</pdfrwt>
<pdfrwt beam="2">  1       21 0.16092356E-01 0.19555267E+03</pdfrwt>
<totfact> 0.44217033E+04</totfact>
</mgrwt>
</event>
<event>
12    1  0.1050690E-001  0.1784927E+03  0.7546771E-02  0.1169643E+00
         21   -1    0    0  503  502  0.00000000000E+00  0.00000000000E+00  0.10921163465E+03  0.10921163465E+03  0.00000000000E+00 0. -1.
         21   -1    0    0  501  503 -0.00000000000E+00 -0.00000000000E+00 -0.71105846269E+03  0.71105846269E+03  0.00000000000E+00 0. -1.
          6    2    1    2  501    0  0.33124639899E+02 -0.25294303784E+02 -0.61733244113E+03  0.64261884951E+03  0.17355863360E+03 0.  0.
         24    2    3    3    0    0  0.28214428126E+02  0.41497960352E+02 -0.21873007252E+03  0.23840200795E+03  0.80464514580E+02 0.  0.
         -6    2    1    2    0  502 -0.33124639899E+02  0.25294303784E+02  0.15485613083E+02  0.17765124784E+03  0.17199743624E+03 0.  0.
        -24    2    5    5    0    0 -0.80562412625E+02  0.48277249124E+02  0.10054570010E+02  0.12445214741E+03  0.81032385530E+02 0.  0.
          5    1    3    3  501    0  0.49102117726E+01 -0.66792264136E+02 -0.39860236861E+03  0.40421684155E+03  0.47000000000E+01 0. -1.
        -11    1    4    4    0    0 -0.21307459280E+02 -0.98050278457E+01 -0.50283879305E+02  0.55485267504E+02  0.00000000000E+00 0.  1.
         12    1    4    4    0    0  0.49521887406E+02  0.51302988197E+02 -0.16844619321E+03  0.18291674045E+03  0.00000000000E+00 0. -1.
         -5    1    5    5    0  502  0.47437772727E+02 -0.22982945340E+02  0.54310430735E+01  0.53199100431E+02  0.47000000000E+01 0.  1.
         13    1    6    6    0    0 -0.79934569304E+02  0.21088782923E+02  0.32859027295E+02  0.88960596951E+02  0.00000000000E+00 0. -1.
        -14    1    6    6    0    0 -0.62784332100E+00  0.27188466201E+02 -0.22804457286E+02  0.35491550454E+02  0.00000000000E+00 0.  1.
<mgrwt>
<rscale>  2 0.17811206E+03</rscale>
<asrwt>0</asrwt>
<pdfrwt beam="1">  1       21 0.16801791E-01 0.17849270E+03</pdfrwt>
<pdfrwt beam="2">  1       21 0.10939361E+00 0.17849270E+03</pdfrwt>
<totfact> 0.21285834E+04</totfact>
</mgrwt>
</event>
<event>
12    1  0.1050690E-001  0.2071358E+03  0.7546771E-02  0.1144146E+00
         21   -1    0    0  501  502  0.00000000000E+00  0.00000000000E+00  0.20894321710E+04  0.20894321710E+04  0.00000000000E+00 0.  1.
         21   -1    0    0  502  503 -0.00000000000E+00 -0.00000000000E+00 -0.58747923452E+02  0.58747923452E+02  0.00000000000E+00 0. -1.
         -6    2    1    2    0  503 -0.10626626003E+03  0.35083016726E+02  0.14869004171E+03  0.25497834304E+03  0.17430401841E+03 0.  0.
        -24    2    3    3    0    0 -0.92856211300E+02  0.23495280030E+02  0.24691904217E+02  0.12963189056E+03  0.83788022748E+02 0.  0.
          6    2    1    2  501    0  0.10626626003E+03 -0.35083016726E+02  0.18819942058E+04  0.18932017514E+04  0.17259010586E+03 0.  0.
         24    2    5    5    0    0  0.50054194900E+02 -0.42264920589E+02  0.54266521527E+03  0.55266618269E+03  0.81624920767E+02 0.  0.
          5    1    5    5  501    0  0.56212065128E+02  0.71819038633E+01  0.13393289906E+04  0.13405355687E+04  0.47000000000E+01 0. -1.
        -11    1    6    6    0    0  0.70232860174E+02 -0.43671396662E+02  0.39044879066E+03  0.39911164310E+03  0.00000000000E+00 0.  1.
         12    1    6    6    0    0 -0.20178665274E+02  0.14064760729E+01  0.15221642461E+03  0.15355453959E+03  0.00000000000E+00 0. -1.
         -5    1    3    3    0  503 -0.13410048729E+02  0.11587736696E+02  0.12399813749E+03  0.12534645248E+03  0.47000000000E+01 0.  1.
         13    1    4    4    0    0 -0.33684386828E+02  0.49046057180E+01 -0.31174280171E+02  0.46157651776E+02  0.00000000000E+00 0. -1.
        -14    1    4    4    0    0 -0.59171824472E+02  0.18590674312E+02  0.55866184388E+02  0.83474238785E+02  0.00000000000E+00 0.  1.
<mgrwt>
<rscale>  2 0.20677478E+03</rscale>
<asrwt>0</asrwt>
<pdfrwt beam="1">  1       21 0.32145105E+00 0.20713577E+03</pdfrwt>
<pdfrwt beam="2">  1       21 0.90381437E-02 0.20713577E+03</pdfrwt>
<totfact> 0.24444625E+03</totfact>
</mgrwt>
</event>
<event>
12    1  0.1050690E-001  0.2146479E+03  0.7546771E-02  0.1138015E+00
         21   -1    0    0  501  502  0.00000000000E+00  0.00000000000E+00  0.56195524625E+02  0.56195524625E+02  0.00000000000E+00 0. -1.
         21   -1    0    0  502  503 -0.00000000000E+00 -0.00000000000E+00 -0.15117739153E+04  0.15117739153E+04  0.00000000000E+00 0. -1.
         -6    2    1    2    0  503  0.86132335955E+02 -0.95565474739E+02 -0.12591267816E+04  0.12772916610E+04  0.17182024317E+03 0.  0.
        -24    2    3    3    0    0 -0.14246194765E+02 -0.74430101607E+02 -0.73177972097E+03  0.74003979666E+03  0.80090864178E+02 0.  0.
          6    2    1    2  501    0 -0.86132335955E+02  0.95565474739E+02 -0.19645160908E+03  0.29067777889E+03  0.17131490645E+03 0.  0.
         24    2    5    5    0    0  0.19253489140E+02  0.44987000703E+02 -0.57259989573E+02  0.10885162261E+03  0.78583982226E+02 0.  0.
          5    1    5    5  501    0 -0.10538582509E+03  0.50578474036E+02 -0.13919161951E+03  0.18182615628E+03  0.47000000000E+01 0. -1.
        -13    1    6    6    0    0  0.15979805413E+02  0.56413302727E+02 -0.70077577293E+02  0.91371120956E+02  0.00000000000E+00 0.  1.
         14    1    6    6    0    0  0.32736837279E+01 -0.11426302024E+02  0.12817587720E+02  0.17480501653E+02  0.00000000000E+00 0. -1.
         -5    1    3    3    0  503  0.10037853072E+03 -0.21135373132E+02 -0.52734706063E+03  0.53725186438E+03  0.47000000000E+01 0.  1.
         11    1    4    4    0    0  0.32704419359E+02 -0.40008402101E+02 -0.31406218625E+03  0.31828494798E+03  0.00000000000E+00 0. -1.
        -12    1    4    4    0    0 -0.46950614124E+02 -0.34421699506E+02 -0.41771753472E+03  0.42175484867E+03  0.00000000000E+00 0.  1.
<mgrwt>
<rscale>  2 0.21454679E+03</rscale>
<asrwt>0</asrwt>
<pdfrwt beam="1">  1       21 0.86454644E-02 0.21464793E+03</pdfrwt>
<pdfrwt beam="2">  1       21 0.23258063E+00 0.21464793E+03</pdfrwt>
<totfact> 0.86704508E+03</totfact>
</mgrwt>
</event>
<event>
12    1  0.1050690E-001  0.2080009E+03  0.7546771E-02  0.1143192E+00
         21   -1    0    0  501  502  0.00000000000E+00  0.00000000000E+00  0.14362247020E+03  0.14362247020E+03  0.00000000000E+00 0.  1.
         21   -1    0    0  502  503 -0.00000000000E+00 -0.00000000000E+00 -0.30129012648E+03  0.30129012648E+03  0.00000000000E+00 0.  1.
         -6    2    1    2    0  503  0.88947334640E+02 -0.74747299770E+02 -0.85721815112E+02  0.22482041799E+03  0.17232876602E+03 0.  0.
        -24    2    3    3    0    0  0.87957268784E+02 -0.30171230192E+02 -0.11638173430E+03  0.17050534776E+03  0.82949269278E+02 0.  0.
          6    2    1    2  501    0 -0.88947334640E+02  0.74747299770E+02 -0.71945841172E+02  0.22009217869E+03  0.17252702947E+03 0.  0.
         24    2    5    5    0    0  0.17008740453E+02  0.52731704271E+02 -0.12916584217E+02  0.96731246989E+02  0.78231490520E+02 0.  0.
          5    1    5    5  501    0 -0.10595607509E+03  0.22015595499E+02 -0.59029256956E+02  0.12336093170E+03  0.47000000000E+01 0. -1.
        -13    1    6    6    0    0 -0.14871643248E+02  0.18712769209E+02  0.26494390826E+02  0.35683136768E+02  0.00000000000E+00 0.  1.
         14    1    6    6    0    0  0.31880383701E+02  0.34018935062E+02 -0.39410975043E+02  0.61048110221E+02  0.00000000000E+00 0. -1.
         -5    1    3    3    0  503  0.99006585542E+00 -0.44576069578E+02  0.30659919186E+02  0.54315070228E+02  0.47000000000E+01 0.  1.
         13    1    4    4    0    0  0.68351042893E+01 -0.41890046869E+02 -0.44350874730E+02  0.61388066972E+02  0.00000000000E+00 0. -1.
        -14    1    4    4    0    0  0.81122164495E+02  0.11718816677E+02 -0.72030859568E+02  0.10911728079E+03  0.00000000000E+00 0.  1.
<mgrwt>
<rscale>  2 0.20795976E+03</rscale>
<asrwt>0</asrwt>
<pdfrwt beam="1">  1       21 0.22095765E-01 0.20800087E+03</pdfrwt>
<pdfrwt beam="2">  1       21 0.46352327E-01 0.20800087E+03</pdfrwt>
<totfact> 0.84810661E+04</totfact>
</mgrwt>
</event>
<event>
12    1  0.1050690E-001  0.2097306E+03  0.7546771E-02  0.1141858E+00
         21   -1    0    0  503  502  0.00000000000E+00  0.00000000000E+00  0.46436092991E+03  0.46436092991E+03  0.00000000000E+00 0.  1.
         21   -1    0    0  501  503 -0.00000000000E+00 -0.00000000000E+00 -0.10783740600E+03  0.10783740600E+03  0.00000000000E+00 0.  1.
          6    2    1    2  501    0 -0.11047038236E+03  0.36848482776E+02  0.77674851476E+02  0.22328069305E+03  0.17395220399E+03 0.  0.
         24    2    3    3    0    0  0.13727239625E+02  0.15452412358E+02  0.38592751111E+02  0.91249099458E+02  0.80061123888E+02 0.  0.
         -6    2    1    2    0  502  0.11047038236E+03 -0.36848482776E+02  0.27884867244E+03  0.34891764287E+03  0.17442884888E+03 0.  0.
        -24    2    5    5    0    0  0.15347391041E+02 -0.69367204731E+02  0.16075163354E+03  0.19375691539E+03  0.81567782064E+02 0.  0.
          5    1    3    3  501    0 -0.12419762199E+03  0.21396070418E+02  0.39082100365E+02  0.13203159359E+03  0.47000000000E+01 0. -1.
        -13    1    4    4    0    0  0.60854187742E+01 -0.32797047855E+02  0.20515565826E+02  0.39160785370E+02  0.00000000000E+00 0.  1.
         14    1    4    4    0    0  0.76418208504E+01  0.48249460212E+02  0.18077185285E+02  0.52088314088E+02  0.00000000000E+00 0. -1.
         -5    1    5    5    0  502  0.95122991322E+02  0.32518721955E+02  0.11809703890E+03  0.15516072748E+03  0.47000000000E+01 0.  1.
         11    1    6    6    0    0  0.43259621370E+02 -0.20457368311E+02  0.10035163560E+03  0.11117710883E+03  0.00000000000E+00 0. -1.
        -12    1    6    6    0    0 -0.27912230329E+02 -0.48909836419E+02  0.60399997935E+02  0.82579806558E+02  0.00000000000E+00 0.  1.
<mgrwt>
<rscale>  2 0.20963150E+03</rscale>
<asrwt>0</asrwt>
<pdfrwt beam="1">  1       21 0.71440142E-01 0.20973064E+03</pdfrwt>
<pdfrwt beam="2">  1       21 0.16590370E-01 0.20973064E+03</pdfrwt>
<totfact> 0.57329307E+04</totfact>
</mgrwt>
</event>
<event>
11    1  0.1050690E-001  0.2099072E+03  0.7546771E-02  0.1141691E+00
         21   -1    0    0  501  502  0.00000000000E+00  0.00000000000E+00  0.10018655032E+04  0.10018655032E+04  0.00000000000E+00 0. -1.
         21   -1    0    0  502  503 -0.00000000000E+00 -0.00000000000E+00 -0.46452026394E+02  0.46452026394E+02  0.00000000000E+00 0.  1.
         -6    2    1    2    0  503 -0.11801837567E+03  0.18275699987E+02  0.35571756835E+03  0.41303270026E+03  0.17262295574E+03 0.  0.
        -24    2    3    3    0    0  0.53422763664E+00 -0.30156157774E+02  0.15720142776E+03  0.17674661800E+03  0.74949308427E+02 0.  0.
          6    2    1    2  501    0  0.11801837567E+03 -0.18275699987E+02  0.59969590843E+03  0.63528482931E+03  0.17230581405E+03 0.  0.
          5    1    5    5  501    0  0.76561287675E+02  0.25087526362E+02  0.28359793381E+03  0.29485741098E+03  0.47000000000E+01 0. -1.
        -13    1    5    5    0    0  0.64813001278E+02 -0.12768525157E+02  0.93235918812E+02  0.11426590448E+03  0.00000000000E+00 0.  1.
         14    1    5    5    0    0 -0.23355913288E+02 -0.30594701192E+02  0.22286205581E+03  0.22616151385E+03  0.00000000000E+00 0. -1.
         -5    1    3    3    0  503 -0.11855260330E+03  0.48431857761E+02  0.19851614059E+03  0.23628608226E+03  0.47000000000E+01 0.  1.
         11    1    4    4    0    0  0.16370105342E+02 -0.27410029105E+01  0.13948017080E+03  0.14046427123E+03  0.00000000000E+00 0. -1.
        -12    1    4    4    0    0 -0.15835877705E+02 -0.27415154863E+02  0.17721256959E+02  0.36282346769E+02  0.00000000000E+00 0.  1.
<mgrwt>
<rscale>  2 0.20984196E+03</rscale>
<asrwt>0</asrwt>
<pdfrwt beam="1">  1       21 0.15413314E+00 0.20990718E+03</pdfrwt>
<pdfrwt beam="2">  1       21 0.71464664E-02 0.20990718E+03</pdfrwt>
<totfact> 0.40187892E+04</totfact>
</mgrwt>
</event>
<event>
12    1  0.1050690E-001  0.2859129E+03  0.7546771E-02  0.1092903E+00
         21   -1    0    0  501  502  0.00000000000E+00  0.00000000000E+00  0.24438117588E+03  0.24438117588E+03  0.00000000000E+00 0.  1.
         21   -1    0    0  502  503 -0.00000000000E+00 -0.00000000000E+00 -0.33438633386E+03  0.33438633386E+03  0.00000000000E+00 0. -1.
         -6    2    1    2    0  503 -0.41974045605E+02 -0.21845283506E+03 -0.73864611698E+02  0.29239937717E+03  0.17480833293E+03 0.  0.
        -24    2    3    3    0    0 -0.14803896037E+02 -0.21947708103E+03 -0.95580547721E+02  0.25728616051E+03  0.93119186274E+02 0.  0.
          6    2    1    2  501    0  0.41974045605E+02  0.21845283506E+03 -0.16140546286E+02  0.28636813256E+03  0.17961828544E+03 0.  0.
         24    2    5    5    0    0  0.81951626280E+01  0.12913792831E+03 -0.80887552724E+02  0.17090198885E+03  0.76947569075E+02 0.  0.
          5    1    5    5  501    0  0.33778882977E+02  0.89314906745E+02  0.64747006438E+02  0.11546614372E+03  0.47000000000E+01 0. -1.
        -11    1    6    6    0    0 -0.12494814078E+02  0.10780695355E+03 -0.31059732182E+02  0.11288563494E+03  0.00000000000E+00 0.  1.
         12    1    6    6    0    0  0.20689976706E+02  0.21330974760E+02 -0.49827820541E+02  0.58016353903E+02  0.00000000000E+00 0. -1.
         -5    1    3    3    0  503 -0.27170149568E+02  0.10242459660E+01  0.21715936024E+02  0.35113216668E+02  0.47000000000E+01 0.  1.
         11    1    4    4    0    0 -0.24199010853E+02 -0.20469585732E+03 -0.55372891743E+02  0.21342948079E+03  0.00000000000E+00 0. -1.
        -12    1    4    4    0    0  0.93951148162E+01 -0.14781223708E+02 -0.40207655979E+02  0.43856679719E+02  0.00000000000E+00 0.  1.
<mgrwt>
<rscale>  2 0.28516070E+03</rscale>
<asrwt>0</asrwt>
<pdfrwt beam="1">  1       21 0.37597104E-01 0.28591291E+03</pdfrwt>
<pdfrwt beam="2">  1       21 0.51444051E-01 0.28591291E+03</pdfrwt>
<totfact> 0.23400772E+04</totfact>
</mgrwt>
</event>
<event>
12    1  0.1050690E-001  0.1947871E+03  0.7546771E-02  0.1154366E+00
         21   -1    0    0  503  502  0.00000000000E+00  0.00000000000E+00  0.26758813305E+03  0.26758813305E+03  0.00000000000E+00 0.  1.
         21   -1    0    0  501  503 -0.00000000000E+00 -0.00000000000E+00 -0.21972300233E+03  0.21972300233E+03  0.00000000000E+00 0.  1.
          6    2    1    2  501    0 -0.19072259424E+02  0.86611729352E+02 -0.12162123186E+03  0.22963826183E+03  0.17342625094E+03 0.  0.
         24    2    3    3    0    0  0.14683366010E+02  0.10066429962E+03 -0.13754295612E+03  0.18948221268E+03  0.81464972168E+02 0.  0.
         -6    2    1    2    0  502  0.19072259424E+02 -0.86611729352E+02  0.16948636258E+03  0.25767287356E+03  0.17263933482E+03 0.  0.
        -24    2    5    5    0    0  0.63009899892E+02 -0.33931997204E+02  0.14892507539E+03  0.18590570168E+03  0.85209294781E+02 0.  0.
          5    1    3    3  501    0 -0.33755625433E+02 -0.14052570264E+02  0.15921724258E+02  0.40156049143E+02  0.47000000000E+01 0. -1.
        -13    1    4    4    0    0 -0.24486438500E+02  0.47290322824E+02 -0.10019883117E+03  0.11347143284E+03  0.00000000000E+00 0.  1.
         14    1    4    4    0    0  0.39169804510E+02  0.53373976792E+02 -0.37344124952E+02  0.76010779843E+02  0.00000000000E+00 0. -1.
         -5    1    5    5    0  502 -0.43937640469E+02 -0.52679732148E+02  0.20561287188E+02  0.71767171882E+02  0.47000000000E+01 0.  1.
         13    1    6    6    0    0  0.25599305785E+02  0.20867284420E+02  0.14647316932E+02  0.36129100584E+02  0.00000000000E+00 0. -1.
        -14    1    6    6    0    0  0.37410594108E+02 -0.54799281624E+02  0.13427775846E+03  0.14977660110E+03  0.00000000000E+00 0.  1.
<mgrwt>
<rscale>  2 0.19461177E+03</rscale>
<asrwt>0</asrwt>
<pdfrwt beam="1">  1       21 0.41167405E-01 0.19478708E+03</pdfrwt>
<pdfrwt beam="2">  1       21 0.33803539E-01 0.19478708E+03</pdfrwt>
<totfact> 0.47861001E+04</totfact>
</mgrwt>
</event>
<event>
12    1  0.1050690E-001  0.2851209E+03  0.7546771E-02  0.1093345E+00
         21   -1    0    0  503  502  0.00000000000E+00  0.00000000000E+00  0.48469069403E+02  0.48469069403E+02  0.00000000000E+00 0. -1.
         21   -1    0    0  501  503 -0.00000000000E+00 -0.00000000000E+00 -0.19096473111E+04  0.19096473111E+04  0.00000000000E+00 0.  1.
          6    2    1    2  501    0 -0.16896509139E+03  0.15094431307E+03 -0.12898588481E+04  0.13209957610E+04  0.17309120376E+03 0.  0.
         24    2    3    3    0    0 -0.16137004034E+03  0.16369939594E+03 -0.94855559411E+03  0.97933748418E+03  0.80662324885E+02 0.  0.
         -6    2    1    2    0  502  0.16896509139E+03 -0.15094431307E+03 -0.57131939361E+03  0.63712061951E+03  0.16787926176E+03 0.  0.
        -24    2    5    5    0    0  0.15889828348E+03 -0.65522755045E+02 -0.44893844086E+03  0.48746310786E+03  0.80824884297E+02 0.  0.
          5    1    3    3  501    0 -0.75950510504E+01 -0.12755082865E+02 -0.34130325397E+03  0.34165827681E+03  0.47000000000E+01 0. -1.
        -13    1    4    4    0    0 -0.98159152356E+02  0.63289662298E+02 -0.59648169592E+03  0.60780853409E+03  0.00000000000E+00 0.  1.
         14    1    4    4    0    0 -0.63210887987E+02  0.10040973364E+03 -0.35207389819E+03  0.37152895009E+03  0.00000000000E+00 0. -1.
         -5    1    5    5    0  502  0.10066807916E+02 -0.85421558027E+02 -0.12238095275E+03  0.14965751165E+03  0.47000000000E+01 0.  1.
         13    1    6    6    0    0  0.13123580946E+01 -0.27767693193E+02 -0.60615088242E+02  0.66685500610E+02  0.00000000000E+00 0. -1.
        -14    1    6    6    0    0  0.15758592538E+03 -0.37755061852E+02 -0.38832335261E+03  0.42077760725E+03  0.00000000000E+00 0.  1.
<mgrwt>
<rscale>  2 0.28433428E+03</rscale>
<asrwt>0</asrwt>
<pdfrwt beam="1">  1       21 0.74567794E-02 0.28512094E+03</pdfrwt>
<pdfrwt beam="2">  1       21 0.29379191E+00 0.28512094E+03</pdfrwt>
<totfact> 0.46044249E+03</totfact>
</mgrwt>
</event>
<event>
12    1  0.1050690E-001  0.1743000E+03  0.7546771E-02  0.1173657E+00
         21   -1    0    0  501  502  0.00000000000E+00  0.00000000000E+00  0.48639972249E+03  0.48639972249E+03  0.00000000000E+00 0. -1.
         21   -1    0    0  502  503 -0.00000000000E+00 -0.00000000000E+00 -0.16529233338E+03  0.16529233338E+03  0.00000000000E+00 0. -1.
         -6    2    1    2    0  503  0.17411809069E+02 -0.41046093118E+01 -0.96998834411E+02  0.19870936939E+03  0.17250107447E+03 0.  0.
        -24    2    3    3    0    0  0.41377913045E+02 -0.62442181349E+02 -0.51766756611E+02  0.12095541571E+03  0.79619456157E+02 0.  0.
          6    2    1    2  501    0 -0.17411809069E+02  0.41046093118E+01  0.41810622352E+03  0.45298268648E+03  0.17337958700E+03 0.  0.
         24    2    5    5    0    0  0.57030234631E+02  0.15231470661E+02  0.23782265791E+03  0.25756088896E+03  0.79331894901E+02 0.  0.
          5    1    5    5  501    0 -0.74442043700E+02 -0.11126861349E+02  0.18028356562E+03  0.19542179752E+03  0.47000000000E+01 0. -1.
        -11    1    6    6    0    0 -0.74290613499E+01  0.11361945529E+02  0.28429933859E+01  0.13869656454E+02  0.00000000000E+00 0.  1.
         12    1    6    6    0    0  0.64459295981E+02  0.38695251314E+01  0.23497966452E+03  0.24369123251E+03  0.00000000000E+00 0. -1.
         -5    1    3    3    0  503 -0.23966103977E+02  0.58337572038E+02 -0.45232077800E+02  0.77753953682E+02  0.47000000000E+01 0.  1.
         13    1    4    4    0    0  0.25229525036E+02 -0.34554070608E+02 -0.71387147147E+02  0.83226423130E+02  0.00000000000E+00 0. -1.
        -14    1    4    4    0    0  0.16148388009E+02 -0.27888110741E+02  0.19620390536E+02  0.37728992576E+02  0.00000000000E+00 0.  1.
<mgrwt>
<rscale>  2 0.17408115E+03</rscale>
<asrwt>0</asrwt>
<pdfrwt beam="1">  1       21 0.74830726E-01 0.17430003E+03</pdfrwt>
<pdfrwt beam="2">  1       21 0.25429590E-01 0.17430003E+03</pdfrwt>
<totfact> 0.23682766E+04</totfact>
</mgrwt>
</event>
<event>
12    1  0.1050690E-001  0.1950121E+03  0.7546771E-02  0.1154626E+00
         21   -1    0    0  503  502  0.00000000000E+00  0.00000000000E+00  0.19510733311E+03  0.19510733311E+03  0.00000000000E+00 0. -1.
         21   -1    0    0  501  503 -0.00000000000E+00 -0.00000000000E+00 -0.27296145499E+03  0.27296145499E+03  0.00000000000E+00 0.  1.
          6    2    1    2  501    0 -0.46211751652E+02  0.73242232315E+02 -0.16606380586E+03  0.25403452117E+03  0.17162866818E+03 0.  0.
         24    2    3    3    0    0 -0.68119179666E+02  0.90049837066E+02 -0.75079787469E+02  0.15883676603E+03  0.82722112908E+02 0.  0.
         -6    2    1    2    0  502  0.46211751652E+02 -0.73242232315E+02  0.88209683986E+02  0.21403426694E+03  0.17472769811E+03 0.  0.
        -24    2    5    5    0    0  0.32248591857E+02  0.15318755939E+02  0.87837935747E+02  0.12425539042E+03  0.80307304346E+02 0.  0.
          5    1    3    3  501    0  0.21907428014E+02 -0.16807604751E+02 -0.90984018394E+02  0.95197755135E+02  0.47000000000E+01 0. -1.
        -13    1    4    4    0    0  0.59131026829E+01  0.42044182280E+02 -0.52948411164E+02  0.67869082002E+02  0.00000000000E+00 0.  1.
         14    1    4    4    0    0 -0.74032282349E+02  0.48005654786E+02 -0.22131376305E+02  0.90967684033E+02  0.00000000000E+00 0. -1.
         -5    1    5    5    0  502  0.13963159795E+02 -0.88560988254E+02  0.37174823925E+00  0.89778876517E+02  0.47000000000E+01 0.  1.
         11    1    6    6    0    0  0.59009930095E+02  0.14171927831E+02  0.55237914787E+02  0.82062431224E+02  0.00000000000E+00 0. -1.
        -12    1    6    6    0    0 -0.26761338238E+02  0.11468281077E+01  0.32600020959E+02  0.42192959194E+02  0.00000000000E+00 0.  1.
<mgrwt>
<rscale>  2 0.19431544E+03</rscale>
<asrwt>0</asrwt>
<pdfrwt beam="1">  1       21 0.30016513E-01 0.19501210E+03</pdfrwt>
<pdfrwt beam="2">  1       21 0.41994070E-01 0.19501210E+03</pdfrwt>
<totfact> 0.58035495E+04</totfact>
</mgrwt>
</event>
<event>
12    1  0.1050690E-001  0.1926369E+03  0.7546771E-02  0.1156895E+00
         21   -1    0    0  503  502  0.00000000000E+00  0.00000000000E+00  0.15050437666E+03  0.15050437666E+03  0.00000000000E+00 0.  1.
         21   -1    0    0  501  503 -0.00000000000E+00 -0.00000000000E+00 -0.24345028987E+03  0.24345028987E+03  0.00000000000E+00 0.  1.
          6    2    1    2  501    0 -0.75213838154E+02  0.42210917970E+02 -0.60924522426E+02  0.19867450544E+03  0.16828808227E+03 0.  0.
         24    2    3    3    0    0 -0.90072928450E+02  0.10666746383E+02  0.85045443356E+01  0.12083934220E+03  0.79390852311E+02 0.  0.
         -6    2    1    2    0  502  0.75213838154E+02 -0.42210917970E+02 -0.32021390779E+02  0.19528016109E+03  0.17225007635E+03 0.  0.
        -24    2    5    5    0    0  0.13736190968E+02 -0.11314505482E+02  0.43622252536E+02  0.92917373991E+02  0.80087680054E+02 0.  0.
          5    1    3    3  501    0  0.14859090296E+02  0.31544171587E+02 -0.69429066762E+02  0.77835163242E+02  0.47000000000E+01 0. -1.
        -13    1    4    4    0    0 -0.64860063766E+02  0.43856943450E+02  0.11095388678E+02  0.79078233481E+02  0.00000000000E+00 0.  1.
         14    1    4    4    0    0 -0.25212864684E+02 -0.33190197067E+02 -0.25908443421E+01  0.41761108718E+02  0.00000000000E+00 0. -1.
         -5    1    5    5    0  502  0.61477647186E+02 -0.30896412488E+02 -0.75643643314E+02  0.10236278710E+03  0.47000000000E+01 0.  1.
         11    1    6    6    0    0 -0.60683576628E+01  0.22930057096E+02 -0.10450065497E+02  0.25919420365E+02  0.00000000000E+00 0. -1.
        -12    1    6    6    0    0  0.19804548631E+02 -0.34244562578E+02  0.54072318033E+02  0.66997953626E+02  0.00000000000E+00 0.  1.
<mgrwt>
<rscale>  2 0.19174715E+03</rscale>
<asrwt>0</asrwt>
<pdfrwt beam="1">  1       21 0.23154520E-01 0.19263689E+03</pdfrwt>
<pdfrwt beam="2">  1       21 0.37453890E-01 0.19263689E+03</pdfrwt>
<totfact> 0.12049406E+05</totfact>
</mgrwt>
</event>
<event>
12    1  0.1050690E-001  0.2320406E+03  0.7546771E-02  0.1125325E+00
         21   -1    0    0  503  502  0.00000000000E+00  0.00000000000E+00  0.38470253488E+03  0.38470253488E+03  0.00000000000E+00 0.  1.
         21   -1    0    0  501  503 -0.00000000000E+00 -0.00000000000E+00 -0.21243016307E+03  0.21243016307E+03  0.00000000000E+00 0.  1.
          6    2    1    2  501    0  0.15457937675E+03  0.10610516562E+02 -0.88803076931E+02  0.24784312001E+03  0.17185126967E+03 0.  0.
         24    2    3    3    0    0  0.73559351245E+02  0.59325112426E+02 -0.92776928301E+02  0.15310538794E+03  0.76832638064E+02 0.  0.
         -6    2    1    2    0  502 -0.15457937675E+03 -0.10610516562E+02  0.26107544874E+03  0.34928957794E+03  0.17272942003E+03 0.  0.
        -24    2    5    5    0    0 -0.13020665627E+03  0.54726318621E+02  0.17175215717E+03  0.23587144908E+03  0.78662530558E+02 0.  0.
          5    1    3    3  501    0  0.81020025507E+02 -0.48714595864E+02  0.39738513698E+01  0.94737732072E+02  0.47000000000E+01 0. -1.
        -11    1    4    4    0    0  0.45596028421E+02 -0.68343653508E+01 -0.55596007364E+02  0.72226189103E+02  0.00000000000E+00 0.  1.
         12    1    4    4    0    0  0.27963322824E+02  0.66159477777E+02 -0.37180920936E+02  0.80879198839E+02  0.00000000000E+00 0. -1.
         -5    1    5    5    0  502 -0.24372720480E+02 -0.65336835183E+02  0.89323291573E+02  0.11341812885E+03  0.47000000000E+01 0.  1.
         13    1    6    6    0    0 -0.87571382549E+01 -0.94911555536E+01  0.52138881310E+02  0.53714359797E+02  0.00000000000E+00 0. -1.
        -14    1    6    6    0    0 -0.12144951802E+03  0.64217474175E+02  0.11961327586E+03  0.18215708929E+03  0.00000000000E+00 0.  1.
<mgrwt>
<rscale>  2 0.23187715E+03</rscale>
<asrwt>0</asrwt>
<pdfrwt beam="1">  1       21 0.59185005E-01 0.23204056E+03</pdfrwt>
<pdfrwt beam="2">  1       21 0.32681564E-01 0.23204056E+03</pdfrwt>
<totfact> 0.23528946E+04</totfact>
</mgrwt>
</event>
<event>
12    1  0.1050690E-001  0.2172525E+03  0.7546771E-02  0.1139584E+00
         21   -1    0    0  501  502  0.00000000000E+00  0.00000000000E+00  0.12979619329E+04  0.12979619329E+04  0.00000000000E+00 0. -1.
         21   -1    0    0  502  503 -0.00000000000E+00 -0.00000000000E+00 -0.34527709189E+02  0.34527709189E+02  0.00000000000E+00 0. -1.
         -6    2    1    2    0  503 -0.20188721346E+02 -0.97213745729E+02  0.48261684967E+03  0.52201175421E+03  0.17239243349E+03 0.  0.
        -24    2    3    3    0    0 -0.23793990911E+02 -0.51799583021E+02  0.11757479380E+03  0.15410791257E+03  0.81707195368E+02 0.  0.
          6    2    1    2  501    0  0.20188721346E+02  0.97213745729E+02  0.78081737401E+03  0.81047788785E+03  0.19323700034E+03 0.  0.
         24    2    5    5    0    0 -0.32327398995E+02 -0.12005204495E+02  0.44473730075E+03  0.45318441236E+03  0.79972865794E+02 0.  0.
          5    1    5    5  501    0  0.52516120341E+02  0.10921895022E+03  0.33608007326E+03  0.35729347549E+03  0.47000000000E+01 0. -1.
        -11    1    6    6    0    0 -0.54527194758E+02 -0.10302757750E+02  0.20377565528E+03  0.21119630553E+03  0.00000000000E+00 0.  1.
         12    1    6    6    0    0  0.22199795762E+02 -0.17024467448E+01  0.24096164548E+03  0.24198810683E+03  0.00000000000E+00 0. -1.
         -5    1    3    3    0  503  0.36052695655E+01 -0.45414162708E+02  0.36504205586E+03  0.36790384164E+03  0.47000000000E+01 0.  1.
         13    1    4    4    0    0  0.18525887823E+01 -0.30162584863E+02  0.11669235829E+03  0.12054177738E+03  0.00000000000E+00 0. -1.
        -14    1    4    4    0    0 -0.25646579693E+02 -0.21636998158E+02  0.88243551264E+00  0.33566135191E+02  0.00000000000E+00 0.  1.
<mgrwt>
<rscale>  2 0.21252217E+03</rscale>
<asrwt>0</asrwt>
<pdfrwt beam="1">  1       21 0.19968641E+00 0.21725247E+03</pdfrwt>
<pdfrwt beam="2">  1       21 0.53119563E-02 0.21725247E+03</pdfrwt>
<totfact> 0.32194263E+04</totfact>
</mgrwt>
</event>
<event>
12    1  0.1050690E-001  0.2095936E+03  0.7546771E-02  0.1142321E+00
         21   -1    0    0  501  502  0.00000000000E+00  0.00000000000E+00  0.14315605013E+04  0.14315605013E+04  0.00000000000E+00 0. -1.
         21   -1    0    0  502  503 -0.00000000000E+00 -0.00000000000E+00 -0.31720248044E+02  0.31720248044E+02  0.00000000000E+00 0. -1.
         -6    2    1    2    0  503  0.11089645477E+03  0.31262282456E+02  0.55242921103E+03  0.59085318790E+03  0.17508313019E+03 0.  0.
        -24    2    3    3    0    0  0.82868088162E+02 -0.20056256731E+02  0.19391149078E+03  0.22756786267E+03  0.83163047050E+02 0.  0.
          6    2    1    2  501    0 -0.11089645477E+03 -0.31262282456E+02  0.84741104227E+03  0.87242756148E+03  0.17247904650E+03 0.  0.
         24    2    5    5    0    0 -0.74457667337E+02 -0.57585671365E+02  0.78893425832E+03  0.79851998206E+03  0.79729818999E+02 0.  0.
          5    1    5    5  501    0 -0.36438787437E+02  0.26323388909E+02  0.58476783948E+02  0.73907579411E+02  0.47000000000E+01 0. -1.
        -11    1    6    6    0    0  0.11437152669E+02 -0.31190022851E+02  0.23750787850E+03  0.23981997068E+03  0.00000000000E+00 0.  1.
         12    1    6    6    0    0 -0.85894820006E+02 -0.26395648514E+02  0.55142637982E+03  0.55870001139E+03  0.00000000000E+00 0. -1.
         -5    1    3    3    0  503  0.28028366612E+02  0.51318539187E+02  0.35851772024E+03  0.36328532523E+03  0.47000000000E+01 0.  1.
         11    1    4    4    0    0  0.61936252942E+02 -0.45869787864E+02  0.16991051631E+03  0.18657363270E+03  0.00000000000E+00 0. -1.
        -12    1    4    4    0    0  0.20931835220E+02  0.25813531133E+02  0.24000974471E+02  0.40994229970E+02  0.00000000000E+00 0.  1.
<mgrwt>
<rscale>  2 0.20904884E+03</rscale>
<asrwt>0</asrwt>
<pdfrwt beam="1">  1       21 0.22024003E+00 0.20959355E+03</pdfrwt>
<pdfrwt beam="2">  1       21 0.48800393E-02 0.20959355E+03</pdfrwt>
<totfact> 0.27745181E+04</totfact>
</mgrwt>
</event>
<event>
12    1  0.1050690E-001  0.1769127E+03  0.7546771E-02  0.1170929E+00
         21   -1    0    0  501  502  0.00000000000E+00  0.00000000000E+00  0.59907935848E+02  0.59907935848E+02  0.00000000000E+00 0.  1.
         21   -1    0    0  502  503 -0.00000000000E+00 -0.00000000000E+00 -0.10936560514E+04  0.10936560514E+04  0.00000000000E+00 0.  1.
         -6    2    1    2    0  503  0.26402306200E+02  0.23411598160E+02 -0.93446514882E+03  0.95106425596E+03  0.17335778007E+03 0.  0.
        -24    2    3    3    0    0  0.61420687558E+02  0.61807841099E+02 -0.73563412502E+03  0.74550058084E+03  0.83790453253E+02 0.  0.
          6    2    1    2  501    0 -0.26402306200E+02 -0.23411598160E+02 -0.99282966773E+02  0.20249973133E+03  0.17292729396E+03 0.  0.
         24    2    5    5    0    0 -0.29958144304E+02  0.25549710969E+02  0.21145577256E+01  0.89746009656E+02  0.80620076619E+02 0.  0.
          5    1    5    5  501    0  0.35558381040E+01 -0.48961309129E+02 -0.10139752450E+03  0.11275372167E+03  0.47000000000E+01 0. -1.
        -13    1    6    6    0    0 -0.46918643292E+02  0.20668315279E+02 -0.25276405847E+02  0.57161482113E+02  0.00000000000E+00 0.  1.
         14    1    6    6    0    0  0.16960498988E+02  0.48813956899E+01  0.27390963572E+02  0.32584527543E+02  0.00000000000E+00 0. -1.
         -5    1    3    3    0  503 -0.35018381359E+02 -0.38396242939E+02 -0.19883102380E+03  0.20556367512E+03  0.47000000000E+01 0.  1.
         13    1    4    4    0    0  0.30944182273E+01 -0.10366836851E+02 -0.12911972141E+02  0.16845348172E+02  0.00000000000E+00 0. -1.
        -14    1    4    4    0    0  0.58326269331E+02  0.72174677951E+02 -0.72272215288E+03  0.72865523267E+03  0.00000000000E+00 0.  1.
<mgrwt>
<rscale>  2 0.17680716E+03</rscale>
<asrwt>0</asrwt>
<pdfrwt beam="1">  1       21 0.92166055E-02 0.17691270E+03</pdfrwt>
<pdfrwt beam="2">  1       21 0.16825478E+00 0.17691270E+03</pdfrwt>
<totfact> 0.20796437E+04</totfact>
</mgrwt>
</event>
<event>
12    1  0.1050690E-001  0.1850013E+03  0.7546771E-02  0.1163310E+00
         21   -1    0    0  503  502  0.00000000000E+00  0.00000000000E+00  0.69005356153E+03  0.69005356153E+03  0.00000000000E+00 0.  1.
         21   -1    0    0  501  503 -0.00000000000E+00 -0.00000000000E+00 -0.10254226263E+03  0.10254226263E+03  0.00000000000E+00 0.  1.
          6    2    1    2  501    0  0.21988426225E+02  0.61389653235E+02  0.77657215099E+01  0.18404801945E+03  0.17193366924E+03 0.  0.
         24    2    3    3    0    0  0.29475798133E+01  0.79536035301E+02  0.58952990743E+02  0.12630659978E+03  0.78378778321E+02 0.  0.
         -6    2    1    2    0  502 -0.21988426225E+02 -0.61389653235E+02  0.57974557740E+03  0.60854780472E+03  0.17312803268E+03 0.  0.
        -24    2    5    5    0    0  0.40372154864E+02 -0.30776371725E+01  0.21929900077E+03  0.23809813486E+03  0.83422343217E+02 0.  0.
          5    1    3    3  501    0  0.19040846411E+02 -0.18146382066E+02 -0.51187269233E+02  0.57741419672E+02  0.47000000000E+01 0. -1.
        -11    1    4    4    0    0  0.24688657879E+02  0.83876513936E+02  0.36483557858E+02  0.94740959526E+02  0.00000000000E+00 0.  1.
         12    1    4    4    0    0 -0.21741078065E+02 -0.43404786346E+01  0.22469432885E+02  0.31565640250E+02  0.00000000000E+00 0. -1.
         -5    1    5    5    0  502 -0.62360581088E+02 -0.58312016063E+02  0.36044657663E+03  0.37044966985E+03  0.47000000000E+01 0.  1.
         11    1    6    6    0    0  0.28749433783E+02  0.29667185050E+02  0.18394806133E+03  0.18853000047E+03  0.00000000000E+00 0. -1.
        -12    1    6    6    0    0  0.11622721081E+02 -0.32744822222E+02  0.35350939446E+02  0.49568134395E+02  0.00000000000E+00 0.  1.
<mgrwt>
<rscale>  2 0.18472140E+03</rscale>
<asrwt>0</asrwt>
<pdfrwt beam="1">  1       21 0.10616208E+00 0.18500134E+03</pdfrwt>
<pdfrwt beam="2">  1       21 0.15775733E-01 0.18500134E+03</pdfrwt>
<totfact> 0.25573849E+04</totfact>
</mgrwt>
</event>
<event>
12    1  0.1050690E-001  0.1867094E+03  0.7546771E-02  0.1161555E+00
         21   -1    0    0  503  502  0.00000000000E+00  0.00000000000E+00  0.82278130202E+02  0.82278130202E+02  0.00000000000E+00 0. -1.
         21   -1    0    0  501  503 -0.00000000000E+00 -0.00000000000E+00 -0.74859327260E+03  0.74859327260E+03  0.00000000000E+00 0. -1.
          6    2    1    2  501    0  0.49824380747E+02  0.47160401941E+02 -0.60742521162E+03  0.63547287344E+03  0.17364853219E+03 0.  0.
         24    2    3    3    0    0 -0.29645299328E+02  0.60834544167E+02 -0.30804577806E+03  0.32538813106E+03  0.80034673209E+02 0.  0.
         -6    2    1    2    0  502 -0.49824380747E+02 -0.47160401941E+02 -0.58889930774E+02  0.19539852936E+03  0.17322236837E+03 0.  0.
        -24    2    5    5    0    0 -0.66356343010E+02  0.12017047040E+02  0.53671962009E+01  0.10636850852E+03  0.82084585232E+02 0.  0.
          5    1    3    3  501    0  0.79469680075E+02 -0.13674142226E+02 -0.29937943356E+03  0.31008474238E+03  0.47000000000E+01 0. -1.
        -13    1    4    4    0    0 -0.13603851146E+02 -0.14641925985E+02 -0.24967334162E+02  0.31981534324E+02  0.00000000000E+00 0.  1.
         14    1    4    4    0    0 -0.16041448182E+02  0.75476470153E+02 -0.28307844390E+03  0.29340659674E+03  0.00000000000E+00 0. -1.
         -5    1    5    5    0  502  0.16531962263E+02 -0.59177448981E+02 -0.64257126975E+02  0.89030020843E+02  0.47000000000E+01 0.  1.
         11    1    6    6    0    0 -0.18172144335E+02 -0.26073235440E+02 -0.22481245404E+02  0.38928740423E+02  0.00000000000E+00 0. -1.
        -12    1    6    6    0    0 -0.48184198675E+02  0.38090282479E+02  0.27848441605E+02  0.67439768098E+02  0.00000000000E+00 0.  1.
<mgrwt>
<rscale>  2 0.18661021E+03</rscale>
<asrwt>0</asrwt>
<pdfrwt beam="1">  1       21 0.12658174E-01 0.18670936E+03</pdfrwt>
<pdfrwt beam="2">  1       21 0.11516819E+00 0.18670936E+03</pdfrwt>
<totfact> 0.31257273E+04</totfact>
</mgrwt>
</event>
<event>
12    1  0.1050690E-001  0.1853676E+03  0.7546771E-02  0.1162846E+00
         21   -1    0    0  501  502  0.00000000000E+00  0.00000000000E+00  0.20254922782E+03  0.20254922782E+03  0.00000000000E+00 0.  1.
         21   -1    0    0  502  503 -0.00000000000E+00 -0.00000000000E+00 -0.17475214455E+03  0.17475214455E+03  0.00000000000E+00 0.  1.
         -6    2    1    2    0  503 -0.62857989375E+02 -0.42229923909E+01 -0.20049567676E+02  0.18585828315E+03  0.17370191639E+03 0.  0.
        -24    2    3    3    0    0  0.22069000708E+02  0.38176672768E+02 -0.25328543449E+02  0.90672765155E+02  0.75070074542E+02 0.  0.
          6    2    1    2  501    0  0.62857989375E+02  0.42229923909E+01  0.47846650941E+02  0.19144308922E+03  0.17433357081E+03 0.  0.
         24    2    5    5    0    0  0.55030755655E+02 -0.60006340892E+02  0.70917824489E+01  0.11482897729E+03  0.80661363929E+02 0.  0.
          5    1    5    5  501    0  0.78272337196E+01  0.64229333283E+02  0.40754868492E+02  0.76614111935E+02  0.47000000000E+01 0. -1.
        -11    1    6    6    0    0  0.49771810037E+02 -0.37322232274E+02 -0.31519192570E+02  0.69739813568E+02  0.00000000000E+00 0.  1.
         12    1    6    6    0    0  0.52589456183E+01 -0.22684108619E+02  0.38610975019E+02  0.45089163717E+02  0.00000000000E+00 0. -1.
         -5    1    3    3    0  503 -0.84926990083E+02 -0.42399665159E+02  0.52789757728E+01  0.95185517992E+02  0.47000000000E+01 0.  1.
         13    1    4    4    0    0 -0.11334026567E+02  0.48675754554E+02 -0.24472949469E+02  0.55648131103E+02  0.00000000000E+00 0. -1.
        -14    1    4    4    0    0  0.33403027275E+02 -0.10499081785E+02 -0.85559398009E+00  0.35024634052E+02  0.00000000000E+00 0.  1.
<mgrwt>
<rscale>  2 0.18521896E+03</rscale>
<asrwt>0</asrwt>
<pdfrwt beam="1">  1       21 0.31161420E-01 0.18536762E+03</pdfrwt>
<pdfrwt beam="2">  1       21 0.26884945E-01 0.18536762E+03</pdfrwt>
<totfact> 0.13069862E+05</totfact>
</mgrwt>
</event>
<event>
12    1  0.1050690E-001  0.2288495E+03  0.7546771E-02  0.1127580E+00
         21   -1    0    0  501  502  0.00000000000E+00  0.00000000000E+00  0.22400741088E+03  0.22400741088E+03  0.00000000000E+00 0. -1.
         21   -1    0    0  502  503 -0.00000000000E+00 -0.00000000000E+00 -0.30710087277E+03  0.30710087277E+03  0.00000000000E+00 0. -1.
         -6    2    1    2    0  503  0.48442153130E+02 -0.14205766964E+03 -0.17198448053E+03  0.28627044943E+03  0.17275730078E+03 0.  0.
        -24    2    3    3    0    0  0.74276129644E+02 -0.33104102978E+02 -0.66026107738E+02  0.13203834903E+03  0.80385655701E+02 0.  0.
          6    2    1    2  501    0 -0.48442153130E+02  0.14205766964E+03  0.88891018639E+02  0.24483783422E+03  0.17180491310E+03 0.  0.
         24    2    5    5    0    0 -0.71449229015E+02  0.33456426668E+02  0.68718770224E+02  0.13191057833E+03  0.80335586648E+02 0.  0.
          5    1    5    5  501    0  0.23007075885E+02  0.10860124297E+03  0.20172248415E+02  0.11292725589E+03  0.47000000000E+01 0. -1.
        -11    1    6    6    0    0 -0.35952519919E+02 -0.17121813659E+02  0.44139438125E+00  0.39823799675E+02  0.00000000000E+00 0.  1.
         12    1    6    6    0    0 -0.35496709095E+02  0.50578240327E+02  0.68277375843E+02  0.92086778655E+02  0.00000000000E+00 0. -1.
         -5    1    3    3    0  503 -0.25833976514E+02 -0.10895356666E+03 -0.10595837279E+03  0.15423210041E+03  0.47000000000E+01 0.  1.
         11    1    4    4    0    0  0.46547958010E+02 -0.55235123674E+02 -0.63993659949E+02  0.96502952264E+02  0.00000000000E+00 0. -1.
        -12    1    4    4    0    0  0.27728171634E+02  0.22131020696E+02 -0.20324477889E+01  0.35535396765E+02  0.00000000000E+00 0.  1.
<mgrwt>
<rscale>  2 0.22866980E+03</rscale>
<asrwt>0</asrwt>
<pdfrwt beam="1">  1       21 0.34462679E-01 0.22884953E+03</pdfrwt>
<pdfrwt beam="2">  1       21 0.47246288E-01 0.22884953E+03</pdfrwt>
<totfact> 0.34144504E+04</totfact>
</mgrwt>
</event>
<event>
11    1  0.1050690E-001  0.1887348E+03  0.7546771E-02  0.1159719E+00
         21   -1    0    0  501  502  0.00000000000E+00  0.00000000000E+00  0.39099713636E+02  0.39099713636E+02  0.00000000000E+00 0. -1.
         21   -1    0    0  502  503 -0.00000000000E+00 -0.00000000000E+00 -0.91149086755E+03  0.91149086755E+03  0.00000000000E+00 0. -1.
         -6    2    1    2    0  503 -0.73908615277E+02  0.13326492369E+01 -0.46322699115E+03  0.50020001716E+03  0.17365642076E+03 0.  0.
          6    2    1    2  501    0  0.73908615277E+02 -0.13326492369E+01 -0.40916416276E+03  0.45039056402E+03  0.17312448905E+03 0.  0.
         24    2    4    4    0    0  0.19038752064E+02  0.64211583912E+02 -0.20656157714E+03  0.23044364750E+03  0.77142646660E+02 0.  0.
          5    1    4    4  501    0  0.54869863212E+02 -0.65544233149E+02 -0.20260258562E+03  0.21994691653E+03  0.47000000000E+01 0. -1.
        -13    1    5    5    0    0 -0.27956389757E+01  0.43079452867E+02 -0.19191760634E+03  0.19671304603E+03  0.00000000000E+00 0.  1.
         14    1    5    5    0    0  0.21834391040E+02  0.21132131045E+02 -0.14643970804E+02  0.33730601469E+02  0.00000000000E+00 0. -1.
         -5    1    3    3    0  503 -0.42149772535E+02 -0.72624083445E+02 -0.31534514178E+03  0.32636713877E+03  0.47000000000E+01 0.  1.
         11    1    3    3    0    0 -0.16566088336E+02  0.27621083011E+02 -0.10167668863E+03  0.10665602899E+03  0.00000000000E+00 0. -1.
        -12    1    3    3    0    0 -0.15192754405E+02  0.46335649671E+02 -0.46205160739E+02  0.67176849404E+02  0.00000000000E+00 0.  1.
<mgrwt>
<rscale>  2 0.18861232E+03</rscale>
<asrwt>0</asrwt>
<pdfrwt beam="1">  1       21 0.60153405E-02 0.18873477E+03</pdfrwt>
<pdfrwt beam="2">  1       21 0.14022936E+00 0.18873477E+03</pdfrwt>
<totfact> 0.70090009E+04</totfact>
</mgrwt>
</event>
<event>
12    1  0.1050690E-001  0.2102298E+03  0.7546771E-02  0.1141502E+00
         21   -1    0    0  503  502  0.00000000000E+00  0.00000000000E+00  0.35355424012E+02  0.35355424012E+02  0.00000000000E+00 0. -1.
         21   -1    0    0  501  503 -0.00000000000E+00 -0.00000000000E+00 -0.12723553776E+04  0.12723553776E+04  0.00000000000E+00 0. -1.
          6    2    1    2  501    0  0.10908340929E+03  0.47062266302E+02 -0.52449081288E+03  0.56483405963E+03  0.17272190086E+03 0.  0.
         24    2    3    3    0    0  0.96443726841E+02  0.94189814962E+02 -0.43613428850E+03  0.46379083712E+03  0.81949431383E+02 0.  0.
         -6    2    1    2    0  502 -0.10908340929E+03 -0.47062266302E+02 -0.71250914068E+03  0.74287674194E+03  0.17344316384E+03 0.  0.
        -24    2    5    5    0    0 -0.32375898772E+02  0.37631594026E+02 -0.33462005765E+03  0.34806116321E+03  0.81924688939E+02 0.  0.
          5    1    3    3  501    0  0.12639682452E+02 -0.47127548660E+02 -0.88356524376E+02  0.10104322251E+03  0.47000000000E+01 0. -1.
        -11    1    4    4    0    0 -0.68046171429E+01  0.27219590755E+02 -0.39128665433E+02  0.48148327010E+02  0.00000000000E+00 0.  1.
         12    1    4    4    0    0  0.10324834398E+03  0.66970224207E+02 -0.39700562307E+03  0.41564251011E+03  0.00000000000E+00 0. -1.
         -5    1    5    5    0  502 -0.76707510521E+02 -0.84693860328E+02 -0.37788908302E+03  0.39481557874E+03  0.47000000000E+01 0.  1.
         13    1    6    6    0    0 -0.19820001012E+02  0.17967622586E+01 -0.12052342540E+02  0.23266279364E+02  0.00000000000E+00 0. -1.
        -14    1    6    6    0    0 -0.12555897760E+02  0.35834831767E+02 -0.32256771511E+03  0.32479488384E+03  0.00000000000E+00 0.  1.
<mgrwt>
<rscale>  2 0.21008100E+03</rscale>
<asrwt>0</asrwt>
<pdfrwt beam="1">  1       21 0.54392969E-02 0.21022982E+03</pdfrwt>
<pdfrwt beam="2">  1       21 0.19574695E+00 0.21022982E+03</pdfrwt>
<totfact> 0.32946955E+04</totfact>
</mgrwt>
</event>
<event>
12    1  0.1050690E-001  0.3083813E+03  0.7546771E-02  0.1081182E+00
         21   -1    0    0  501  502  0.00000000000E+00  0.00000000000E+00  0.12553963330E+03  0.12553963330E+03  0.00000000000E+00 0.  1.
         21   -1    0    0  502  503 -0.00000000000E+00 -0.00000000000E+00 -0.95615500255E+03  0.95615500255E+03  0.00000000000E+00 0. -1.
         -6    2    1    2    0  503 -0.87968734969E+02 -0.23899639343E+03 -0.16832694027E+03  0.35133033896E+03  0.17390018358E+03 0.  0.
        -24    2    3    3    0    0 -0.32584799769E+02 -0.22682597092E+03 -0.16510761455E+03  0.29433951935E+03  0.82845868978E+02 0.  0.
          6    2    1    2  501    0  0.87968734969E+02  0.23899639343E+03 -0.66228842898E+03  0.73036429690E+03  0.17305568069E+03 0.  0.
         24    2    5    5    0    0  0.34331623451E+02  0.51641141598E+02 -0.33135406953E+03  0.34628283368E+03  0.79188469087E+02 0.  0.
          5    1    5    5  501    0  0.53637111518E+02  0.18735525183E+03 -0.33093435945E+03  0.38408146322E+03  0.47000000000E+01 0. -1.
        -13    1    6    6    0    0 -0.75291442389E+01  0.54797335725E+02 -0.23044161227E+03  0.23698686183E+03  0.00000000000E+00 0.  1.
         14    1    6    6    0    0  0.41860767690E+02 -0.31561941266E+01 -0.10091245726E+03  0.10929597185E+03  0.00000000000E+00 0. -1.
         -5    1    3    3    0  503 -0.55383935201E+02 -0.12170422512E+02 -0.32193257168E+01  0.56990819616E+02  0.47000000000E+01 0.  1.
         13    1    4    4    0    0 -0.60347893979E+01 -0.48976189638E+02 -0.83222280244E+02  0.96752435440E+02  0.00000000000E+00 0. -1.
        -14    1    4    4    0    0 -0.26550010371E+02 -0.17784978128E+03 -0.81885334311E+02  0.19758708391E+03  0.00000000000E+00 0.  1.
<mgrwt>
<rscale>  2 0.30826241E+03</rscale>
<asrwt>0</asrwt>
<pdfrwt beam="1">  1       21 0.19313790E-01 0.30838134E+03</pdfrwt>
<pdfrwt beam="2">  1       21 0.14710077E+00 0.30838134E+03</pdfrwt>
<totfact> 0.72019221E+03</totfact>
</mgrwt>
</event>
<event>
12    1  0.1050690E-001  0.1771218E+03  0.7546771E-02  0.1170629E+00
         21   -1    0    0  503  502  0.00000000000E+00  0.00000000000E+00  0.22421012868E+02  0.22421012868E+02  0.00000000000E+00 0. -1.
         21   -1    0    0  501  503 -0.00000000000E+00 -0.00000000000E+00 -0.20853908593E+04  0.20853908593E+04  0.00000000000E+00 0. -1.
          6    2    1    2  501    0  0.33536532616E+02 -0.47131076066E+01 -0.16362716932E+04  0.16458302451E+04  0.17385404525E+03 0.  0.
         24    2    3    3    0    0  0.81965526960E+01 -0.58436980234E+02 -0.64222092019E+03  0.64999521933E+03  0.81018582337E+02 0.  0.
         -6    2    1    2    0  502 -0.33536532616E+02  0.47131076066E+01 -0.42669815321E+03  0.46198162712E+03  0.17380678193E+03 0.  0.
        -24    2    5    5    0    0 -0.48382840266E+02 -0.15547731519E+02 -0.11568059993E+03  0.14991605245E+03  0.80685750868E+02 0.  0.
          5    1    3    3  501    0  0.25339979920E+02  0.53723872628E+02 -0.99405077305E+03  0.99583502573E+03  0.47000000000E+01 0. -1.
        -13    1    4    4    0    0 -0.32666502698E+02 -0.16226518928E+02 -0.35220031906E+03  0.35408398023E+03  0.00000000000E+00 0.  1.
         14    1    4    4    0    0  0.40863055394E+02 -0.42210461306E+02 -0.29002060113E+03  0.29591123909E+03  0.00000000000E+00 0. -1.
         -5    1    5    5    0  502  0.14846307650E+02  0.20260839126E+02 -0.31101755327E+03  0.31206557468E+03  0.47000000000E+01 0.  1.
         13    1    6    6    0    0 -0.58388459216E+02  0.17349198764E+02 -0.76472743093E+02  0.97766493767E+02  0.00000000000E+00 0. -1.
        -14    1    6    6    0    0  0.10005618949E+02 -0.32896930283E+02 -0.39207856839E+02  0.52149558680E+02  0.00000000000E+00 0.  1.
<mgrwt>
<rscale>  2 0.17711023E+03</rscale>
<asrwt>0</asrwt>
<pdfrwt beam="1">  1       21 0.34493867E-02 0.17712183E+03</pdfrwt>
<pdfrwt beam="2">  1       21 0.32082935E+00 0.17712183E+03</pdfrwt>
<totfact> 0.13223069E+04</totfact>
</mgrwt>
</event>
<event>
12    1  0.1050690E-001  0.1877296E+03  0.7546771E-02  0.1160550E+00
         21   -1    0    0  501  502  0.00000000000E+00  0.00000000000E+00  0.47173391807E+03  0.47173391807E+03  0.00000000000E+00 0.  1.
         21   -1    0    0  502  503 -0.00000000000E+00 -0.00000000000E+00 -0.10692558421E+03  0.10692558421E+03  0.00000000000E+00 0. -1.
         -6    2    1    2    0  503  0.73972347994E+02  0.23498761341E+02  0.23444297091E+02  0.18908050102E+03  0.17081481419E+03 0.  0.
        -24    2    3    3    0    0  0.37385818873E+02 -0.12708156935E+02  0.74183320832E+02  0.11665085533E+03  0.80901546678E+02 0.  0.
          6    2    1    2  501    0 -0.73972347994E+02 -0.23498761341E+02  0.34136403677E+03  0.38957900127E+03  0.17093359113E+03 0.  0.
         24    2    5    5    0    0  0.61037881478E+00  0.36294489790E+02  0.12610189902E+03  0.15399951581E+03  0.80600864652E+02 0.  0.
          5    1    5    5  501    0 -0.74582726809E+02 -0.59793251131E+02  0.21526213775E+03  0.23557948546E+03  0.47000000000E+01 0. -1.
        -13    1    6    6    0    0 -0.39221409981E+02  0.94189169181E+01  0.58734252074E+02  0.71251297276E+02  0.00000000000E+00 0.  1.
         14    1    6    6    0    0  0.39831788796E+02  0.26875572872E+02  0.67367646942E+02  0.82748218533E+02  0.00000000000E+00 0. -1.
         -5    1    3    3    0  503  0.36586529121E+02  0.36206918276E+02 -0.50739023741E+02  0.72429645687E+02  0.47000000000E+01 0.  1.
         11    1    4    4    0    0  0.51956677712E+01  0.31991338110E+02  0.14726699282E+02  0.35599386924E+02  0.00000000000E+00 0. -1.
        -12    1    4    4    0    0  0.32190151102E+02 -0.44699495044E+02  0.59456621550E+02  0.81051468409E+02  0.00000000000E+00 0.  1.
<mgrwt>
<rscale>  2 0.18770253E+03</rscale>
<asrwt>0</asrwt>
<pdfrwt beam="1">  1       21 0.72574448E-01 0.18772957E+03</pdfrwt>
<pdfrwt beam="2">  1       21 0.16450090E-01 0.18772957E+03</pdfrwt>
<totfact> 0.56819000E+04</totfact>
</mgrwt>
</event>
<event>
12    1  0.1050690E-001  0.2416995E+03  0.7546771E-02  0.1120588E+00
         21   -1    0    0  501  502  0.00000000000E+00  0.00000000000E+00  0.48008668369E+02  0.48008668369E+02  0.00000000000E+00 0.  1.
         21   -1    0    0  502  503 -0.00000000000E+00 -0.00000000000E+00 -0.14503238791E+04  0.14503238791E+04  0.00000000000E+00 0. -1.
         -6    2    1    2    0  503  0.11634046564E+03  0.92644478060E+02 -0.37973923867E+03  0.45013390612E+03  0.19052700802E+03 0.  0.
        -24    2    3    3    0    0  0.62780956634E+02  0.84858153820E+02 -0.37236160836E+03  0.39530902783E+03  0.80459339532E+02 0.  0.
          6    2    1    2  501    0 -0.11634046564E+03 -0.92644478060E+02 -0.10225759721E+04  0.10481986414E+04  0.17589960160E+03 0.  0.
         24    2    5    5    0    0 -0.66169724744E+02 -0.10661010604E+03 -0.93007720590E+03  0.94194303563E+03  0.80429635418E+02 0.  0.
          5    1    5    5  501    0 -0.50170740900E+02  0.13965627979E+02 -0.92498766170E+02  0.10625560574E+03  0.47000000000E+01 0. -1.
        -11    1    6    6    0    0 -0.50933879388E+02 -0.25158054218E+02 -0.22704143648E+03  0.23404059827E+03  0.00000000000E+00 0.  1.
         12    1    6    6    0    0 -0.15235845356E+02 -0.81452051821E+02 -0.70303576942E+03  0.70790243736E+03  0.00000000000E+00 0. -1.
         -5    1    3    3    0  503  0.53559509010E+02  0.77863242403E+01 -0.73776303192E+01  0.54824878292E+02  0.47000000000E+01 0.  1.
         11    1    4    4    0    0  0.53964991515E+02  0.23846398730E+02 -0.26518191755E+03  0.27166582494E+03  0.00000000000E+00 0. -1.
        -12    1    4    4    0    0  0.88159651189E+01  0.61011755090E+02 -0.10717969080E+03  0.12364320289E+03  0.00000000000E+00 0.  1.
<mgrwt>
<rscale>  2 0.23880942E+03</rscale>
<asrwt>0</asrwt>
<pdfrwt beam="1">  1       21 0.73859493E-02 0.24169949E+03</pdfrwt>
<pdfrwt beam="2">  1       21 0.22312674E+00 0.24169949E+03</pdfrwt>
<totfact> 0.12766566E+04</totfact>
</mgrwt>
</event>
<event>
12    1  0.1050690E-001  0.2098507E+03  0.7546771E-02  0.1141813E+00
         21   -1    0    0  503  502  0.00000000000E+00  0.00000000000E+00  0.12672528552E+04  0.12672528552E+04  0.00000000000E+00 0. -1.
         21   -1    0    0  501  503 -0.00000000000E+00 -0.00000000000E+00 -0.44965701948E+02  0.44965701948E+02  0.00000000000E+00 0. -1.
          6    2    1    2  501    0 -0.11280100900E+03 -0.36967147148E+02  0.29604908261E+03  0.36250581884E+03  0.17226366936E+03 0.  0.
         24    2    3    3    0    0 -0.86259263339E+02 -0.98567669823E+00  0.80436449857E+02  0.14225589743E+03  0.79530408141E+02 0.  0.
         -6    2    1    2    0  502  0.11280100900E+03  0.36967147148E+02  0.92623807068E+03  0.94971273834E+03  0.17305110284E+03 0.  0.
        -24    2    5    5    0    0  0.13537888076E+03  0.56576735534E+02  0.86790434314E+03  0.88399204131E+03  0.81581933645E+02 0.  0.
          5    1    3    3  501    0 -0.26541745660E+02 -0.35981470450E+02  0.21561263275E+03  0.22024992141E+03  0.47000000000E+01 0. -1.
        -11    1    4    4    0    0  0.12015690755E+01  0.25039782903E+02  0.25426398987E+02  0.35706249614E+02  0.00000000000E+00 0.  1.
         12    1    4    4    0    0 -0.87460832414E+02 -0.26025459601E+02  0.55010050870E+02  0.10654964782E+03  0.00000000000E+00 0. -1.
         -5    1    5    5    0  502 -0.22577871759E+02 -0.19609588386E+02  0.58333727540E+02  0.65720697034E+02  0.47000000000E+01 0.  1.
         11    1    6    6    0    0  0.41952272195E+02  0.29505844327E+02  0.13078167343E+03  0.14047930131E+03  0.00000000000E+00 0. -1.
        -12    1    6    6    0    0  0.93426608563E+02  0.27070891206E+02  0.73712266971E+03  0.74351274000E+03  0.00000000000E+00 0.  1.
<mgrwt>
<rscale>  2 0.20968831E+03</rscale>
<asrwt>0</asrwt>
<pdfrwt beam="1">  1       21 0.19496195E+00 0.20985071E+03</pdfrwt>
<pdfrwt beam="2">  1       21 0.69178013E-02 0.20985071E+03</pdfrwt>
<totfact> 0.22065264E+04</totfact>
</mgrwt>
</event>
<event>
12    1  0.1050690E-001  0.3044786E+03  0.7546771E-02  0.1083068E+00
         21   -1    0    0  501  502  0.00000000000E+00  0.00000000000E+00  0.32114256916E+03  0.32114256916E+03  0.00000000000E+00 0. -1.
         21   -1    0    0  502  503 -0.00000000000E+00 -0.00000000000E+00 -0.50389646962E+03  0.50389646962E+03  0.00000000000E+00 0. -1.
         -6    2    1    2    0  503 -0.15889174821E+03 -0.19350607101E+03 -0.36115906397E+03  0.47214296736E+03  0.17260337473E+03 0.  0.
        -24    2    3    3    0    0 -0.14889545234E+03 -0.20483689513E+03 -0.26846393483E+03  0.37810685476E+03  0.82242932695E+02 0.  0.
          6    2    1    2  501    0  0.15889174821E+03  0.19350607101E+03  0.17840516351E+03  0.35289607141E+03  0.17325140023E+03 0.  0.
         24    2    5    5    0    0  0.65278463181E+02  0.14716515986E+03  0.17089393390E+03  0.24806556178E+03  0.80080735916E+02 0.  0.
          5    1    5    5  501    0  0.93613285025E+02  0.46340911151E+02  0.75112296133E+01  0.10483050963E+03  0.47000000000E+01 0. -1.
        -11    1    6    6    0    0  0.26097362373E+02  0.10510050594E+03  0.15378538065E+03  0.18808809631E+03  0.00000000000E+00 0.  1.
         12    1    6    6    0    0  0.39181100808E+02  0.42064653924E+02  0.17108553253E+02  0.59977465474E+02  0.00000000000E+00 0. -1.
         -5    1    3    3    0  503 -0.99962958619E+01  0.11330824112E+02 -0.92695129142E+02  0.94036112598E+02  0.47000000000E+01 0.  1.
         11    1    4    4    0    0 -0.57923014237E+02 -0.88769073049E+02 -0.17150765796E+03  0.20161820515E+03  0.00000000000E+00 0. -1.
        -12    1    4    4    0    0 -0.90972438108E+02 -0.11606782208E+03 -0.96956276867E+02  0.17648864961E+03  0.00000000000E+00 0.  1.
<mgrwt>
<rscale>  2 0.30438652E+03</rscale>
<asrwt>0</asrwt>
<pdfrwt beam="1">  1       21 0.49406549E-01 0.30447863E+03</pdfrwt>
<pdfrwt beam="2">  1       21 0.77522534E-01 0.30447863E+03</pdfrwt>
<totfact> 0.53800111E+03</totfact>
</mgrwt>
</event>
<event>
12    1  0.1050690E-001  0.2961825E+03  0.7546771E-02  0.1087220E+00
         21   -1    0    0  503  502  0.00000000000E+00  0.00000000000E+00  0.18618466826E+04  0.18618466826E+04  0.00000000000E+00 0. -1.
         21   -1    0    0  501  503 -0.00000000000E+00 -0.00000000000E+00 -0.52854621240E+02  0.52854621240E+02  0.00000000000E+00 0. -1.
          6    2    1    2  501    0 -0.23989596352E+03 -0.13961700029E+02  0.58657828918E+03  0.65691773550E+03  0.17240017255E+03 0.  0.
         24    2    3    3    0    0 -0.58187866623E+02  0.41114699055E+02  0.25567003595E+03  0.27537664430E+03  0.73409009293E+02 0.  0.
         -6    2    1    2    0  502  0.23989596352E+03  0.13961700029E+02  0.12224137722E+04  0.12577835683E+04  0.17314465628E+03 0.  0.
        -24    2    5    5    0    0  0.23931462225E+03  0.33487035215E+02  0.93559648445E+03  0.97026344172E+03  0.87621314036E+02 0.  0.
          5    1    3    3  501    0 -0.18170809689E+03 -0.55076399084E+02  0.33090825323E+03  0.38154109119E+03  0.47000000000E+01 0. -1.
        -13    1    4    4    0    0 -0.28489407471E+02  0.17828237305E+02  0.25641070245E+02  0.42272412597E+02  0.00000000000E+00 0.  1.
         14    1    4    4    0    0 -0.29698459152E+02  0.23286461750E+02  0.23002896570E+03  0.23310423171E+03  0.00000000000E+00 0. -1.
         -5    1    5    5    0  502  0.58134126289E+00 -0.19525335186E+02  0.28681728772E+03  0.28752012661E+03  0.47000000000E+01 0.  1.
         13    1    6    6    0    0  0.90164701949E+02  0.12162814074E+02  0.52652488280E+03  0.53432767075E+03  0.00000000000E+00 0. -1.
        -14    1    6    6    0    0  0.14914992030E+03  0.21324221141E+02  0.40907160166E+03  0.43593577098E+03  0.00000000000E+00 0.  1.
<mgrwt>
<rscale>  2 0.29607379E+03</rscale>
<asrwt>0</asrwt>
<pdfrwt beam="1">  1       21 0.28643790E+00 0.29618250E+03</pdfrwt>
<pdfrwt beam="2">  1       21 0.81314816E-02 0.29618250E+03</pdfrwt>
<totfact> 0.43347856E+03</totfact>
</mgrwt>
</event>
<event>
12    1  0.1050690E-001  0.2358893E+03  0.7546771E-02  0.1122566E+00
         21   -1    0    0  503  502  0.00000000000E+00  0.00000000000E+00  0.91501589436E+03  0.91501589436E+03  0.00000000000E+00 0.  1.
         21   -1    0    0  501  503 -0.00000000000E+00 -0.00000000000E+00 -0.70170293425E+02  0.70170293425E+02  0.00000000000E+00 0.  1.
          6    2    1    2  501    0 -0.15527884756E+03  0.38243900845E+02  0.24248849290E+03  0.33829634741E+03  0.17340597749E+03 0.  0.
         24    2    3    3    0    0 -0.11346486682E+03  0.12248347248E+02  0.64197461888E+02  0.15327213404E+03  0.79666397859E+02 0.  0.
         -6    2    1    2    0  502  0.15527884756E+03 -0.38243900845E+02  0.60235710803E+03  0.64688984037E+03  0.17337319150E+03 0.  0.
        -24    2    5    5    0    0  0.10555088883E+03  0.35126506615E+02  0.44463421670E+03  0.46590728038E+03  0.83636987358E+02 0.  0.
          5    1    3    3  501    0 -0.41813980739E+02  0.25995553597E+02  0.17829103102E+03  0.18502421337E+03  0.47000000000E+01 0. -1.
        -13    1    4    4    0    0 -0.88998636251E+02  0.19046204503E+02  0.81802611396E+02  0.12237312773E+03  0.00000000000E+00 0.  1.
         14    1    4    4    0    0 -0.24466230572E+02 -0.67978572543E+01 -0.17605149508E+02  0.30899006308E+02  0.00000000000E+00 0. -1.
         -5    1    5    5    0  502  0.49727958734E+02 -0.73370407460E+02  0.15772289134E+03  0.18098255999E+03  0.47000000000E+01 0.  1.
         13    1    6    6    0    0  0.29664712005E+01  0.36460249572E+02  0.11806560139E+03  0.12360273452E+03  0.00000000000E+00 0. -1.
        -14    1    6    6    0    0  0.10258441763E+03 -0.13337429578E+01  0.32656861531E+03  0.34230454586E+03  0.00000000000E+00 0.  1.
<mgrwt>
<rscale>  2 0.23588325E+03</rscale>
<asrwt>0</asrwt>
<pdfrwt beam="1">  1       21 0.14077167E+00 0.23588927E+03</pdfrwt>
<pdfrwt beam="2">  1       21 0.10795430E-01 0.23588927E+03</pdfrwt>
<totfact> 0.24357989E+04</totfact>
</mgrwt>
</event>
<event>
12    1  0.1050690E-001  0.1771999E+03  0.7546771E-02  0.1171609E+00
         21   -1    0    0  501  502  0.00000000000E+00  0.00000000000E+00  0.10426583836E+03  0.10426583836E+03  0.00000000000E+00 0. -1.
         21   -1    0    0  502  503 -0.00000000000E+00 -0.00000000000E+00 -0.30016915663E+03  0.30016915663E+03  0.00000000000E+00 0. -1.
         -6    2    1    2    0  503  0.19253812101E+02  0.33344863082E+02 -0.67652425458E+02  0.18569295814E+03  0.16858954552E+03 0.  0.
        -24    2    3    3    0    0  0.43356884420E+02 -0.65013239890E+00  0.15683784814E+02  0.92399701386E+02  0.80071727915E+02 0.  0.
          6    2    1    2  501    0 -0.19253812101E+02 -0.33344863082E+02 -0.12825089282E+03  0.21874203685E+03  0.17296588682E+03 0.  0.
         24    2    5    5    0    0  0.36525001413E+02 -0.64192864175E+02 -0.62205594041E+02  0.12683476457E+03  0.82235771011E+02 0.  0.
          5    1    5    5  501    0 -0.55778813514E+02  0.30848001094E+02 -0.66045298776E+02  0.91907272285E+02  0.47000000000E+01 0. -1.
        -11    1    6    6    0    0  0.11195978292E+02  0.16345509566E+02 -0.31069670639E+02  0.36849016901E+02  0.00000000000E+00 0.  1.
         12    1    6    6    0    0  0.25329023121E+02 -0.80538373742E+02 -0.31135923402E+02  0.89985747668E+02  0.00000000000E+00 0. -1.
         -5    1    3    3    0  503 -0.24103072319E+02  0.33994995481E+02 -0.83336210272E+02  0.93293256753E+02  0.47000000000E+01 0.  1.
         11    1    4    4    0    0  0.54725966003E+02  0.84865793700E+01 -0.15894394505E+02  0.57615841234E+02  0.00000000000E+00 0. -1.
        -12    1    4    4    0    0 -0.11369081583E+02 -0.91367117689E+01  0.31578179319E+02  0.34783860152E+02  0.00000000000E+00 0.  1.
<mgrwt>
<rscale>  2 0.17612278E+03</rscale>
<asrwt>0</asrwt>
<pdfrwt beam="1">  1       21 0.16040898E-01 0.17719985E+03</pdfrwt>
<pdfrwt beam="2">  1       21 0.46179870E-01 0.17719985E+03</pdfrwt>
<totfact> 0.15670260E+05</totfact>
</mgrwt>
</event>
<event>
12    1  0.1050690E-001  0.2765114E+03  0.7546771E-02  0.1097783E+00
         21   -1    0    0  503  502  0.00000000000E+00  0.00000000000E+00  0.13861451456E+04  0.13861451456E+04  0.00000000000E+00 0. -1.
         21   -1    0    0  501  503 -0.00000000000E+00 -0.00000000000E+00 -0.72166746831E+02  0.72166746831E+02  0.00000000000E+00 0.  1.
          6    2    1    2  501    0  0.18231590775E+03 -0.11445214057E+03  0.30156910633E+03  0.40914848440E+03  0.17355164562E+03 0.  0.
         24    2    3    3    0    0 -0.13468467364E+01 -0.65348818211E+02  0.11132608871E+03  0.14015473094E+03  0.54567101243E+02 0.  0.
         -6    2    1    2    0  502 -0.18231590775E+03  0.11445214057E+03  0.10124092925E+04  0.10491634081E+04  0.17156018955E+03 0.  0.
        -24    2    5    5    0    0 -0.40185612111E+02  0.78616687450E+01  0.46997293795E+03  0.47835535072E+03  0.79199683714E+02 0.  0.
          5    1    3    3  501    0  0.18366275448E+03 -0.49103322362E+02  0.19024301762E+03  0.26899375346E+03  0.47000000000E+01 0. -1.
        -13    1    4    4    0    0 -0.84931768676E+01  0.63939065947E+01  0.28093944267E+02  0.30038072497E+02  0.00000000000E+00 0.  1.
         14    1    4    4    0    0  0.71463301312E+01 -0.71742724805E+02  0.83232144446E+02  0.11011665844E+03  0.00000000000E+00 0. -1.
         -5    1    5    5    0  502 -0.14213029563E+03  0.10659047183E+03  0.54243635451E+03  0.57080805734E+03  0.47000000000E+01 0.  1.
         11    1    6    6    0    0  0.12707290554E+02  0.27735927562E+02  0.11821882918E+03  0.12209196732E+03  0.00000000000E+00 0. -1.
        -12    1    6    6    0    0 -0.52892902665E+02 -0.19874258817E+02  0.35175410877E+03  0.35626338340E+03  0.00000000000E+00 0.  1.
<mgrwt>
<rscale>  2 0.27619948E+03</rscale>
<asrwt>0</asrwt>
<pdfrwt beam="1">  1       21 0.21325308E+00 0.27651140E+03</pdfrwt>
<pdfrwt beam="2">  1       21 0.11102577E-01 0.27651140E+03</pdfrwt>
<totfact> 0.69963143E+03</totfact>
</mgrwt>
</event>
<event>
12    1  0.1050690E-001  0.1960590E+03  0.7546771E-02  0.1153871E+00
         21   -1    0    0  501  502  0.00000000000E+00  0.00000000000E+00  0.31826909950E+03  0.31826909950E+03  0.00000000000E+00 0.  1.
         21   -1    0    0  502  503 -0.00000000000E+00 -0.00000000000E+00 -0.12708258212E+03  0.12708258212E+03  0.00000000000E+00 0.  1.
         -6    2    1    2    0  503  0.87890529555E+02 -0.41093913028E+02  0.15381041553E+03  0.24919222366E+03  0.17036920360E+03 0.  0.
        -24    2    3    3    0    0  0.43634470630E+02  0.38604685367E+01  0.16016687476E+03  0.18561557900E+03  0.82950859860E+02 0.  0.
          6    2    1    2  501    0 -0.87890529555E+02  0.41093913028E+02  0.37376101844E+02  0.19615945795E+03  0.16633732318E+03 0.  0.
         24    2    5    5    0    0 -0.48278302247E+02  0.90056649086E+02  0.43707963963E+02  0.13268772761E+03  0.72488981457E+02 0.  0.
          5    1    5    5  501    0 -0.39612227308E+02 -0.48962736059E+02 -0.63318621191E+01  0.63471730341E+02  0.47000000000E+01 0. -1.
        -13    1    6    6    0    0 -0.15067554552E+02  0.51789476140E+02  0.58827295399E+02  0.79811225545E+02  0.00000000000E+00 0.  1.
         14    1    6    6    0    0 -0.33210747695E+02  0.38267172946E+02 -0.15119331437E+02  0.52876502067E+02  0.00000000000E+00 0. -1.
         -5    1    3    3    0  503  0.44256058925E+02 -0.44954381564E+02 -0.63564592271E+01  0.63576644669E+02  0.47000000000E+01 0.  1.
         13    1    4    4    0    0  0.33192684147E+02 -0.37748744440E+02  0.75533124340E+02  0.90730231237E+02  0.00000000000E+00 0. -1.
        -14    1    4    4    0    0  0.10441786483E+02  0.41609212977E+02  0.84633750418E+02  0.94885347758E+02  0.00000000000E+00 0.  1.
<mgrwt>
<rscale>  2 0.19517976E+03</rscale>
<asrwt>0</asrwt>
<pdfrwt beam="1">  1       21 0.48964476E-01 0.19605897E+03</pdfrwt>
<pdfrwt beam="2">  1       21 0.19551167E-01 0.19605897E+03</pdfrwt>
<totfact> 0.95717271E+04</totfact>
</mgrwt>
</event>
<event>
12    1  0.1050690E-001  0.2014717E+03  0.7546771E-02  0.1151508E+00
         21   -1    0    0  503  502  0.00000000000E+00  0.00000000000E+00  0.46823011692E+03  0.46823011692E+03  0.00000000000E+00 0. -1.
         21   -1    0    0  501  503 -0.00000000000E+00 -0.00000000000E+00 -0.34471493485E+03  0.34471493485E+03  0.00000000000E+00 0. -1.
          6    2    1    2  501    0  0.60025926767E+02 -0.33102055301E+02 -0.29330891370E+03  0.35583838846E+03  0.18945179307E+03 0.  0.
         24    2    3    3    0    0  0.87942110774E+01 -0.66897291457E+02 -0.69141832935E+02  0.12337381744E+03  0.76732783190E+02 0.  0.
         -6    2    1    2    0  502 -0.60025926767E+02  0.33102055301E+02  0.41682409577E+03  0.45710666330E+03  0.17465771347E+03 0.  0.
        -24    2    5    5    0    0 -0.96169673070E+02 -0.15150000916E+02  0.26658131173E+03  0.29515106605E+03  0.81058173438E+02 0.  0.
          5    1    3    3  501    0  0.51231715690E+02  0.33795236156E+02 -0.22416708077E+03  0.23246457102E+03  0.47000000000E+01 0. -1.
        -11    1    4    4    0    0  0.69981331378E+01  0.16770261378E+02 -0.87299125344E+01  0.20160032415E+02  0.00000000000E+00 0.  1.
         12    1    4    4    0    0  0.17960779397E+01 -0.83667552835E+02 -0.60411920401E+02  0.10321378503E+03  0.00000000000E+00 0. -1.
         -5    1    5    5    0  502  0.36143746303E+02  0.48252056217E+02  0.15024278404E+03  0.16195559725E+03  0.47000000000E+01 0.  1.
         13    1    6    6    0    0 -0.82004521160E+02  0.59216385090E+00  0.26052207438E+03  0.27312422703E+03  0.00000000000E+00 0. -1.
        -14    1    6    6    0    0 -0.14165151910E+02 -0.15742164767E+02  0.60592373492E+01  0.22026839025E+02  0.00000000000E+00 0.  1.
<mgrwt>
<rscale>  2 0.19791777E+03</rscale>
<asrwt>0</asrwt>
<pdfrwt beam="1">  1       21 0.72035403E-01 0.20147168E+03</pdfrwt>
<pdfrwt beam="2">  1       21 0.53033067E-01 0.20147168E+03</pdfrwt>
<totfact> 0.58187787E+03</totfact>
</mgrwt>
</event>
<event>
12    1  0.1050690E-001  0.3128286E+03  0.7546771E-02  0.1079190E+00
         21   -1    0    0  501  502  0.00000000000E+00  0.00000000000E+00  0.33963723055E+03  0.33963723055E+03  0.00000000000E+00 0.  1.
         21   -1    0    0  502  503 -0.00000000000E+00 -0.00000000000E+00 -0.28933978089E+03  0.28933978089E+03  0.00000000000E+00 0. -1.
         -6    2    1    2    0  503 -0.26026000698E+03 -0.90739414280E+01 -0.50973334020E+01  0.31287010336E+03  0.17333237182E+03 0.  0.
        -24    2    3    3    0    0 -0.18107950637E+03 -0.17264775397E+02  0.62046084757E+02  0.20862534310E+03  0.81160070567E+02 0.  0.
          6    2    1    2  501    0  0.26026000698E+03  0.90739414280E+01  0.55394783056E+02  0.31610690808E+03  0.17040360237E+03 0.  0.
         24    2    5    5    0    0  0.20401179322E+03  0.17945927273E+01 -0.22218005208E+02  0.21986406227E+03  0.78883038644E+02 0.  0.
          5    1    5    5  501    0  0.56248213761E+02  0.72793487007E+01  0.77612788264E+02  0.96242845817E+02  0.47000000000E+01 0. -1.
        -11    1    6    6    0    0  0.10898099642E+03 -0.28963260935E+02  0.13970370900E+02  0.11362613840E+03  0.00000000000E+00 0.  1.
         12    1    6    6    0    0  0.95030796801E+02  0.30757853663E+02 -0.36188376108E+02  0.10623792387E+03  0.00000000000E+00 0. -1.
         -5    1    3    3    0  503 -0.79180500609E+02  0.81908339688E+01 -0.67143418159E+02  0.10424476025E+03  0.47000000000E+01 0.  1.
         11    1    4    4    0    0 -0.63722412952E+02 -0.38168039621E+02  0.83692583241E-01  0.74278881019E+02  0.00000000000E+00 0. -1.
        -12    1    4    4    0    0 -0.11735709342E+03  0.20903264224E+02  0.61962392174E+02  0.13434646209E+03  0.00000000000E+00 0.  1.
<mgrwt>
<rscale>  2 0.31242449E+03</rscale>
<asrwt>0</asrwt>
<pdfrwt beam="1">  1       21 0.52251882E-01 0.31282858E+03</pdfrwt>
<pdfrwt beam="2">  1       21 0.44513813E-01 0.31282858E+03</pdfrwt>
<totfact> 0.15849066E+04</totfact>
</mgrwt>
</event>
<event>
12    1  0.1050690E-001  0.3249019E+03  0.7546771E-02  0.1073449E+00
         21   -1    0    0  503  502  0.00000000000E+00  0.00000000000E+00  0.15249964537E+03  0.15249964537E+03  0.00000000000E+00 0.  1.
         21   -1    0    0  501  503 -0.00000000000E+00 -0.00000000000E+00 -0.77877565546E+03  0.77877565546E+03  0.00000000000E+00 0.  1.
          6    2    1    2  501    0 -0.27494404911E+03 -0.15231076932E+02 -0.46908088661E+03  0.57061205474E+03  0.17243846146E+03 0.  0.
         24    2    3    3    0    0 -0.18437597780E+03  0.80348013444E+01 -0.19137359250E+03  0.27754669031E+03  0.79682207357E+02 0.  0.
         -6    2    1    2    0  502  0.27494404911E+03  0.15231076932E+02 -0.15719512348E+03  0.36066324609E+03  0.17187627639E+03 0.  0.
        -24    2    5    5    0    0  0.14187251685E+03  0.62623278215E+02 -0.12808313339E+03  0.21635922187E+03  0.79727898596E+02 0.  0.
          5    1    3    3  501    0 -0.90568071307E+02 -0.23265878276E+02 -0.27770729410E+03  0.29306536443E+03  0.47000000000E+01 0. -1.
        -13    1    4    4    0    0 -0.84498731843E+01 -0.17887240695E+02 -0.37461202626E+02  0.42363845891E+02  0.00000000000E+00 0.  1.
         14    1    4    4    0    0 -0.17592610462E+03  0.25922042039E+02 -0.15391238988E+03  0.23518284442E+03  0.00000000000E+00 0. -1.
         -5    1    5    5    0  502  0.13307153226E+03 -0.47392201284E+02 -0.29111990093E+02  0.14430402422E+03  0.47000000000E+01 0.  1.
         11    1    6    6    0    0 -0.29705448111E+01  0.17548087348E+02 -0.32523424639E+02  0.37074690238E+02  0.00000000000E+00 0. -1.
        -12    1    6    6    0    0  0.14484306166E+03  0.45075190868E+02 -0.95559708750E+02  0.17928453163E+03  0.00000000000E+00 0.  1.
<mgrwt>
<rscale>  2 0.32482736E+03</rscale>
<asrwt>0</asrwt>
<pdfrwt beam="1">  1       21 0.23461484E-01 0.32490189E+03</pdfrwt>
<pdfrwt beam="2">  1       21 0.11981164E+00 0.32490189E+03</pdfrwt>
<totfact> 0.83943659E+03</totfact>
</mgrwt>
</event>
<event>
12    1  0.1050690E-001  0.1938106E+03  0.7546771E-02  0.1155334E+00
         21   -1    0    0  501  502  0.00000000000E+00  0.00000000000E+00  0.21334947705E+03  0.21334947705E+03  0.00000000000E+00 0. -1.
         21   -1    0    0  502  503 -0.00000000000E+00 -0.00000000000E+00 -0.24634256083E+03  0.24634256083E+03  0.00000000000E+00 0.  1.
         -6    2    1    2    0  503 -0.41785584928E+02 -0.74752162721E+02 -0.14025230010E+03  0.23923470975E+03  0.17386379074E+03 0.  0.
        -24    2    3    3    0    0 -0.88105636344E+02 -0.51428249925E+02 -0.67793100570E+02  0.15000479511E+03  0.86591373848E+02 0.  0.
          6    2    1    2  501    0  0.41785584928E+02  0.74752162721E+02  0.10725921631E+03  0.22045732812E+03  0.17251948615E+03 0.  0.
         24    2    5    5    0    0 -0.13188822417E+02  0.76216503495E+02  0.11968586094E+03  0.16388135042E+03  0.80928927243E+02 0.  0.
          5    1    5    5  501    0  0.54974407345E+02 -0.14643407732E+01 -0.12426644624E+02  0.56575977707E+02  0.47000000000E+01 0. -1.
        -11    1    6    6    0    0  0.28066038962E+02  0.59597719293E+02  0.57585269952E+02  0.87496594238E+02  0.00000000000E+00 0.  1.
         12    1    6    6    0    0 -0.41254861379E+02  0.16618784202E+02  0.62100590984E+02  0.76384756178E+02  0.00000000000E+00 0. -1.
         -5    1    3    3    0  503  0.46320051416E+02 -0.23323912796E+02 -0.72459199529E+02  0.89229914646E+02  0.47000000000E+01 0.  1.
         13    1    4    4    0    0 -0.76170402101E+02 -0.65774659603E+02 -0.79258575111E+02  0.12810213788E+03  0.00000000000E+00 0. -1.
        -14    1    4    4    0    0 -0.11935234243E+02  0.14346409677E+02  0.11465474541E+02  0.21902657225E+02  0.00000000000E+00 0.  1.
<mgrwt>
<rscale>  2 0.19350861E+03</rscale>
<asrwt>0</asrwt>
<pdfrwt beam="1">  1       21 0.32822996E-01 0.19381057E+03</pdfrwt>
<pdfrwt beam="2">  1       21 0.37898856E-01 0.19381057E+03</pdfrwt>
<totfact> 0.59963264E+04</totfact>
</mgrwt>
</event>
<event>
12    1  0.1050690E-001  0.1890065E+03  0.7546771E-02  0.1160217E+00
         21   -1    0    0  503  502  0.00000000000E+00  0.00000000000E+00  0.24176293203E+03  0.24176293203E+03  0.00000000000E+00 0. -1.
         21   -1    0    0  501  503 -0.00000000000E+00 -0.00000000000E+00 -0.20837376503E+03  0.20837376503E+03  0.00000000000E+00 0. -1.
          6    2    1    2  501    0 -0.46299067677E+01 -0.66874082746E+02 -0.10744510162E+03  0.21741179612E+03  0.17671972230E+03 0.  0.
         24    2    3    3    0    0  0.32461532747E+02  0.10563552724E+02 -0.84862977398E+01  0.86311463789E+02  0.78818219833E+02 0.  0.
         -6    2    1    2    0  502  0.46299067677E+01  0.66874082746E+02  0.14083426861E+03  0.23272490093E+03  0.17272234748E+03 0.  0.
        -24    2    5    5    0    0 -0.54902296603E+02  0.72498388028E+02  0.86100165513E+02  0.15152374275E+03  0.85299048507E+02 0.  0.
          5    1    3    3  501    0 -0.37091439515E+02 -0.77437635471E+02 -0.98958803876E+02  0.13110033233E+03  0.47000000000E+01 0. -1.
        -11    1    4    4    0    0 -0.17936772216E+01  0.24078274786E+02  0.26266068714E+02  0.35677541400E+02  0.00000000000E+00 0.  1.
         12    1    4    4    0    0  0.34255209969E+02 -0.13514722061E+02 -0.34752366454E+02  0.50633922390E+02  0.00000000000E+00 0. -1.
         -5    1    5    5    0  502  0.59532203371E+02 -0.56243052814E+01  0.54734103101E+02  0.81201158183E+02  0.47000000000E+01 0.  1.
         13    1    6    6    0    0  0.19712693590E+02  0.18059028297E+02  0.40471532148E+02  0.48504264823E+02  0.00000000000E+00 0. -1.
        -14    1    6    6    0    0 -0.74614990192E+02  0.54439359731E+02  0.45628633365E+02  0.10301947793E+03  0.00000000000E+00 0.  1.
<mgrwt>
<rscale>  2 0.18806644E+03</rscale>
<asrwt>0</asrwt>
<pdfrwt beam="1">  1       21 0.37194297E-01 0.18900645E+03</pdfrwt>
<pdfrwt beam="2">  1       21 0.32057502E-01 0.18900645E+03</pdfrwt>
<totfact> 0.65351402E+04</totfact>
</mgrwt>
</event>
<event>
12    1  0.1050690E-001  0.1880451E+03  0.7546771E-02  0.1160518E+00
         21   -1    0    0  503  502  0.00000000000E+00  0.00000000000E+00  0.69000370448E+03  0.69000370448E+03  0.00000000000E+00 0. -1.
         21   -1    0    0  501  503 -0.00000000000E+00 -0.00000000000E+00 -0.11194294340E+03  0.11194294340E+03  0.00000000000E+00 0. -1.
          6    2    1    2  501    0  0.46888631474E+02 -0.52025216393E+02 -0.74641648033E+01  0.18696663605E+03  0.17319250081E+03 0.  0.
         24    2    3    3    0    0  0.63241804625E+02  0.26807196393E+02 -0.81250817200E+01  0.10631614077E+03  0.80740034707E+02 0.  0.
         -6    2    1    2    0  502 -0.46888631474E+02  0.52025216393E+02  0.58552492589E+03  0.61498001183E+03  0.17451592824E+03 0.  0.
        -24    2    5    5    0    0 -0.17332873632E+02 -0.38517143288E+02  0.32879685417E+03  0.34111352150E+03  0.80418060164E+02 0.  0.
          5    1    3    3  501    0 -0.16353173151E+02 -0.78832412786E+02  0.66091691668E+00  0.80650495280E+02  0.47000000000E+01 0. -1.
        -11    1    4    4    0    0  0.41223430969E+01  0.43117825502E+02 -0.11753233658E+02  0.44880720694E+02  0.00000000000E+00 0.  1.
         12    1    4    4    0    0  0.59119461528E+02 -0.16310629109E+02  0.36281519382E+01  0.61435420075E+02  0.00000000000E+00 0. -1.
         -5    1    5    5    0  502 -0.29555757842E+02  0.90542359681E+02  0.25672807172E+03  0.27386649033E+03  0.47000000000E+01 0.  1.
         13    1    6    6    0    0  0.24356724298E+02 -0.27694520299E+02  0.73777416788E+02  0.82482384186E+02  0.00000000000E+00 0. -1.
        -14    1    6    6    0    0 -0.41689597931E+02 -0.10822622989E+02  0.25501943738E+03  0.25863113731E+03  0.00000000000E+00 0.  1.
<mgrwt>
<rscale>  2 0.18773750E+03</rscale>
<asrwt>0</asrwt>
<pdfrwt beam="1">  1       21 0.10615441E+00 0.18804514E+03</pdfrwt>
<pdfrwt beam="2">  1       21 0.17221992E-01 0.18804514E+03</pdfrwt>
<totfact> 0.21738736E+04</totfact>
</mgrwt>
</event>
<event>
12    1  0.1050690E-001  0.2268049E+03  0.7546771E-02  0.1128990E+00
         21   -1    0    0  501  502  0.00000000000E+00  0.00000000000E+00  0.59108905456E+03  0.59108905456E+03  0.00000000000E+00 0.  1.
         21   -1    0    0  502  503 -0.00000000000E+00 -0.00000000000E+00 -0.86922145399E+02  0.86922145399E+02  0.00000000000E+00 0.  1.
         -6    2    1    2    0  503  0.14318944060E+02  0.14525804827E+03  0.24236032753E+03  0.33162533530E+03  0.17300838681E+03 0.  0.
        -24    2    3    3    0    0  0.18951159564E+02  0.14971297709E+03  0.12005057292E+03  0.20905670195E+03  0.80743065410E+02 0.  0.
          6    2    1    2  501    0 -0.14318944060E+02 -0.14525804827E+03  0.26180658163E+03  0.34638586466E+03  0.17359593400E+03 0.  0.
         24    2    5    5    0    0 -0.11280449699E+02 -0.17029369550E+03  0.25856267704E+03  0.32052800324E+03  0.82197029310E+02 0.  0.
          5    1    5    5  501    0 -0.30384943614E+01  0.25035647230E+02  0.32439045939E+01  0.25857861420E+02  0.47000000000E+01 0. -1.
        -13    1    6    6    0    0 -0.34392887745E+02 -0.92877732181E+02  0.90977251221E+02  0.13448421507E+03  0.00000000000E+00 0.  1.
         14    1    6    6    0    0  0.23112438047E+02 -0.77415963324E+02  0.16758542582E+03  0.18604378817E+03  0.00000000000E+00 0. -1.
         -5    1    3    3    0  503 -0.46322155040E+01 -0.44549288166E+01  0.12230975460E+03  0.12256863335E+03  0.47000000000E+01 0.  1.
         11    1    4    4    0    0 -0.14251232958E+02 -0.19888579858E+01  0.18788557035E+02  0.23665651742E+02  0.00000000000E+00 0. -1.
        -12    1    4    4    0    0  0.33202392522E+02  0.15170183508E+03  0.10126201589E+03  0.18539105021E+03  0.00000000000E+00 0.  1.
<mgrwt>
<rscale>  2 0.22669251E+03</rscale>
<asrwt>0</asrwt>
<pdfrwt beam="1">  1       21 0.90936775E-01 0.22680494E+03</pdfrwt>
<pdfrwt beam="2">  1       21 0.13372638E-01 0.22680494E+03</pdfrwt>
<totfact> 0.48727620E+04</totfact>
</mgrwt>
</event>
<event>
12    1  0.1050690E-001  0.4029827E+03  0.7546771E-02  0.1042760E+00
         21   -1    0    0  501  502  0.00000000000E+00  0.00000000000E+00  0.18108929064E+03  0.18108929064E+03  0.00000000000E+00 0. -1.
         21   -1    0    0  502  503 -0.00000000000E+00 -0.00000000000E+00 -0.14324530269E+04  0.14324530269E+04  0.00000000000E+00 0.  1.
         -6    2    1    2    0  503  0.23857687661E+02  0.36304902390E+03 -0.11190965418E+04  0.11894082516E+04  0.17303507169E+03 0.  0.
        -24    2    3    3    0    0  0.80137892885E+02  0.26825203972E+03 -0.76952646050E+03  0.82283593749E+03  0.80664539512E+02 0.  0.
          6    2    1    2  501    0 -0.23857687661E+02 -0.36304902390E+03 -0.13226719444E+03  0.42413406596E+03  0.17326659277E+03 0.  0.
         24    2    5    5    0    0 -0.73641180887E+02 -0.18007095226E+03 -0.43315069247E+02  0.21462525594E+03  0.79619306044E+02 0.  0.
          5    1    5    5  501    0  0.49783493226E+02 -0.18297807164E+03 -0.88952125196E+02  0.20950881002E+03  0.47000000000E+01 0. -1.
        -13    1    6    6    0    0 -0.17358896359E+02  0.29008354786E+01 -0.10224134638E+02  0.20353846279E+02  0.00000000000E+00 0.  1.
         14    1    6    6    0    0 -0.56282284528E+02 -0.18297178774E+03 -0.33090934609E+02  0.19427140966E+03  0.00000000000E+00 0. -1.
         -5    1    3    3    0  503 -0.56280205224E+02  0.94796984173E+02 -0.34957008135E+03  0.36657231413E+03  0.47000000000E+01 0.  1.
         11    1    4    4    0    0  0.77112248625E+02  0.22990776595E+03 -0.56683399050E+03  0.61652627885E+03  0.00000000000E+00 0. -1.
        -12    1    4    4    0    0  0.30256442598E+01  0.38344273773E+02 -0.20269247000E+03  0.20630965864E+03  0.00000000000E+00 0.  1.
<mgrwt>
<rscale>  2 0.40295787E+03</rscale>
<asrwt>0</asrwt>
<pdfrwt beam="1">  1       21 0.27859891E-01 0.40298275E+03</pdfrwt>
<pdfrwt beam="2">  1       21 0.22037739E+00 0.40298275E+03</pdfrwt>
<totfact> 0.10456745E+03</totfact>
</mgrwt>
</event>
<event>
12    1  0.1050690E-001  0.1922930E+03  0.7546771E-02  0.1158407E+00
         21   -1    0    0  503  502  0.00000000000E+00  0.00000000000E+00  0.18934528439E+03  0.18934528439E+03  0.00000000000E+00 0. -1.
         21   -1    0    0  501  503 -0.00000000000E+00 -0.00000000000E+00 -0.20765461493E+03  0.20765461493E+03  0.00000000000E+00 0. -1.
          6    2    1    2  501    0  0.48640296420E+02 -0.38286650152E+02 -0.72726086997E+02  0.20558621864E+03  0.18205730842E+03 0.  0.
         24    2    3    3    0    0 -0.28525605325E+02 -0.54167173103E+02 -0.75311923383E+02  0.12662075815E+03  0.81321201354E+02 0.  0.
         -6    2    1    2    0  502 -0.48640296420E+02  0.38286650152E+02  0.54416756456E+02  0.19141368067E+03  0.17276072398E+03 0.  0.
        -24    2    5    5    0    0 -0.53113702796E+02  0.89540032304E+02  0.38082468081E+02  0.13723047734E+03  0.80891573889E+02 0.  0.
          5    1    3    3  501    0  0.77165901744E+02  0.15880522951E+02  0.25858363850E+01  0.78965460494E+02  0.47000000000E+01 0. -1.
        -11    1    4    4    0    0  0.80350286475E+01  0.15622319312E+02  0.89014742620E-01  0.17567767919E+02  0.00000000000E+00 0.  1.
         12    1    4    4    0    0 -0.36560633972E+02 -0.69789492415E+02 -0.75400938125E+02  0.10905299023E+03  0.00000000000E+00 0. -1.
         -5    1    5    5    0  502  0.44734063768E+01 -0.51253382152E+02  0.16334288375E+02  0.54183203332E+02  0.47000000000E+01 0.  1.
         11    1    6    6    0    0 -0.16537872268E+02 -0.75068753851E+01 -0.12294607272E+02  0.21931980421E+02  0.00000000000E+00 0. -1.
        -12    1    6    6    0    0 -0.36575830529E+02  0.97046907689E+02  0.50377075353E+02  0.11529849692E+03  0.00000000000E+00 0.  1.
<mgrwt>
<rscale>  2 0.19006011E+03</rscale>
<asrwt>0</asrwt>
<pdfrwt beam="1">  1       21 0.29130044E-01 0.19229303E+03</pdfrwt>
<pdfrwt beam="2">  1       21 0.31946864E-01 0.19229303E+03</pdfrwt>
<totfact> 0.10635060E+05</totfact>
</mgrwt>
</event>
<event>
12    1  0.1050690E-001  0.2009588E+03  0.7546771E-02  0.1149155E+00
         21   -1    0    0  501  502  0.00000000000E+00  0.00000000000E+00  0.17185871519E+03  0.17185871519E+03  0.00000000000E+00 0. -1.
         21   -1    0    0  502  503 -0.00000000000E+00 -0.00000000000E+00 -0.23419017290E+03  0.23419017290E+03  0.00000000000E+00 0. -1.
         -6    2    1    2    0  503 -0.39279301297E+02  0.93072998383E+02 -0.39866253839E+02  0.20383825349E+03  0.17249715607E+03 0.  0.
        -24    2    3    3    0    0 -0.77367662490E+02  0.11121740365E+03 -0.35954589013E+02  0.16120805501E+03  0.79625614308E+02 0.  0.
          6    2    1    2  501    0  0.39279301297E+02 -0.93072998383E+02 -0.22465203874E+02  0.20221063460E+03  0.17372106614E+03 0.  0.
         24    2    5    5    0    0 -0.41978136687E+02 -0.50762771280E+02  0.13106715686E+02  0.10382172259E+03  0.79171593253E+02 0.  0.
          5    1    5    5  501    0  0.81257437984E+02 -0.42310227103E+02 -0.35571919560E+02  0.98388912010E+02  0.47000000000E+01 0. -1.
        -13    1    6    6    0    0 -0.41011511582E+02 -0.70063786883E+02  0.19450855635E+02  0.83481818976E+02  0.00000000000E+00 0.  1.
         14    1    6    6    0    0 -0.96662510437E+00  0.19301015603E+02 -0.63441399488E+01  0.20339903616E+02  0.00000000000E+00 0. -1.
         -5    1    3    3    0  503  0.38088361192E+02 -0.18144405267E+02 -0.39116648257E+01  0.42630198481E+02  0.47000000000E+01 0.  1.
         11    1    4    4    0    0 -0.45015742378E+02  0.11194969392E+03 -0.42991728275E+02  0.12809152872E+03  0.00000000000E+00 0. -1.
        -12    1    4    4    0    0 -0.32351920112E+02 -0.73229027160E+00  0.70371392616E+01  0.33116526281E+02  0.00000000000E+00 0.  1.
<mgrwt>
<rscale>  2 0.20069405E+03</rscale>
<asrwt>0</asrwt>
<pdfrwt beam="1">  1       21 0.26439802E-01 0.20095884E+03</pdfrwt>
<pdfrwt beam="2">  1       21 0.36029257E-01 0.20095884E+03</pdfrwt>
<totfact> 0.10074422E+05</totfact>
</mgrwt>
</event>
<event>
12    1  0.1050690E-001  0.2704413E+03  0.7546771E-02  0.1101051E+00
         21   -1    0    0  503  502  0.00000000000E+00  0.00000000000E+00  0.83860959093E+03  0.83860959093E+03  0.00000000000E+00 0. -1.
         21   -1    0    0  501  503 -0.00000000000E+00 -0.00000000000E+00 -0.90005049565E+02  0.90005049565E+02  0.00000000000E+00 0.  1.
          6    2    1    2  501    0  0.76403870648E+02 -0.19295799979E+03  0.29165554094E+03  0.39763360459E+03  0.17314499071E+03 0.  0.
         24    2    3    3    0    0  0.58343384840E+01 -0.10950672017E+03  0.75561716641E+02  0.15542954632E+03  0.80143680861E+02 0.  0.
         -6    2    1    2    0  502 -0.76403870648E+02  0.19295799979E+03  0.45694900042E+03  0.53098103590E+03  0.17340164466E+03 0.  0.
        -24    2    5    5    0    0 -0.85617657033E+02  0.21425873656E+03  0.43511615571E+03  0.49877267744E+03  0.78809424638E+02 0.  0.
          5    1    3    3  501    0  0.70569532164E+02 -0.83451279619E+02  0.21609382430E+03  0.24220405826E+03  0.47000000000E+01 0. -1.
        -13    1    4    4    0    0  0.23603183242E+01 -0.11622681367E+02 -0.16959185178E+02  0.20694728475E+02  0.00000000000E+00 0.  1.
         14    1    4    4    0    0  0.34740201598E+01 -0.97884038799E+02  0.92520901818E+02  0.13473481785E+03  0.00000000000E+00 0. -1.
         -5    1    5    5    0  502  0.92137863853E+01 -0.21300736774E+02  0.21832844709E+02  0.32208358461E+02  0.47000000000E+01 0.  1.
         11    1    6    6    0    0 -0.25255298857E+02  0.12919284578E+03  0.30363292477E+03  0.33094043954E+03  0.00000000000E+00 0. -1.
        -12    1    6    6    0    0 -0.60362358177E+02  0.85065890775E+02  0.13148323095E+03  0.16783223790E+03  0.00000000000E+00 0.  1.
<mgrwt>
<rscale>  2 0.27040012E+03</rscale>
<asrwt>0</asrwt>
<pdfrwt beam="1">  1       21 0.12901685E+00 0.27044125E+03</pdfrwt>
<pdfrwt beam="2">  1       21 0.13846931E-01 0.27044125E+03</pdfrwt>
<totfact> 0.19121336E+04</totfact>
</mgrwt>
</event>
<event>
12    1  0.1050690E-001  0.1839725E+03  0.7546771E-02  0.1164819E+00
         21   -1    0    0  503  502  0.00000000000E+00  0.00000000000E+00  0.67767761150E+02  0.67767761150E+02  0.00000000000E+00 0.  1.
         21   -1    0    0  501  503 -0.00000000000E+00 -0.00000000000E+00 -0.49264912465E+03  0.49264912465E+03  0.00000000000E+00 0.  1.
          6    2    1    2  501    0 -0.35464692639E+02 -0.31475941024E+02 -0.19494433949E+03  0.26804696477E+03  0.17775657664E+03 0.  0.
         24    2    3    3    0    0 -0.20266685479E+02 -0.32057048274E+02 -0.19638901075E+02  0.92020251336E+02  0.81508572163E+02 0.  0.
         -6    2    1    2    0  502  0.35464692639E+02  0.31475941024E+02 -0.22993702401E+03  0.29236992102E+03  0.17424309576E+03 0.  0.
        -24    2    5    5    0    0  0.82032444820E+01 -0.22231709429E+02 -0.21314831376E+03  0.22966705773E+03  0.82177926622E+02 0.  0.
          5    1    3    3  501    0 -0.15198007160E+02  0.58110725074E+00 -0.17530543841E+03  0.17602671344E+03  0.47000000000E+01 0. -1.
        -13    1    4    4    0    0 -0.34955456794E+02 -0.52700603705E+02 -0.21033922329E+02  0.66645806163E+02  0.00000000000E+00 0.  1.
         14    1    4    4    0    0  0.14688771314E+02  0.20643555431E+02  0.13950212542E+01  0.25374445173E+02  0.00000000000E+00 0. -1.
         -5    1    5    5    0  502  0.27261448157E+02  0.53707650453E+02 -0.16788710248E+02  0.62702863288E+02  0.47000000000E+01 0.  1.
         11    1    6    6    0    0  0.32053805596E+02 -0.42988599266E+02 -0.12485270519E+03  0.13588106605E+03  0.00000000000E+00 0. -1.
        -12    1    6    6    0    0 -0.23850561114E+02  0.20756889837E+02 -0.88295608577E+02  0.93785991678E+02  0.00000000000E+00 0.  1.
<mgrwt>
<rscale>  2 0.18311844E+03</rscale>
<asrwt>0</asrwt>
<pdfrwt beam="1">  1       21 0.10425809E-01 0.18397250E+03</pdfrwt>
<pdfrwt beam="2">  1       21 0.75792175E-01 0.18397250E+03</pdfrwt>
<totfact> 0.11743409E+05</totfact>
</mgrwt>
</event>
<event>
12    1  0.1050690E-001  0.1874487E+03  0.7546771E-02  0.1161299E+00
         21   -1    0    0  503  502  0.00000000000E+00  0.00000000000E+00  0.43270700820E+03  0.43270700820E+03  0.00000000000E+00 0. -1.
         21   -1    0    0  501  503 -0.00000000000E+00 -0.00000000000E+00 -0.14869812665E+03  0.14869812665E+03  0.00000000000E+00 0. -1.
          6    2    1    2  501    0  0.69884149265E+01 -0.66830056078E+02 -0.55702992514E+02  0.19340877990E+03  0.17259501276E+03 0.  0.
         24    2    3    3    0    0 -0.36994599433E+02  0.19606798247E+02 -0.20122672552E+02  0.89997540156E+02  0.77081828979E+02 0.  0.
         -6    2    1    2    0  502 -0.69884149265E+01  0.66830056078E+02  0.33971187406E+03  0.38799635495E+03  0.17499119902E+03 0.  0.
        -24    2    5    5    0    0  0.51810622504E+02  0.36537896901E+02  0.28216952166E+03  0.30020026147E+03  0.80505897399E+02 0.  0.
          5    1    3    3  501    0  0.43983014359E+02 -0.86436854325E+02 -0.35580319962E+02  0.10341123975E+03  0.47000000000E+01 0. -1.
        -13    1    4    4    0    0 -0.47136593201E+02  0.38313815112E+02 -0.48589504050E-01  0.60743799749E+02  0.00000000000E+00 0.  1.
         14    1    4    4    0    0  0.10141993768E+02 -0.18707016865E+02 -0.20074083048E+02  0.29253740407E+02  0.00000000000E+00 0. -1.
         -5    1    5    5    0  502 -0.58799037431E+02  0.30292159177E+02  0.57542352402E+02  0.87796093480E+02  0.47000000000E+01 0.  1.
         13    1    6    6    0    0  0.24630125782E+02  0.58218968915E+02  0.22074726842E+03  0.22962022549E+03  0.00000000000E+00 0. -1.
        -14    1    6    6    0    0  0.27180496722E+02 -0.21681072014E+02  0.61422253238E+02  0.70580035977E+02  0.00000000000E+00 0.  1.
<mgrwt>
<rscale>  2 0.18688744E+03</rscale>
<asrwt>0</asrwt>
<pdfrwt beam="1">  1       21 0.66570308E-01 0.18744870E+03</pdfrwt>
<pdfrwt beam="2">  1       21 0.22876635E-01 0.18744870E+03</pdfrwt>
<totfact> 0.37195231E+04</totfact>
</mgrwt>
</event>
<event>
12    1  0.1050690E-001  0.1867106E+03  0.7546771E-02  0.1161541E+00
         21   -1    0    0  503  502  0.00000000000E+00  0.00000000000E+00  0.94406449804E+02  0.94406449804E+02  0.00000000000E+00 0. -1.
         21   -1    0    0  501  503 -0.00000000000E+00 -0.00000000000E+00 -0.12343355410E+04  0.12343355410E+04  0.00000000000E+00 0. -1.
          6    2    1    2  501    0  0.18233063811E+02  0.70370781632E+02 -0.11265259894E+04  0.11418938923E+04  0.17197780319E+03 0.  0.
         24    2    3    3    0    0  0.76487095694E+01  0.17337914197E+02 -0.10100586084E+04  0.10133977662E+04  0.79984585922E+02 0.  0.
         -6    2    1    2    0  502 -0.18233063811E+02 -0.70370781632E+02 -0.13403101793E+02  0.18684809857E+03  0.17160442092E+03 0.  0.
        -24    2    5    5    0    0  0.27260069772E+02 -0.98788636417E+02  0.24374920603E+01  0.13072133056E+03  0.81116082295E+02 0.  0.
          5    1    3    3  501    0  0.10584354242E+02  0.53032867436E+02 -0.11646738101E+03  0.12849612610E+03  0.47000000000E+01 0. -1.
        -13    1    4    4    0    0 -0.33584808794E+02  0.21703212781E+02 -0.42786015026E+03  0.42972465255E+03  0.00000000000E+00 0.  1.
         14    1    4    4    0    0  0.41233518363E+02 -0.43652985839E+01 -0.58219845817E+03  0.58367311362E+03  0.00000000000E+00 0. -1.
         -5    1    5    5    0  502 -0.45493133584E+02  0.28417854785E+02 -0.15840593853E+02  0.56126768012E+02  0.47000000000E+01 0.  1.
         13    1    6    6    0    0  0.54243518079E+02 -0.46945128336E+02 -0.44311896674E+01  0.71873776650E+02  0.00000000000E+00 0. -1.
        -14    1    6    6    0    0 -0.26983448306E+02 -0.51843508081E+02  0.68686817277E+01  0.58847553911E+02  0.00000000000E+00 0.  1.
<mgrwt>
<rscale>  2 0.18662460E+03</rscale>
<asrwt>0</asrwt>
<pdfrwt beam="1">  1       21 0.14524068E-01 0.18671062E+03</pdfrwt>
<pdfrwt beam="2">  1       21 0.18989779E+00 0.18671062E+03</pdfrwt>
<totfact> 0.65321739E+03</totfact>
</mgrwt>
</event>
<event>
12    1  0.1050690E-001  0.2324419E+03  0.7546771E-02  0.1125095E+00
         21   -1    0    0  503  502  0.00000000000E+00  0.00000000000E+00  0.40358522505E+03  0.40358522505E+03  0.00000000000E+00 0.  1.
         21   -1    0    0  501  503 -0.00000000000E+00 -0.00000000000E+00 -0.36143110611E+03  0.36143110611E+03  0.00000000000E+00 0. -1.
          6    2    1    2  501    0  0.13269525053E+03 -0.80487433067E+02 -0.28277461376E+03  0.36604744878E+03  0.17304044666E+03 0.  0.
         24    2    3    3    0    0  0.77865257792E+02 -0.32712946134E+02 -0.64701820371E+02  0.13612014958E+03  0.84907210210E+02 0.  0.
         -6    2    1    2    0  502 -0.13269525053E+03  0.80487433067E+02  0.32492873270E+03  0.39896888238E+03  0.17178833306E+03 0.  0.
        -24    2    5    5    0    0 -0.97107265028E+02  0.10648903189E+03  0.16957434445E+03  0.23741497867E+03  0.82708397208E+02 0.  0.
          5    1    3    3  501    0  0.54829992742E+02 -0.47774486933E+02 -0.21807279339E+03  0.22992729921E+03  0.47000000000E+01 0. -1.
        -13    1    4    4    0    0  0.13545974129E+02  0.14556817454E+02 -0.51512008580E+02  0.55216676624E+02  0.00000000000E+00 0.  1.
         14    1    4    4    0    0  0.64319283663E+02 -0.47269763588E+02 -0.13189811791E+02  0.80903472952E+02  0.00000000000E+00 0. -1.
         -5    1    5    5    0  502 -0.35587985506E+02 -0.26001598822E+02  0.15535438825E+03  0.16155390371E+03  0.47000000000E+01 0.  1.
         13    1    6    6    0    0 -0.22699565800E+02  0.51745730770E+01 -0.34637365728E+01  0.23538138522E+02  0.00000000000E+00 0. -1.
        -14    1    6    6    0    0 -0.74407699228E+02  0.10131445881E+03  0.17303808102E+03  0.21387684015E+03  0.00000000000E+00 0.  1.
<mgrwt>
<rscale>  2 0.23220893E+03</rscale>
<asrwt>0</asrwt>
<pdfrwt beam="1">  1       21 0.62090035E-01 0.23244193E+03</pdfrwt>
<pdfrwt beam="2">  1       21 0.55604786E-01 0.23244193E+03</pdfrwt>
<totfact> 0.71376039E+03</totfact>
</mgrwt>
</event>
<event>
12    1  0.1050690E-001  0.2236666E+03  0.7546771E-02  0.1131335E+00
         21   -1    0    0  501  502  0.00000000000E+00  0.00000000000E+00  0.33805270221E+03  0.33805270221E+03  0.00000000000E+00 0.  1.
         21   -1    0    0  502  503 -0.00000000000E+00 -0.00000000000E+00 -0.18976970136E+03  0.18976970136E+03  0.00000000000E+00 0. -1.
         -6    2    1    2    0  503  0.10758973766E+03  0.91466905483E+02 -0.50643774448E+02  0.22849214228E+03  0.17234303220E+03 0.  0.
        -24    2    3    3    0    0  0.73985722533E+02  0.87624348179E+01 -0.78359063672E+02  0.13490001357E+03  0.80667238697E+02 0.  0.
          6    2    1    2  501    0 -0.10758973766E+03 -0.91466905483E+02  0.19892677530E+03  0.29933026128E+03  0.17345027224E+03 0.  0.
         24    2    5    5    0    0 -0.66644105151E+02 -0.57968521371E+02  0.21317188473E+03  0.24434208344E+03  0.80367997849E+02 0.  0.
          5    1    5    5  501    0 -0.40945632507E+02 -0.33498384112E+02 -0.14245109432E+02  0.54988177841E+02  0.47000000000E+01 0. -1.
        -13    1    6    6    0    0 -0.11083028589E+02  0.86222227382E+01  0.10386285313E+03  0.10480776931E+03  0.00000000000E+00 0.  1.
         14    1    6    6    0    0 -0.55561076563E+02 -0.66590744109E+02  0.10930903160E+03  0.13953431413E+03  0.00000000000E+00 0. -1.
         -5    1    3    3    0  503  0.33604015125E+02  0.82704470665E+02  0.27715289224E+02  0.93592128714E+02  0.47000000000E+01 0.  1.
         11    1    4    4    0    0  0.22025640679E+02  0.33868570074E+02 -0.63579784529E+02  0.75329926901E+02  0.00000000000E+00 0. -1.
        -12    1    4    4    0    0  0.51960081854E+02 -0.25106135256E+02 -0.14779279142E+02  0.59570086669E+02  0.00000000000E+00 0.  1.
<mgrwt>
<rscale>  2 0.22345189E+03</rscale>
<asrwt>0</asrwt>
<pdfrwt beam="1">  1       21 0.52008108E-01 0.22366659E+03</pdfrwt>
<pdfrwt beam="2">  1       21 0.29195339E-01 0.22366659E+03</pdfrwt>
<totfact> 0.38819409E+04</totfact>
</mgrwt>
</event>
<event>
12    1  0.1050690E-001  0.1808076E+03  0.7546771E-02  0.1167045E+00
         21   -1    0    0  501  502  0.00000000000E+00  0.00000000000E+00  0.94876364086E+02  0.94876364086E+02  0.00000000000E+00 0.  1.
         21   -1    0    0  502  503 -0.00000000000E+00 -0.00000000000E+00 -0.64919818905E+03  0.64919818905E+03  0.00000000000E+00 0.  1.
         -6    2    1    2    0  503 -0.38636571961E+02 -0.36775495546E+02 -0.53204563633E+03  0.56189985455E+03  0.17266634196E+03 0.  0.
        -24    2    3    3    0    0 -0.91429076374E+02 -0.23069362453E+02 -0.40857673072E+03  0.42683850828E+03  0.79779043421E+02 0.  0.
          6    2    1    2  501    0  0.38636571961E+02  0.36775495546E+02 -0.22276188635E+02  0.18217469858E+03  0.17276044240E+03 0.  0.
         24    2    5    5    0    0  0.63445924508E+02  0.76078292294E+02  0.52056224547E+01  0.12797549428E+03  0.80853798530E+02 0.  0.
          5    1    5    5  501    0 -0.24809352547E+02 -0.39302796748E+02 -0.27481811090E+02  0.54199204300E+02  0.47000000000E+01 0. -1.
        -13    1    6    6    0    0  0.55341891590E+02  0.40827920370E+02  0.38499289157E+02  0.78815222591E+02  0.00000000000E+00 0.  1.
         14    1    6    6    0    0  0.81040329186E+01  0.35250371924E+02 -0.33293666703E+02  0.49160271692E+02  0.00000000000E+00 0. -1.
         -5    1    3    3    0  503  0.52792504413E+02 -0.13706133094E+02 -0.12346890560E+03  0.13506134627E+03  0.47000000000E+01 0.  1.
         13    1    4    4    0    0 -0.12030403008E+02 -0.36461699805E+02 -0.19145556529E+03  0.19526755909E+03  0.00000000000E+00 0. -1.
        -14    1    4    4    0    0 -0.79398673366E+02  0.13392337352E+02 -0.21712116543E+03  0.23157094919E+03  0.00000000000E+00 0.  1.
<mgrwt>
<rscale>  2 0.18078513E+03</rscale>
<asrwt>0</asrwt>
<pdfrwt beam="1">  1       21 0.14596363E-01 0.18080761E+03</pdfrwt>
<pdfrwt beam="2">  1       21 0.99876648E-01 0.18080761E+03</pdfrwt>
<totfact> 0.34163612E+04</totfact>
</mgrwt>
</event>
<event>
12    1  0.1050690E-001  0.2446862E+03  0.7546771E-02  0.1116798E+00
         21   -1    0    0  503  502  0.00000000000E+00  0.00000000000E+00  0.14866612534E+04  0.14866612534E+04  0.00000000000E+00 0. -1.
         21   -1    0    0  501  503 -0.00000000000E+00 -0.00000000000E+00 -0.40389151912E+02  0.40389151912E+02  0.00000000000E+00 0.  1.
          6    2    1    2  501    0  0.89730699487E+02 -0.14711887314E+03  0.77845278420E+03  0.81600250590E+03  0.17371180483E+03 0.  0.
         24    2    3    3    0    0  0.26740273307E+02 -0.25680266447E+02  0.16649119799E+03  0.18891861838E+03  0.81218268028E+02 0.  0.
         -6    2    1    2    0  502 -0.89730699487E+02  0.14711887314E+03  0.66781931724E+03  0.71104789937E+03  0.17294771884E+03 0.  0.
        -24    2    5    5    0    0 -0.86404332497E+02  0.28737565756E+02  0.28310327302E+03  0.30848893060E+03  0.82014637403E+02 0.  0.
          5    1    3    3  501    0  0.62990426179E+02 -0.12143860669E+03  0.61196158621E+03  0.62708388752E+03  0.47000000000E+01 0. -1.
        -11    1    4    4    0    0 -0.61382586192E+01 -0.19186436467E+02  0.15039825295E+03  0.15174133272E+03  0.00000000000E+00 0.  1.
         12    1    4    4    0    0  0.32878531927E+02 -0.64938299799E+01  0.16092945037E+02  0.37177285665E+02  0.00000000000E+00 0. -1.
         -5    1    5    5    0  502 -0.33263669895E+01  0.11838130738E+03  0.38471604422E+03  0.40255896876E+03  0.47000000000E+01 0.  1.
         11    1    6    6    0    0 -0.43672787941E+02  0.16892666591E+02  0.24673670602E+03  0.25114075076E+03  0.00000000000E+00 0. -1.
        -12    1    6    6    0    0 -0.42731544556E+02  0.11844899165E+02  0.36366567000E+02  0.57348179847E+02  0.00000000000E+00 0.  1.
<mgrwt>
<rscale>  2 0.24455065E+03</rscale>
<asrwt>0</asrwt>
<pdfrwt beam="1">  1       21 0.22871707E+00 0.24468623E+03</pdfrwt>
<pdfrwt beam="2">  1       21 0.62137168E-02 0.24468623E+03</pdfrwt>
<totfact> 0.15882143E+04</totfact>
</mgrwt>
</event>
<event>
12    1  0.1050690E-001  0.2451653E+03  0.7546771E-02  0.1116418E+00
         21   -1    0    0  501  502  0.00000000000E+00  0.00000000000E+00  0.10164903659E+04  0.10164903659E+04  0.00000000000E+00 0. -1.
         21   -1    0    0  502  503 -0.00000000000E+00 -0.00000000000E+00 -0.83692369359E+02  0.83692369359E+02  0.00000000000E+00 0.  1.
         -6    2    1    2    0  503 -0.17326365218E+03  0.20401060392E+02  0.16814242002E+03  0.29718572787E+03  0.17207843273E+03 0.  0.
        -24    2    3    3    0    0 -0.60300643985E+02  0.64833661390E+02  0.11179456509E+03  0.16327505613E+03  0.79505646695E+02 0.  0.
          6    2    1    2  501    0  0.17326365218E+03 -0.20401060392E+02  0.76465557650E+03  0.80299700736E+03  0.17224850285E+03 0.  0.
         24    2    5    5    0    0  0.37622618060E+02  0.30455415005E+02  0.39063215950E+03  0.40187298952E+03  0.81027291566E+02 0.  0.
          5    1    5    5  501    0  0.13564103412E+03 -0.50856475397E+02  0.37402341700E+03  0.40112401784E+03  0.47000000000E+01 0. -1.
        -11    1    6    6    0    0  0.75416857190E+01 -0.26735405978E+02  0.82929824681E+02  0.87458646102E+02  0.00000000000E+00 0.  1.
         12    1    6    6    0    0  0.30080932341E+02  0.57190820983E+02  0.30770233482E+03  0.31441434342E+03  0.00000000000E+00 0. -1.
         -5    1    3    3    0  503 -0.11296300819E+03 -0.44432600997E+02  0.56347854931E+02  0.13391067174E+03  0.47000000000E+01 0.  1.
         11    1    4    4    0    0  0.95863158219E+01  0.11155821877E+02 -0.62367251084E+01  0.15976437428E+02  0.00000000000E+00 0. -1.
        -12    1    4    4    0    0 -0.69886959807E+02  0.53677839512E+02  0.11803129020E+03  0.14729861870E+03  0.00000000000E+00 0.  1.
<mgrwt>
<rscale>  2 0.24513547E+03</rscale>
<asrwt>0</asrwt>
<pdfrwt beam="1">  1       21 0.15638312E+00 0.24516534E+03</pdfrwt>
<pdfrwt beam="2">  1       21 0.12875750E-01 0.24516534E+03</pdfrwt>
<totfact> 0.13364502E+04</totfact>
</mgrwt>
</event>
<event>
12    1  0.1050690E-001  0.1822723E+03  0.7546771E-02  0.1165945E+00
         21   -1    0    0  503  502  0.00000000000E+00  0.00000000000E+00  0.30611901214E+02  0.30611901214E+02  0.00000000000E+00 0. -1.
         21   -1    0    0  501  503 -0.00000000000E+00 -0.00000000000E+00 -0.11840674919E+04  0.11840674919E+04  0.00000000000E+00 0. -1.
          6    2    1    2  501    0  0.32989808313E+02 -0.42137462070E+02 -0.76107269888E+03  0.78259494013E+03  0.17423918667E+03 0.  0.
         24    2    3    3    0    0 -0.87146747368E+01 -0.66710851859E+02 -0.27413401933E+03  0.29323363901E+03  0.79436913213E+02 0.  0.
         -6    2    1    2    0  502 -0.32989808313E+02  0.42137462070E+02 -0.39238289177E+03  0.43208445295E+03  0.17282577228E+03 0.  0.
        -24    2    5    5    0    0  0.20241548512E+02  0.72906364469E+02 -0.31146736997E+03  0.33035090700E+03  0.79967124058E+02 0.  0.
          5    1    3    3  501    0  0.41704483049E+02  0.24573389789E+02 -0.48693867955E+03  0.48936130112E+03  0.47000000000E+01 0. -1.
        -13    1    4    4    0    0 -0.36135730782E+02 -0.48654369149E+02 -0.23218191450E+03  0.23996141377E+03  0.00000000000E+00 0.  1.
         14    1    4    4    0    0  0.27421056045E+02 -0.18056482711E+02 -0.41952104830E+02  0.53272225242E+02  0.00000000000E+00 0. -1.
         -5    1    5    5    0  502 -0.53231356824E+02 -0.30768902398E+02 -0.80915521795E+02  0.10173354595E+03  0.47000000000E+01 0.  1.
         13    1    6    6    0    0  0.38358266772E+02  0.54392574201E+01 -0.13830010201E+03  0.14362402434E+03  0.00000000000E+00 0. -1.
        -14    1    6    6    0    0 -0.18116718261E+02  0.67467107049E+02 -0.17316726796E+03  0.18672688266E+03  0.00000000000E+00 0.  1.
<mgrwt>
<rscale>  2 0.18193369E+03</rscale>
<asrwt>0</asrwt>
<pdfrwt beam="1">  1       21 0.47095226E-02 0.18227229E+03</pdfrwt>
<pdfrwt beam="2">  1       21 0.18216425E+00 0.18227229E+03</pdfrwt>
<totfact> 0.52699065E+04</totfact>
</mgrwt>
</event>
<event>
12    1  0.1050690E-001  0.1832931E+03  0.7546771E-02  0.1164657E+00
         21   -1    0    0  501  502  0.00000000000E+00  0.00000000000E+00  0.52777938847E+02  0.52777938847E+02  0.00000000000E+00 0.  1.
         21   -1    0    0  502  503 -0.00000000000E+00 -0.00000000000E+00 -0.63867388912E+03  0.63867388912E+03  0.00000000000E+00 0.  1.
         -6    2    1    2    0  503  0.48203926912E+02 -0.37665971532E+02 -0.31307483649E+03  0.36277612546E+03  0.17276666340E+03 0.  0.
        -24    2    3    3    0    0  0.48614977044E+01 -0.60356663408E+02 -0.29260479933E+03  0.30953567009E+03  0.80797286381E+02 0.  0.
          6    2    1    2  501    0 -0.48203926912E+02  0.37665971532E+02 -0.27282111378E+03  0.32867570251E+03  0.17278313954E+03 0.  0.
         24    2    5    5    0    0 -0.26603683810E+02 -0.20980880511E+02 -0.59765687349E+02  0.10659299609E+03  0.81499546571E+02 0.  0.
          5    1    5    5  501    0 -0.21600243102E+02  0.58646852043E+02 -0.21305542643E+03  0.22208270642E+03  0.47000000000E+01 0. -1.
        -11    1    6    6    0    0  0.53747227680E+01 -0.17683418165E+02  0.15900514460E+02  0.24380674374E+02  0.00000000000E+00 0.  1.
         12    1    6    6    0    0 -0.31978406578E+02 -0.32974623452E+01 -0.75666201810E+02  0.82212321713E+02  0.00000000000E+00 0. -1.
         -5    1    3    3    0  503  0.43342429208E+02  0.22690691876E+02 -0.20470037160E+02  0.53240455377E+02  0.47000000000E+01 0.  1.
         11    1    4    4    0    0  0.25819908210E+02 -0.65143572276E+02 -0.15297798735E+03  0.16826353521E+03  0.00000000000E+00 0. -1.
        -12    1    4    4    0    0 -0.20958410506E+02  0.47869088681E+01 -0.13962681198E+03  0.14127213488E+03  0.00000000000E+00 0.  1.
<mgrwt>
<rscale>  2 0.18328921E+03</rscale>
<asrwt>0</asrwt>
<pdfrwt beam="1">  1       21 0.81196825E-02 0.18329309E+03</pdfrwt>
<pdfrwt beam="2">  1       21 0.98257527E-01 0.18329309E+03</pdfrwt>
<totfact> 0.10045733E+05</totfact>
</mgrwt>
</event>
<event>
12    1  0.1050690E-001  0.2437360E+03  0.7546771E-02  0.1117343E+00
         21   -1    0    0  501  502  0.00000000000E+00  0.00000000000E+00  0.41657934072E+03  0.41657934072E+03  0.00000000000E+00 0.  1.
         21   -1    0    0  502  503 -0.00000000000E+00 -0.00000000000E+00 -0.14273355276E+03  0.14273355276E+03  0.00000000000E+00 0. -1.
         -6    2    1    2    0  503 -0.10338687989E+03  0.13708610862E+03  0.12707500424E+03  0.27487319616E+03  0.17299066204E+03 0.  0.
        -24    2    3    3    0    0 -0.11564399299E+03  0.15462790938E+03  0.13764167048E+03  0.25054839337E+03  0.80907011411E+02 0.  0.
          6    2    1    2  501    0  0.10338687989E+03 -0.13708610862E+03  0.14677078372E+03  0.28443969732E+03  0.17286651020E+03 0.  0.
         24    2    5    5    0    0  0.20718736566E+02  0.10810407452E+00  0.76954353784E+02  0.10964639709E+03  0.75306587336E+02 0.  0.
          5    1    5    5  501    0  0.82668143328E+02 -0.13719421269E+03  0.69816429939E+02  0.17479330024E+03  0.47000000000E+01 0. -1.
        -13    1    6    6    0    0  0.30624224907E+02  0.26878474046E+02  0.68799067161E+02  0.79960034770E+02  0.00000000000E+00 0.  1.
         14    1    6    6    0    0 -0.99054883406E+01 -0.26770369971E+02  0.81552866231E+01  0.29686362316E+02  0.00000000000E+00 0. -1.
         -5    1    3    3    0  503  0.12257113094E+02 -0.17541800759E+02 -0.10566666238E+02  0.24324802788E+02  0.47000000000E+01 0.  1.
         11    1    4    4    0    0 -0.10937524655E+03  0.86899856635E+02  0.10691304995E+03  0.17591171050E+03  0.00000000000E+00 0. -1.
        -12    1    4    4    0    0 -0.62687464357E+01  0.67728052744E+02  0.30728620531E+02  0.74636682872E+02  0.00000000000E+00 0.  1.
<mgrwt>
<rscale>  2 0.24371393E+03</rscale>
<asrwt>0</asrwt>
<pdfrwt beam="1">  1       21 0.64089129E-01 0.24373596E+03</pdfrwt>
<pdfrwt beam="2">  1       21 0.21959008E-01 0.24373596E+03</pdfrwt>
<totfact> 0.42496575E+04</totfact>
</mgrwt>
</event>
<event>
12    1  0.1050690E-001  0.1775092E+03  0.7546771E-02  0.1170877E+00
         21   -1    0    0  501  502  0.00000000000E+00  0.00000000000E+00  0.24101326640E+03  0.24101326640E+03  0.00000000000E+00 0.  1.
         21   -1    0    0  502  503 -0.00000000000E+00 -0.00000000000E+00 -0.30778499582E+03  0.30778499582E+03  0.00000000000E+00 0.  1.
         -6    2    1    2    0  503 -0.16610868646E+01 -0.28672664173E+02 -0.24250740190E+03  0.29901326448E+03  0.17255205440E+03 0.  0.
        -24    2    3    3    0    0 -0.40195622149E+02 -0.17505439893E+02 -0.24183232543E+03  0.25861322690E+03  0.80472349559E+02 0.  0.
          6    2    1    2  501    0  0.16610868646E+01  0.28672664173E+02  0.17573567248E+03  0.24978499773E+03  0.17517031036E+03 0.  0.
         24    2    5    5    0    0 -0.28344158797E+02  0.60211395923E+02  0.17808263744E+03  0.20593748227E+03  0.79170810968E+02 0.  0.
          5    1    5    5  501    0  0.30005245662E+02 -0.31538731750E+02 -0.23469649663E+01  0.43847515462E+02  0.47000000000E+01 0. -1.
        -11    1    6    6    0    0 -0.29873398019E+02 -0.68354044063E+01  0.91014899095E+02  0.96035693988E+02  0.00000000000E+00 0.  1.
         12    1    6    6    0    0  0.15292392222E+01  0.67046800329E+02  0.87067738349E+02  0.10990178828E+03  0.00000000000E+00 0. -1.
         -5    1    3    3    0  503  0.38534535285E+02 -0.11167224281E+02 -0.67507647127E+00  0.40400037574E+02  0.47000000000E+01 0.  1.
         11    1    4    4    0    0  0.90272512291E+01  0.22727737145E+02 -0.38829848090E+02  0.45888979104E+02  0.00000000000E+00 0. -1.
        -12    1    4    4    0    0 -0.49222873378E+02 -0.40233177038E+02 -0.20300247734E+03  0.21272424780E+03  0.00000000000E+00 0.  1.
<mgrwt>
<rscale>  2 0.17685984E+03</rscale>
<asrwt>0</asrwt>
<pdfrwt beam="1">  1       21 0.37078964E-01 0.17750921E+03</pdfrwt>
<pdfrwt beam="2">  1       21 0.47351538E-01 0.17750921E+03</pdfrwt>
<totfact> 0.30175114E+04</totfact>
</mgrwt>
</event>
<event>
12    1  0.1050690E-001  0.1944813E+03  0.7546771E-02  0.1156155E+00
         21   -1    0    0  501  502  0.00000000000E+00  0.00000000000E+00  0.14833094375E+03  0.14833094375E+03  0.00000000000E+00 0.  1.
         21   -1    0    0  502  503 -0.00000000000E+00 -0.00000000000E+00 -0.25214510280E+03  0.25214510280E+03  0.00000000000E+00 0. -1.
         -6    2    1    2    0  503 -0.70606137339E+02 -0.20896447687E+02 -0.19816409863E+02  0.19548830629E+03  0.18000305454E+03 0.  0.
        -24    2    3    3    0    0  0.47247908476E+01  0.25003448949E+02 -0.17675095731E+02  0.10712414796E+03  0.10254597973E+03 0.  0.
          6    2    1    2  501    0  0.70606137339E+02  0.20896447687E+02 -0.83997749182E+02  0.20498774026E+03  0.17187921234E+03 0.  0.
         24    2    5    5    0    0  0.83514795822E+02 -0.15667350513E+02 -0.16003403607E+02  0.12657303607E+03  0.92436126813E+02 0.  0.
          5    1    5    5  501    0 -0.12908658484E+02  0.36563798200E+02 -0.67994345574E+02  0.78414704187E+02  0.47000000000E+01 0. -1.
        -11    1    6    6    0    0  0.47951335917E+02 -0.10918046198E+02 -0.54866039055E+02  0.73680503463E+02  0.00000000000E+00 0.  1.
         12    1    6    6    0    0  0.35563459905E+02 -0.47493043143E+01  0.38862635447E+02  0.52892532609E+02  0.00000000000E+00 0. -1.
         -5    1    3    3    0  503 -0.75330928186E+02 -0.45899896636E+02 -0.21413141318E+01  0.88364158338E+02  0.47000000000E+01 0.  1.
         13    1    4    4    0    0 -0.40170355538E+02 -0.13254540424E+02 -0.22553752812E+02  0.47937585168E+02  0.00000000000E+00 0. -1.
        -14    1    4    4    0    0  0.44895146385E+02  0.38257989372E+02  0.48786570804E+01  0.59186562788E+02  0.00000000000E+00 0.  1.
<mgrwt>
<rscale>  2 0.19258020E+03</rscale>
<asrwt>0</asrwt>
<pdfrwt beam="1">  1       21 0.22820145E-01 0.19448133E+03</pdfrwt>
<pdfrwt beam="2">  1       21 0.38791554E-01 0.19448133E+03</pdfrwt>
<totfact> 0.11535517E+05</totfact>
</mgrwt>
</event>
<event>
12    1  0.1050690E-001  0.2222562E+03  0.7546771E-02  0.1132224E+00
         21   -1    0    0  501  502  0.00000000000E+00  0.00000000000E+00  0.57500165302E+03  0.57500165302E+03  0.00000000000E+00 0.  1.
         21   -1    0    0  502  503 -0.00000000000E+00 -0.00000000000E+00 -0.17637048558E+03  0.17637048558E+03  0.00000000000E+00 0.  1.
         -6    2    1    2    0  503 -0.14020244640E+02 -0.13798516198E+03 -0.69792896863E+02  0.23289463973E+03  0.17358684448E+03 0.  0.
        -24    2    3    3    0    0 -0.26917733613E+02 -0.14178551652E+03 -0.14465296873E+01  0.16307985747E+03  0.75929245925E+02 0.  0.
          6    2    1    2  501    0  0.14020244640E+02  0.13798516198E+03  0.46842406430E+03  0.51847749887E+03  0.17367020653E+03 0.  0.
         24    2    5    5    0    0 -0.21683073389E+02  0.48710057199E+01  0.16457331800E+03  0.18479880381E+03  0.81069960664E+02 0.  0.
          5    1    5    5  501    0  0.35703318028E+02  0.13311415626E+03  0.30385074629E+03  0.33367869506E+03  0.47000000000E+01 0. -1.
        -11    1    6    6    0    0  0.19696490562E+02 -0.20879365884E+01  0.12680954023E+03  0.12834707130E+03  0.00000000000E+00 0.  1.
         12    1    6    6    0    0 -0.41379563951E+02  0.69589423083E+01  0.37763777776E+02  0.56451732504E+02  0.00000000000E+00 0. -1.
         -5    1    3    3    0  503  0.12897488974E+02  0.38003545373E+01 -0.68346367176E+02  0.69814782264E+02  0.47000000000E+01 0.  1.
         11    1    4    4    0    0 -0.10582083642E+02  0.43638347894E+01  0.10503914025E+02  0.15535628668E+02  0.00000000000E+00 0. -1.
        -12    1    4    4    0    0 -0.16335649972E+02 -0.14614935131E+03 -0.11950443712E+02  0.14754422880E+03  0.00000000000E+00 0.  1.
<mgrwt>
<rscale>  2 0.22223990E+03</rscale>
<asrwt>0</asrwt>
<pdfrwt beam="1">  1       21 0.88461792E-01 0.22225619E+03</pdfrwt>
<pdfrwt beam="2">  1       21 0.27133921E-01 0.22225619E+03</pdfrwt>
<totfact> 0.13889623E+04</totfact>
</mgrwt>
</event>
<event>
12    1  0.1050690E-001  0.1760811E+03  0.7546771E-02  0.1172036E+00
         21   -1    0    0  501  502  0.00000000000E+00  0.00000000000E+00  0.12688779773E+03  0.12688779773E+03  0.00000000000E+00 0. -1.
         21   -1    0    0  502  503 -0.00000000000E+00 -0.00000000000E+00 -0.24357275834E+03  0.24357275834E+03  0.00000000000E+00 0. -1.
         -6    2    1    2    0  503  0.24622935083E+02 -0.36964246008E+02 -0.72441674109E+02  0.19040050355E+03  0.17038753237E+03 0.  0.
        -24    2    3    3    0    0  0.29072765243E+02 -0.84407303255E+02 -0.21680974174E+02  0.12061953675E+03  0.78161304256E+02 0.  0.
          6    2    1    2  501    0 -0.24622935083E+02  0.36964246008E+02 -0.44243286491E+02  0.18006005252E+03  0.16879428219E+03 0.  0.
         24    2    5    5    0    0 -0.68372873922E+02  0.53251533174E+02 -0.56424359296E+02  0.13158530233E+03  0.81365888385E+02 0.  0.
          5    1    5    5  501    0  0.43749938840E+02 -0.16287287166E+02  0.12181072805E+02  0.48474750194E+02  0.47000000000E+01 0. -1.
        -11    1    6    6    0    0 -0.29592041738E+02 -0.87092493210E+01  0.10393925260E+02  0.32551092766E+02  0.00000000000E+00 0.  1.
         12    1    6    6    0    0 -0.38780832185E+02  0.61960782495E+02 -0.66818284556E+02  0.99034209561E+02  0.00000000000E+00 0. -1.
         -5    1    3    3    0  503 -0.44498301603E+01  0.47443057248E+02 -0.50760699935E+02  0.69780966799E+02  0.47000000000E+01 0.  1.
         11    1    4    4    0    0 -0.18523935788E+02 -0.47418224493E+02  0.10953212477E+02  0.52072997558E+02  0.00000000000E+00 0. -1.
        -12    1    4    4    0    0  0.47596701031E+02 -0.36989078763E+02 -0.32634186652E+02  0.68546539192E+02  0.00000000000E+00 0.  1.
<mgrwt>
<rscale>  2 0.17569452E+03</rscale>
<asrwt>0</asrwt>
<pdfrwt beam="1">  1       21 0.19521200E-01 0.17608111E+03</pdfrwt>
<pdfrwt beam="2">  1       21 0.37472732E-01 0.17608111E+03</pdfrwt>
<totfact> 0.16672531E+05</totfact>
</mgrwt>
</event>
<event>
12    1  0.1050690E-001  0.2501870E+03  0.7546771E-02  0.1113193E+00
         21   -1    0    0  501  502  0.00000000000E+00  0.00000000000E+00  0.77792512406E+02  0.77792512406E+02  0.00000000000E+00 0. -1.
         21   -1    0    0  502  503 -0.00000000000E+00 -0.00000000000E+00 -0.80459437465E+03  0.80459437465E+03  0.00000000000E+00 0.  1.
         -6    2    1    2    0  503 -0.17381935128E+03  0.49780325702E+02 -0.36834068775E+03  0.44527341807E+03  0.17292283504E+03 0.  0.
        -24    2    3    3    0    0 -0.50069785900E+02 -0.19684984692E+02 -0.85617422461E+02  0.12889718790E+03  0.79935348479E+02 0.  0.
          6    2    1    2  501    0  0.17381935128E+03 -0.49780325702E+02 -0.35846117449E+03  0.43711346899E+03  0.17286562252E+03 0.  0.
         24    2    5    5    0    0  0.15949270822E+03  0.93145923711E+01 -0.21041903292E+03  0.27700092193E+03  0.83238547141E+02 0.  0.
          5    1    5    5  501    0  0.14326643057E+02 -0.59094918074E+02 -0.14804214158E+03  0.16011254706E+03  0.47000000000E+01 0. -1.
        -13    1    6    6    0    0  0.61541271523E+02  0.39123549440E+02 -0.11991419204E+03  0.14034740351E+03  0.00000000000E+00 0.  1.
         14    1    6    6    0    0  0.97951436699E+02 -0.29808957069E+02 -0.90504840881E+02  0.13665351842E+03  0.00000000000E+00 0. -1.
         -5    1    3    3    0  503 -0.12374956538E+03  0.69465310395E+02 -0.28272326529E+03  0.31637623017E+03  0.47000000000E+01 0.  1.
         13    1    4    4    0    0 -0.15639226697E+02  0.16447784191E+02  0.69460256185E+01  0.23735254125E+02  0.00000000000E+00 0. -1.
        -14    1    4    4    0    0 -0.34430559203E+02 -0.36132768884E+02 -0.92563448080E+02  0.10516193377E+03  0.00000000000E+00 0.  1.
<mgrwt>
<rscale>  2 0.25017715E+03</rscale>
<asrwt>0</asrwt>
<pdfrwt beam="1">  1       21 0.11968078E-01 0.25018704E+03</pdfrwt>
<pdfrwt beam="2">  1       21 0.12378376E+00 0.25018704E+03</pdfrwt>
<totfact> 0.27928567E+04</totfact>
</mgrwt>
</event>
<event>
12    1  0.1050690E-001  0.1777757E+03  0.7546771E-02  0.1170621E+00
         21   -1    0    0  503  502  0.00000000000E+00  0.00000000000E+00  0.34559211061E+03  0.34559211061E+03  0.00000000000E+00 0.  1.
         21   -1    0    0  501  503 -0.00000000000E+00 -0.00000000000E+00 -0.10366870232E+03  0.10366870232E+03  0.00000000000E+00 0.  1.
          6    2    1    2  501    0  0.10091172066E+02  0.36916496560E+02  0.38946496271E+02  0.17943897647E+03  0.17092939253E+03 0.  0.
         24    2    3    3    0    0  0.41547928582E+02  0.57030963652E+02 -0.20661734657E+02  0.10894535611E+03  0.80395411276E+02 0.  0.
         -6    2    1    2    0  502 -0.10091172066E+02 -0.36916496560E+02  0.20297691202E+03  0.26982183647E+03  0.17360742250E+03 0.  0.
        -24    2    5    5    0    0 -0.56767410944E+02 -0.53479941270E+02  0.76070434362E+02  0.13351203106E+03  0.77175827766E+02 0.  0.
          5    1    3    3  501    0 -0.31456756516E+02 -0.20114467092E+02  0.59608230928E+02  0.70493620359E+02  0.47000000000E+01 0. -1.
        -13    1    4    4    0    0 -0.18259915580E+01  0.22819242787E+02 -0.43509600011E+02  0.49164391379E+02  0.00000000000E+00 0.  1.
         14    1    4    4    0    0  0.43373920140E+02  0.34211720866E+02  0.22847865354E+02  0.59780964731E+02  0.00000000000E+00 0. -1.
         -5    1    5    5    0  502  0.46676238879E+02  0.16563444709E+02  0.12690647766E+03  0.13630980540E+03  0.47000000000E+01 0.  1.
         13    1    6    6    0    0  0.10728077600E+02 -0.49826520040E+01 -0.87853729828E+01  0.14734356057E+02  0.00000000000E+00 0. -1.
        -14    1    6    6    0    0 -0.67495488544E+02 -0.48497289266E+02  0.84855807345E+02  0.11877767501E+03  0.00000000000E+00 0.  1.
<mgrwt>
<rscale>  2 0.17711848E+03</rscale>
<asrwt>0</asrwt>
<pdfrwt beam="1">  1       21 0.53168017E-01 0.17777569E+03</pdfrwt>
<pdfrwt beam="2">  1       21 0.15949031E-01 0.17777569E+03</pdfrwt>
<totfact> 0.11813322E+05</totfact>
</mgrwt>
</event>
<event>
12    1  0.1050690E-001  0.1894214E+03  0.7546771E-02  0.1160336E+00
         21   -1    0    0  503  502  0.00000000000E+00  0.00000000000E+00  0.18337936698E+03  0.18337936698E+03  0.00000000000E+00 0.  1.
         21   -1    0    0  501  503 -0.00000000000E+00 -0.00000000000E+00 -0.24378221003E+03  0.24378221003E+03  0.00000000000E+00 0.  1.
          6    2    1    2  501    0  0.27665613775E+02 -0.56538444159E+02 -0.13047000007E+03  0.22519654251E+03  0.17242122835E+03 0.  0.
         24    2    3    3    0    0  0.66886445524E+02 -0.67334489728E+02 -0.12801791160E+03  0.18417300072E+03  0.92322144690E+02 0.  0.
         -6    2    1    2    0  502 -0.27665613775E+02  0.56538444159E+02  0.70067157020E+02  0.20196503450E+03  0.17865745664E+03 0.  0.
        -24    2    5    5    0    0  0.25500876832E+02  0.35170216478E+02 -0.22811125404E+02  0.92732519999E+02  0.78687571933E+02 0.  0.
          5    1    3    3  501    0 -0.39220831749E+02  0.10796045570E+02 -0.24520884661E+01  0.41023541788E+02  0.47000000000E+01 0. -1.
        -13    1    4    4    0    0 -0.49930558696E+01 -0.51828463050E+02 -0.25411655081E+02  0.57938522616E+02  0.00000000000E+00 0.  1.
         14    1    4    4    0    0  0.71879501393E+02 -0.15506026679E+02 -0.10260625652E+03  0.12623447810E+03  0.00000000000E+00 0. -1.
         -5    1    5    5    0  502 -0.53166490607E+02  0.21368227681E+02  0.92878282424E+02  0.10923251450E+03  0.47000000000E+01 0.  1.
         13    1    6    6    0    0  0.51987647284E+02  0.10570538452E+02 -0.79288676304E+01  0.53640644060E+02  0.00000000000E+00 0. -1.
        -14    1    6    6    0    0 -0.26486770452E+02  0.24599678026E+02 -0.14882257774E+02  0.39091875939E+02  0.00000000000E+00 0.  1.
<mgrwt>
<rscale>  2 0.18793650E+03</rscale>
<asrwt>0</asrwt>
<pdfrwt beam="1">  1       21 0.28212210E-01 0.18942140E+03</pdfrwt>
<pdfrwt beam="2">  1       21 0.37504955E-01 0.18942140E+03</pdfrwt>
<totfact> 0.82432091E+04</totfact>
</mgrwt>
</event>
<event>
12    1  0.1050690E-001  0.2389867E+03  0.7546771E-02  0.1120546E+00
         21   -1    0    0  503  502  0.00000000000E+00  0.00000000000E+00  0.15679664351E+03  0.15679664351E+03  0.00000000000E+00 0. -1.
         21   -1    0    0  501  503 -0.00000000000E+00 -0.00000000000E+00 -0.36413128130E+03  0.36413128130E+03  0.00000000000E+00 0.  1.
          6    2    1    2  501    0  0.16197621167E+03  0.21453868779E+02 -0.93503360840E+02  0.25662718522E+03  0.17440777527E+03 0.  0.
         24    2    3    3    0    0  0.15502768856E+03 -0.25863738987E+02 -0.34346129715E+02  0.18041100602E+03  0.81645313715E+02 0.  0.
         -6    2    1    2    0  502 -0.16197621167E+03 -0.21453868779E+02 -0.11383127695E+03  0.26430073958E+03  0.17378365775E+03 0.  0.
        -24    2    5    5    0    0 -0.12974365613E+02  0.17359606954E+02 -0.30374706766E+02  0.89100496626E+02  0.80910973120E+02 0.  0.
          5    1    3    3  501    0  0.69485231090E+01  0.47317607766E+02 -0.59157231125E+02  0.76216179204E+02  0.47000000000E+01 0. -1.
        -11    1    4    4    0    0 -0.71074713633E+01  0.85230460287E+01 -0.46386892198E+01  0.12028129550E+02  0.00000000000E+00 0.  1.
         12    1    4    4    0    0  0.16213515992E+03 -0.34386785016E+02 -0.29707440495E+02  0.16838287647E+03  0.00000000000E+00 0. -1.
         -5    1    5    5    0  502 -0.14900184606E+03 -0.38813475733E+02 -0.83456570180E+02  0.17520024296E+03  0.47000000000E+01 0.  1.
         11    1    6    6    0    0 -0.26506953355E+02  0.50301934070E+01  0.21238656338E+02  0.34336597748E+02  0.00000000000E+00 0. -1.
        -12    1    6    6    0    0  0.13532587741E+02  0.12329413547E+02 -0.51613363104E+02  0.54763898878E+02  0.00000000000E+00 0.  1.
<mgrwt>
<rscale>  2 0.23887283E+03</rscale>
<asrwt>0</asrwt>
<pdfrwt beam="1">  1       21 0.24122561E-01 0.23898668E+03</pdfrwt>
<pdfrwt beam="2">  1       21 0.56020197E-01 0.23898668E+03</pdfrwt>
<totfact> 0.47611719E+04</totfact>
</mgrwt>
</event>
<event>
12    1  0.1050690E-001  0.1967954E+03  0.7546771E-02  0.1152772E+00
         21   -1    0    0  501  502  0.00000000000E+00  0.00000000000E+00  0.80775389176E+02  0.80775389176E+02  0.00000000000E+00 0. -1.
         21   -1    0    0  502  503 -0.00000000000E+00 -0.00000000000E+00 -0.51554468800E+03  0.51554468800E+03  0.00000000000E+00 0. -1.
         -6    2    1    2    0  503 -0.94077802702E+02  0.29997038389E+01 -0.29917361664E+03  0.35733343876E+03  0.17123872920E+03 0.  0.
        -24    2    3    3    0    0 -0.45422129134E+02  0.62635125949E+02 -0.22276956420E+03  0.24878194237E+03  0.79245487540E+02 0.  0.
          6    2    1    2  501    0  0.94077802702E+02 -0.29997038389E+01 -0.13559568218E+03  0.23898663841E+03  0.17282590410E+03 0.  0.
         24    2    5    5    0    0  0.97069052936E+02  0.25664809002E+02 -0.15644901696E+03  0.20310414344E+03  0.81816347493E+02 0.  0.
          5    1    5    5  501    0 -0.29912502335E+01 -0.28664512841E+02  0.20853334773E+02  0.35882494973E+02  0.47000000000E+01 0. -1.
        -11    1    6    6    0    0 -0.49905903633E+01  0.12845589729E+02 -0.61815041936E+02  0.63332571219E+02  0.00000000000E+00 0.  1.
         12    1    6    6    0    0  0.10205964330E+03  0.12819219273E+02 -0.94633975020E+02  0.13977157222E+03  0.00000000000E+00 0. -1.
         -5    1    3    3    0  503 -0.48655673568E+02 -0.59635422110E+02 -0.76404052436E+02  0.10855149639E+03  0.47000000000E+01 0.  1.
         11    1    4    4    0    0 -0.63810158734E+02  0.59567985764E+02 -0.14894825073E+03  0.17264316575E+03  0.00000000000E+00 0. -1.
        -12    1    4    4    0    0  0.18388029600E+02  0.30671401846E+01 -0.73821313477E+02  0.76138776619E+02  0.00000000000E+00 0.  1.
<mgrwt>
<rscale>  2 0.19644636E+03</rscale>
<asrwt>0</asrwt>
<pdfrwt beam="1">  1       21 0.12426983E-01 0.19679539E+03</pdfrwt>
<pdfrwt beam="2">  1       21 0.79314566E-01 0.19679539E+03</pdfrwt>
<totfact> 0.77154497E+04</totfact>
</mgrwt>
</event>
<event>
12    1  0.1050690E-001  0.2007405E+03  0.7546771E-02  0.1149124E+00
         21   -1    0    0  503  502  0.00000000000E+00  0.00000000000E+00  0.32181194693E+03  0.32181194693E+03  0.00000000000E+00 0.  1.
         21   -1    0    0  501  503 -0.00000000000E+00 -0.00000000000E+00 -0.13022525756E+03  0.13022525756E+03  0.00000000000E+00 0.  1.
          6    2    1    2  501    0  0.86707375243E+02 -0.49825163575E+02  0.51351920016E+02  0.20716469258E+03  0.17400998338E+03 0.  0.
         24    2    3    3    0    0  0.70856974427E+02  0.87943714283E+01 -0.23096894316E+02  0.11097633026E+03  0.81757125421E+02 0.  0.
         -6    2    1    2    0  502 -0.86707375243E+02  0.49825163575E+02  0.14023476936E+03  0.24487251191E+03  0.17405757871E+03 0.  0.
        -24    2    5    5    0    0 -0.24543275438E+02 -0.13791750031E+01  0.63313930649E+00  0.83636769267E+02  0.79940188986E+02 0.  0.
          5    1    3    3  501    0  0.15850400816E+02 -0.58619535003E+02  0.74448814333E+02  0.96188362319E+02  0.47000000000E+01 0. -1.
        -11    1    4    4    0    0  0.79175791896E+02  0.25890580299E+02 -0.32926720827E+02  0.89572859255E+02  0.00000000000E+00 0.  1.
         12    1    4    4    0    0 -0.83188174689E+01 -0.17096208871E+02  0.98298265111E+01  0.21403471006E+02  0.00000000000E+00 0. -1.
         -5    1    5    5    0  502 -0.62164099805E+02  0.51204338578E+02  0.13960163005E+03  0.16123574265E+03  0.47000000000E+01 0.  1.
         13    1    6    6    0    0 -0.49469282634E+02  0.17376974762E+02  0.93200949401E+00  0.52440802987E+02  0.00000000000E+00 0. -1.
        -14    1    6    6    0    0  0.24926007196E+02 -0.18756149765E+02 -0.29887018752E+00  0.31195966280E+02  0.00000000000E+00 0.  1.
<mgrwt>
<rscale>  2 0.20073020E+03</rscale>
<asrwt>0</asrwt>
<pdfrwt beam="1">  1       21 0.49509530E-01 0.20074052E+03</pdfrwt>
<pdfrwt beam="2">  1       21 0.20034655E-01 0.20074052E+03</pdfrwt>
<totfact> 0.89188888E+04</totfact>
</mgrwt>
</event>
<event>
12    1  0.1050690E-001  0.1825067E+03  0.7546771E-02  0.1167420E+00
         21   -1    0    0  503  502  0.00000000000E+00  0.00000000000E+00  0.30679653380E+04  0.30679653380E+04  0.00000000000E+00 0.  1.
         21   -1    0    0  501  503 -0.00000000000E+00 -0.00000000000E+00 -0.12031402660E+02  0.12031402660E+02  0.00000000000E+00 0.  1.
          6    2    1    2  501    0 -0.42306292733E+02 -0.79518444708E+01  0.20696476158E+04  0.20769666400E+04  0.16880792631E+03 0.  0.
         24    2    3    3    0    0 -0.41163401515E+02  0.33186627148E+02  0.18953183392E+04  0.18977838654E+04  0.80970457533E+02 0.  0.
         -6    2    1    2    0  502  0.42306292733E+02  0.79518444708E+01  0.98628631961E+03  0.10030301007E+04  0.17735733539E+03 0.  0.
        -24    2    5    5    0    0  0.84811147404E+02 -0.21929285865E+02  0.49649359855E+03  0.51046686189E+03  0.79979368488E+02 0.  0.
          5    1    3    3  501    0 -0.11428912183E+01 -0.41138471619E+02  0.17432927659E+03  0.17918277463E+03  0.47000000000E+01 0. -1.
        -13    1    4    4    0    0 -0.19033263083E+02  0.38861107282E+02  0.17613514742E+04  0.17618829321E+04  0.00000000000E+00 0.  1.
         14    1    4    4    0    0 -0.22130138432E+02 -0.56744801336E+01  0.13396686502E+03  0.13590093331E+03  0.00000000000E+00 0. -1.
         -5    1    5    5    0  502 -0.42504854670E+02  0.29881130335E+02  0.48979272107E+03  0.49256323881E+03  0.47000000000E+01 0.  1.
         11    1    6    6    0    0  0.34096734591E+02 -0.27630791363E+02  0.38906699996E+03  0.39153438980E+03  0.00000000000E+00 0. -1.
        -12    1    6    6    0    0  0.50714412812E+02  0.57015054979E+01  0.10742659859E+03  0.11893247209E+03  0.00000000000E+00 0.  1.
<mgrwt>
<rscale>  2 0.18039620E+03</rscale>
<asrwt>0</asrwt>
<pdfrwt beam="1">  1       21 0.47199404E+00 0.18250665E+03</pdfrwt>
<pdfrwt beam="2">  1       21 0.18509875E-02 0.18250665E+03</pdfrwt>
<totfact> 0.41963168E+03</totfact>
</mgrwt>
</event>
<event>
12    1  0.1050690E-001  0.1804146E+03  0.7546771E-02  0.1167514E+00
         21   -1    0    0  501  502  0.00000000000E+00  0.00000000000E+00  0.17736428003E+03  0.17736428003E+03  0.00000000000E+00 0.  1.
         21   -1    0    0  502  503 -0.00000000000E+00 -0.00000000000E+00 -0.34126510618E+03  0.34126510618E+03  0.00000000000E+00 0.  1.
         -6    2    1    2    0  503  0.14668978130E+02 -0.46977493348E+02 -0.25857380948E+03  0.31529328547E+03  0.17357239733E+03 0.  0.
        -24    2    3    3    0    0 -0.17255843047E+02  0.43301773774E+01 -0.23929652999E+03  0.25169002465E+03  0.75950804400E+02 0.  0.
          6    2    1    2  501    0 -0.14668978130E+02  0.46977493348E+02  0.94672983334E+02  0.20333610074E+03  0.17309110979E+03 0.  0.
         24    2    5    5    0    0 -0.72640351270E+02  0.53762556370E+02  0.54932473942E+02  0.13256806225E+03  0.79935482338E+02 0.  0.
          5    1    5    5  501    0  0.57971373139E+02 -0.67850630223E+01  0.39740509392E+02  0.70768038482E+02  0.47000000000E+01 0. -1.
        -13    1    6    6    0    0 -0.32405745326E+02 -0.20152359499E+01 -0.13851241121E+02  0.35299438900E+02  0.00000000000E+00 0.  1.
         14    1    6    6    0    0 -0.40234605944E+02  0.55777792320E+02  0.68783715063E+02  0.97268623355E+02  0.00000000000E+00 0. -1.
         -5    1    3    3    0  503  0.31924821177E+02 -0.51307670725E+02 -0.19277279488E+02  0.63603260820E+02  0.47000000000E+01 0.  1.
         11    1    4    4    0    0  0.24107874226E+02 -0.47236090111E+01 -0.15925399177E+03  0.16113763054E+03  0.00000000000E+00 0. -1.
        -12    1    4    4    0    0 -0.41363717273E+02  0.90537863884E+01 -0.80042538220E+02  0.90552394111E+02  0.00000000000E+00 0.  1.
<mgrwt>
<rscale>  2 0.18029878E+03</rscale>
<asrwt>0</asrwt>
<pdfrwt beam="1">  1       21 0.27286812E-01 0.18041464E+03</pdfrwt>
<pdfrwt beam="2">  1       21 0.52502325E-01 0.18041464E+03</pdfrwt>
<totfact> 0.44319251E+04</totfact>
</mgrwt>
</event>
<event>
12    1  0.1050690E-001  0.1758520E+03  0.7546771E-02  0.1172274E+00
         21   -1    0    0  503  502  0.00000000000E+00  0.00000000000E+00  0.49556545315E+02  0.49556545315E+02  0.00000000000E+00 0. -1.
         21   -1    0    0  501  503 -0.00000000000E+00 -0.00000000000E+00 -0.77474563357E+03  0.77474563357E+03  0.00000000000E+00 0. -1.
          6    2    1    2  501    0 -0.33053495741E+02 -0.11785257561E+01 -0.17615833065E+03  0.24779657903E+03  0.17110658848E+03 0.  0.
         24    2    3    3    0    0 -0.57992246240E+02 -0.54228616536E+02 -0.10025251323E+03  0.15177555776E+03  0.81739892646E+02 0.  0.
         -6    2    1    2    0  502  0.33053495741E+02  0.11785257561E+01 -0.54903075760E+03  0.57650559985E+03  0.17271366870E+03 0.  0.
        -24    2    5    5    0    0 -0.72009590705E+01 -0.12667374698E+02 -0.11935512767E+03  0.14470082098E+03  0.80500713651E+02 0.  0.
          5    1    3    3  501    0  0.24938750498E+02  0.53050090780E+02 -0.75905817419E+02  0.96021021272E+02  0.47000000000E+01 0. -1.
        -11    1    4    4    0    0 -0.27814227820E+02 -0.41371890122E+02 -0.39142361126E+01  0.50005857715E+02  0.00000000000E+00 0.  1.
         12    1    4    4    0    0 -0.30178018420E+02 -0.12856726413E+02 -0.96338277115E+02  0.10176970005E+03  0.00000000000E+00 0. -1.
         -5    1    5    5    0  502  0.40254454812E+02  0.13845900454E+02 -0.42967562994E+03  0.43180477887E+03  0.47000000000E+01 0.  1.
         11    1    6    6    0    0 -0.40995117941E+02 -0.20434248965E+02 -0.80527512010E+02  0.92643609689E+02  0.00000000000E+00 0. -1.
        -12    1    6    6    0    0  0.33794158870E+02  0.77668742669E+01 -0.38827615657E+02  0.52057211290E+02  0.00000000000E+00 0.  1.
<mgrwt>
<rscale>  2 0.17545615E+03</rscale>
<asrwt>0</asrwt>
<pdfrwt beam="1">  1       21 0.76240843E-02 0.17585202E+03</pdfrwt>
<pdfrwt beam="2">  1       21 0.11919163E+00 0.17585202E+03</pdfrwt>
<totfact> 0.70633532E+04</totfact>
</mgrwt>
</event>
<event>
12    1  0.1050690E-001  0.2048438E+03  0.7546771E-02  0.1145945E+00
         21   -1    0    0  503  502  0.00000000000E+00  0.00000000000E+00  0.53453019180E+03  0.53453019180E+03  0.00000000000E+00 0. -1.
         21   -1    0    0  501  503 -0.00000000000E+00 -0.00000000000E+00 -0.80945439075E+02  0.80945439075E+02  0.00000000000E+00 0. -1.
          6    2    1    2  501    0  0.91907861302E+02  0.61883551979E+02  0.16821810898E+03  0.26419926007E+03  0.17095990131E+03 0.  0.
         24    2    3    3    0    0  0.10233681094E+03  0.27360940813E+02  0.51268145648E+02  0.14172494604E+03  0.78968940840E+02 0.  0.
         -6    2    1    2    0  502 -0.91907861302E+02 -0.61883551979E+02  0.28536664375E+03  0.35127637081E+03  0.17229143435E+03 0.  0.
        -24    2    5    5    0    0 -0.38301040009E+02  0.32183398651E+02  0.13467209413E+03  0.16566058545E+03  0.82487064561E+02 0.  0.
          5    1    3    3  501    0 -0.10428949638E+02  0.34522611166E+02  0.11694996333E+03  0.12247431402E+03  0.47000000000E+01 0. -1.
        -13    1    4    4    0    0  0.48153442609E+02 -0.26963344295E+02  0.25419851349E+02  0.60761375999E+02  0.00000000000E+00 0.  1.
         14    1    4    4    0    0  0.54183368330E+02  0.54324285108E+02  0.25848294299E+02  0.80963570044E+02  0.00000000000E+00 0. -1.
         -5    1    5    5    0  502 -0.53606821293E+02 -0.94066950630E+02  0.15069454961E+03  0.18561578536E+03  0.47000000000E+01 0.  1.
         13    1    6    6    0    0  0.18562985778E+01  0.12678965530E+01  0.10868273620E+03  0.10870598214E+03  0.00000000000E+00 0. -1.
        -14    1    6    6    0    0 -0.40157338587E+02  0.30915502098E+02  0.25989357935E+02  0.56954603311E+02  0.00000000000E+00 0.  1.
<mgrwt>
<rscale>  2 0.20456352E+03</rscale>
<asrwt>0</asrwt>
<pdfrwt beam="1">  1       21 0.82235412E-01 0.20484376E+03</pdfrwt>
<pdfrwt beam="2">  1       21 0.12453145E-01 0.20484376E+03</pdfrwt>
<totfact> 0.70554194E+04</totfact>
</mgrwt>
</event>
<event>
12    1  0.1050690E-001  0.2127447E+03  0.7546771E-02  0.1139434E+00
         21   -1    0    0  503  502  0.00000000000E+00  0.00000000000E+00  0.48297365868E+03  0.48297365868E+03  0.00000000000E+00 0.  1.
         21   -1    0    0  501  503 -0.00000000000E+00 -0.00000000000E+00 -0.13200644238E+03  0.13200644238E+03  0.00000000000E+00 0.  1.
          6    2    1    2  501    0 -0.32064509448E+02  0.11994353492E+03  0.97891986508E+01  0.21296981962E+03  0.17275917146E+03 0.  0.
         24    2    3    3    0    0 -0.67181628548E+02  0.38707340684E+02  0.40571493839E+02  0.11914993364E+03  0.80864276030E+02 0.  0.
         -6    2    1    2    0  502  0.32064509448E+02 -0.11994353492E+03  0.34117801765E+03  0.40201028144E+03  0.17261298423E+03 0.  0.
        -24    2    5    5    0    0 -0.25277358785E+02 -0.10812285632E+03  0.15326621487E+03  0.20513277151E+03  0.79116524189E+02 0.  0.
          5    1    3    3  501    0  0.35117119100E+02  0.81236194236E+02 -0.30782295188E+02  0.93819885977E+02  0.47000000000E+01 0. -1.
        -11    1    4    4    0    0  0.98557048546E+01  0.27359128343E+02 -0.41153670704E+01  0.29369934763E+02  0.00000000000E+00 0.  1.
         12    1    4    4    0    0 -0.77037333402E+02  0.11348212341E+02  0.44686860909E+02  0.89779998881E+02  0.00000000000E+00 0. -1.
         -5    1    5    5    0  502  0.57341868233E+02 -0.11820678598E+02  0.18791180277E+03  0.19687750993E+03  0.47000000000E+01 0.  1.
         11    1    6    6    0    0 -0.65874611571E+01  0.12467367222E+02  0.12581828099E+02  0.18897944022E+02  0.00000000000E+00 0. -1.
        -12    1    6    6    0    0 -0.18689897628E+02 -0.12059022354E+03  0.14068438677E+03  0.18623482749E+03  0.00000000000E+00 0.  1.
<mgrwt>
<rscale>  2 0.21271504E+03</rscale>
<asrwt>0</asrwt>
<pdfrwt beam="1">  1       21 0.74303639E-01 0.21274472E+03</pdfrwt>
<pdfrwt beam="2">  1       21 0.20308684E-01 0.21274472E+03</pdfrwt>
<totfact> 0.36030414E+04</totfact>
</mgrwt>
</event>
<event>
12    1  0.1050690E-001  0.2345048E+03  0.7546771E-02  0.1123634E+00
         21   -1    0    0  503  502  0.00000000000E+00  0.00000000000E+00  0.57167598383E+03  0.57167598383E+03  0.00000000000E+00 0. -1.
         21   -1    0    0  501  503 -0.00000000000E+00 -0.00000000000E+00 -0.15300390559E+03  0.15300390559E+03  0.00000000000E+00 0.  1.
          6    2    1    2  501    0 -0.15214598797E+03  0.44769889650E+02 -0.11825636937E+02  0.23480273962E+03  0.17274181941E+03 0.  0.
         24    2    3    3    0    0 -0.71090442495E+02  0.90717556122E+02 -0.32216660848E+02  0.13930890023E+03  0.71312905173E+02 0.  0.
         -6    2    1    2    0  502  0.15214598797E+03 -0.44769889650E+02  0.43049771517E+03  0.48987714979E+03  0.17175154859E+03 0.  0.
        -24    2    5    5    0    0  0.13642387273E+03 -0.91905375431E+02  0.34789337970E+03  0.39336546569E+03  0.81538425801E+02 0.  0.
          5    1    3    3  501    0 -0.81055545473E+02 -0.45947666472E+02  0.20391023912E+02  0.95493839394E+02  0.47000000000E+01 0. -1.
        -11    1    4    4    0    0 -0.53189472063E+02  0.26663855239E+02 -0.40951733049E+02  0.72229672256E+02  0.00000000000E+00 0.  1.
         12    1    4    4    0    0 -0.17900970432E+02  0.64053700882E+02  0.87350722009E+01  0.67079227973E+02  0.00000000000E+00 0. -1.
         -5    1    5    5    0  502  0.15722115239E+02  0.47135485781E+02  0.82604335477E+02  0.96511684096E+02  0.47000000000E+01 0.  1.
         11    1    6    6    0    0  0.28775153158E+02 -0.61099534437E+02  0.17282883989E+03  0.18555584185E+03  0.00000000000E+00 0. -1.
        -12    1    6    6    0    0  0.10764871957E+03 -0.30805840995E+02  0.17506453981E+03  0.20780962385E+03  0.00000000000E+00 0.  1.
<mgrwt>
<rscale>  2 0.23432242E+03</rscale>
<asrwt>0</asrwt>
<pdfrwt beam="1">  1       21 0.87950151E-01 0.23450476E+03</pdfrwt>
<pdfrwt beam="2">  1       21 0.23539063E-01 0.23450476E+03</pdfrwt>
<totfact> 0.18364172E+04</totfact>
</mgrwt>
</event>
<event>
12    1  0.1050690E-001  0.2143175E+03  0.7546771E-02  0.1138344E+00
         21   -1    0    0  503  502  0.00000000000E+00  0.00000000000E+00  0.13463393574E+04  0.13463393574E+04  0.00000000000E+00 0. -1.
         21   -1    0    0  501  503 -0.00000000000E+00 -0.00000000000E+00 -0.37480440865E+02  0.37480440865E+02  0.00000000000E+00 0. -1.
          6    2    1    2  501    0  0.13769220405E+02  0.12360323689E+03  0.44221329029E+03  0.49106750755E+03  0.17357232288E+03 0.  0.
         24    2    3    3    0    0 -0.35216450763E+02  0.93573271545E+01  0.16260365779E+03  0.18503587446E+03  0.80439836740E+02 0.  0.
         -6    2    1    2    0  502 -0.13769220405E+02 -0.12360323689E+03  0.86664562623E+03  0.89275229069E+03  0.17454128300E+03 0.  0.
        -24    2    5    5    0    0 -0.70179129338E+02 -0.10074236890E+03  0.69683190907E+03  0.71229873532E+03  0.81979532518E+02 0.  0.
          5    1    3    3  501    0  0.48985671168E+02  0.11424590973E+03  0.27960963249E+03  0.30603163309E+03  0.47000000000E+01 0. -1.
        -13    1    4    4    0    0 -0.48575197221E+02  0.34609373621E+02  0.11393198260E+03  0.12859959249E+03  0.00000000000E+00 0.  1.
         14    1    4    4    0    0  0.13358746458E+02 -0.25252046466E+02  0.48671675189E+02  0.56436281977E+02  0.00000000000E+00 0. -1.
         -5    1    5    5    0  502  0.56409908932E+02 -0.22860867983E+02  0.16981371716E+03  0.18045355537E+03  0.47000000000E+01 0.  1.
         13    1    6    6    0    0 -0.83742609279E+02 -0.67113310833E+02  0.43887166196E+03  0.45180234259E+03  0.00000000000E+00 0. -1.
        -14    1    6    6    0    0  0.13563479941E+02 -0.33629058070E+02  0.25796024711E+03  0.26049639273E+03  0.00000000000E+00 0.  1.
<mgrwt>
<rscale>  2 0.21412018E+03</rscale>
<asrwt>0</asrwt>
<pdfrwt beam="1">  1       21 0.20712909E+00 0.21431755E+03</pdfrwt>
<pdfrwt beam="2">  1       21 0.57662227E-02 0.21431755E+03</pdfrwt>
<totfact> 0.25127220E+04</totfact>
</mgrwt>
</event>
<event>
12    1  0.1050690E-001  0.1799309E+03  0.7546771E-02  0.1168105E+00
         21   -1    0    0  501  502  0.00000000000E+00  0.00000000000E+00  0.20992792448E+03  0.20992792448E+03  0.00000000000E+00 0. -1.
         21   -1    0    0  502  503 -0.00000000000E+00 -0.00000000000E+00 -0.19523467792E+03  0.19523467792E+03  0.00000000000E+00 0. -1.
         -6    2    1    2    0  503  0.48873899921E+02 -0.78130606372E+01  0.10114624816E+03  0.20641144545E+03  0.17298965081E+03 0.  0.
        -24    2    3    3    0    0  0.63090752469E+02 -0.69034741118E+01  0.13477885952E+03  0.16958497683E+03  0.81028528253E+02 0.  0.
          6    2    1    2  501    0 -0.48873899921E+02  0.78130606372E+01 -0.86453001597E+02  0.19875115695E+03  0.17198313549E+03 0.  0.
         24    2    5    5    0    0 -0.72126773411E+02  0.36097200434E+02 -0.10197936563E+02  0.11403035883E+03  0.79960274533E+02 0.  0.
          5    1    5    5  501    0  0.23252873491E+02 -0.28284139796E+02 -0.76255065034E+02  0.84720798113E+02  0.47000000000E+01 0. -1.
        -13    1    6    6    0    0 -0.46925931009E+02 -0.20832750445E+01 -0.38068682663E+02  0.60461621180E+02  0.00000000000E+00 0.  1.
         14    1    6    6    0    0 -0.25200842402E+02  0.38180475478E+02  0.27870746100E+02  0.53568737653E+02  0.00000000000E+00 0. -1.
         -5    1    3    3    0  503 -0.14216852548E+02 -0.90958652542E+00 -0.33632611364E+02  0.36826468623E+02  0.47000000000E+01 0.  1.
         13    1    4    4    0    0 -0.18936533804E+02 -0.54121636165E+01  0.37271516034E+02  0.42155067726E+02  0.00000000000E+00 0. -1.
        -14    1    4    4    0    0  0.82027286273E+02 -0.14913104953E+01  0.97507343486E+02  0.12742990910E+03  0.00000000000E+00 0.  1.
<mgrwt>
<rscale>  2 0.17968852E+03</rscale>
<asrwt>0</asrwt>
<pdfrwt beam="1">  1       21 0.32296604E-01 0.17993088E+03</pdfrwt>
<pdfrwt beam="2">  1       21 0.30036104E-01 0.17993088E+03</pdfrwt>
<totfact> 0.98529839E+04</totfact>
</mgrwt>
</event>
<event>
12    1  0.1050690E-001  0.2094945E+03  0.7546771E-02  0.1146572E+00
         21   -1    0    0  503  502  0.00000000000E+00  0.00000000000E+00  0.85020200142E+02  0.85020200142E+02  0.00000000000E+00 0. -1.
         21   -1    0    0  501  503 -0.00000000000E+00 -0.00000000000E+00 -0.71872048827E+03  0.71872048827E+03  0.00000000000E+00 0. -1.
          6    2    1    2  501    0 -0.36208216938E+02  0.67829309845E+02 -0.56724048564E+03  0.60468978110E+03  0.19487460730E+03 0.  0.
         24    2    3    3    0    0 -0.40469154295E+02  0.12172040686E+03 -0.35745923664E+03  0.38800413701E+03  0.79476377488E+02 0.  0.
         -6    2    1    2    0  502  0.36208216938E+02 -0.67829309845E+02 -0.66459802492E+02  0.19905090732E+03  0.17115054224E+03 0.  0.
        -24    2    5    5    0    0  0.24943498095E+02 -0.38616342607E+02 -0.11087875252E+03  0.14450345580E+03  0.80459623180E+02 0.  0.
          5    1    3    3  501    0  0.42609373575E+01 -0.53891097016E+02 -0.20978124899E+03  0.21668564409E+03  0.47000000000E+01 0. -1.
        -13    1    4    4    0    0 -0.79167276030E+01  0.25038243168E+02 -0.14090710458E+02  0.29801616032E+02  0.00000000000E+00 0.  1.
         14    1    4    4    0    0 -0.32552426692E+02  0.96682163692E+02 -0.34336852618E+03  0.35820252098E+03  0.00000000000E+00 0. -1.
         -5    1    5    5    0  502  0.11264718843E+02 -0.29212967238E+02  0.44418950031E+02  0.54547451520E+02  0.47000000000E+01 0.  1.
         13    1    6    6    0    0 -0.27234329635E+02 -0.16565750151E+02 -0.20695664046E+02  0.38005832435E+02  0.00000000000E+00 0. -1.
        -14    1    6    6    0    0  0.52177827730E+02 -0.22050592456E+02 -0.90183088477E+02  0.10649762336E+03  0.00000000000E+00 0.  1.
<mgrwt>
<rscale>  2 0.20379996E+03</rscale>
<asrwt>0</asrwt>
<pdfrwt beam="1">  1       21 0.13080031E-01 0.20949454E+03</pdfrwt>
<pdfrwt beam="2">  1       21 0.11057238E+00 0.20949454E+03</pdfrwt>
<totfact> 0.32114096E+04</totfact>
</mgrwt>
</event>
<event>
12    1  0.1050690E-001  0.2136452E+03  0.7546771E-02  0.1138763E+00
         21   -1    0    0  503  502  0.00000000000E+00  0.00000000000E+00  0.66549811593E+02  0.66549811593E+02  0.00000000000E+00 0. -1.
         21   -1    0    0  501  503 -0.00000000000E+00 -0.00000000000E+00 -0.10960681839E+04  0.10960681839E+04  0.00000000000E+00 0. -1.
          6    2    1    2  501    0 -0.42519702030E+02  0.11643063381E+03 -0.87054826311E+03  0.89631782431E+03  0.17368749590E+03 0.  0.
         24    2    3    3    0    0 -0.11899325908E+02 -0.10529217011E+02 -0.29272152883E+03  0.30389716633E+03  0.80094543492E+02 0.  0.
         -6    2    1    2    0  502  0.42519702030E+02 -0.11643063381E+03 -0.15897010923E+03  0.26630017120E+03  0.17401226395E+03 0.  0.
        -24    2    5    5    0    0  0.54487431675E+02 -0.14624137424E+03 -0.10683073823E+03  0.20487940269E+03  0.78786694710E+02 0.  0.
          5    1    3    3  501    0 -0.30620376122E+02  0.12695985083E+03 -0.57782673428E+03  0.59242065798E+03  0.47000000000E+01 0. -1.
        -13    1    4    4    0    0  0.33696892327E+02 -0.60556094587E+01 -0.96352856706E+02  0.10225470138E+03  0.00000000000E+00 0.  1.
         14    1    4    4    0    0 -0.45596218235E+02 -0.44736075522E+01 -0.19636867212E+03  0.20164246496E+03  0.00000000000E+00 0. -1.
         -5    1    5    5    0  502 -0.11967729645E+02  0.29810740427E+02 -0.52139370996E+02  0.61420768520E+02  0.47000000000E+01 0.  1.
         11    1    6    6    0    0 -0.42717074101E+01 -0.99312394071E+02 -0.65870838229E+02  0.11924833931E+03  0.00000000000E+00 0. -1.
        -12    1    6    6    0    0  0.58759139085E+02 -0.46928980171E+02 -0.40959900000E+02  0.85631063371E+02  0.00000000000E+00 0.  1.
<mgrwt>
<rscale>  2 0.21357909E+03</rscale>
<asrwt>0</asrwt>
<pdfrwt beam="1">  1       21 0.10238433E-01 0.21364523E+03</pdfrwt>
<pdfrwt beam="2">  1       21 0.16862587E+00 0.21364523E+03</pdfrwt>
<totfact> 0.16732089E+04</totfact>
</mgrwt>
</event>
<event>
12    1  0.1050690E-001  0.4575387E+03  0.7546771E-02  0.1025538E+00
         21   -1    0    0  501  502  0.00000000000E+00  0.00000000000E+00  0.31014773417E+03  0.31014773417E+03  0.00000000000E+00 0.  1.
         21   -1    0    0  502  503 -0.00000000000E+00 -0.00000000000E+00 -0.16666154795E+04  0.16666154795E+04  0.00000000000E+00 0.  1.
         -6    2    1    2    0  503 -0.41710508654E+03 -0.72032943159E+02 -0.14411112220E+04  0.15119997510E+04  0.17371325409E+03 0.  0.
        -24    2    3    3    0    0 -0.31067000641E+03 -0.11622850459E+03 -0.10259546119E+04  0.10811183580E+04  0.78797970043E+02 0.  0.
          6    2    1    2  501    0  0.41710508654E+03  0.72032943159E+02  0.84643476617E+02  0.46476346275E+03  0.17226479635E+03 0.  0.
         24    2    5    5    0    0  0.31532687952E+03  0.11579402136E+03  0.53308701127E+02  0.34953415423E+03  0.80579222030E+02 0.  0.
          5    1    5    5  501    0  0.10177820702E+03 -0.43761078201E+02  0.31334775490E+02  0.11522930853E+03  0.47000000000E+01 0. -1.
        -11    1    6    6    0    0  0.22639042587E+03  0.49210168952E+02  0.15568869953E+02  0.23219960243E+03  0.00000000000E+00 0.  1.
         12    1    6    6    0    0  0.88936453648E+02  0.66583852407E+02  0.37739831173E+02  0.11733455180E+03  0.00000000000E+00 0. -1.
         -5    1    3    3    0  503 -0.10643508013E+03  0.44195561429E+02 -0.41515661007E+03  0.43088139298E+03  0.47000000000E+01 0.  1.
         13    1    4    4    0    0 -0.10142257489E+02  0.71516556814E+01 -0.79448236206E+02  0.80411652154E+02  0.00000000000E+00 0. -1.
        -14    1    4    4    0    0 -0.30052774892E+03 -0.12338016027E+03 -0.94650637571E+03  0.10007067058E+04  0.00000000000E+00 0.  1.
<mgrwt>
<rscale>  2 0.45740168E+03</rscale>
<asrwt>0</asrwt>
<pdfrwt beam="1">  1       21 0.47715036E-01 0.45753873E+03</pdfrwt>
<pdfrwt beam="2">  1       21 0.25640238E+00 0.45753873E+03</pdfrwt>
<totfact> 0.20271549E+02</totfact>
</mgrwt>
</event>
<event>
12    1  0.1050690E-001  0.1870909E+03  0.7546771E-02  0.1161203E+00
         21   -1    0    0  501  502  0.00000000000E+00  0.00000000000E+00  0.24572146663E+03  0.24572146663E+03  0.00000000000E+00 0.  1.
         21   -1    0    0  502  503 -0.00000000000E+00 -0.00000000000E+00 -0.37078496149E+03  0.37078496149E+03  0.00000000000E+00 0.  1.
         -6    2    1    2    0  503 -0.31658591178E+02  0.65030171701E+02 -0.30461491281E+03  0.35748180391E+03  0.17254508222E+03 0.  0.
        -24    2    3    3    0    0 -0.81155319486E+02  0.71913140376E+02 -0.24652183587E+03  0.28070813030E+03  0.79160300792E+02 0.  0.
          6    2    1    2  501    0  0.31658591178E+02 -0.65030171701E+02  0.17955141795E+03  0.25902462421E+03  0.17211581750E+03 0.  0.
         24    2    5    5    0    0 -0.23247034188E+02  0.19020074301E+02  0.88414305851E+02  0.12335172806E+03  0.80600071405E+02 0.  0.
          5    1    5    5  501    0  0.54905625366E+02 -0.84050246002E+02  0.91137112096E+02  0.13567289616E+03  0.47000000000E+01 0. -1.
        -11    1    6    6    0    0 -0.26367637684E+02 -0.17233722436E+02  0.80036090242E+02  0.86011797140E+02  0.00000000000E+00 0.  1.
         12    1    6    6    0    0  0.31206034963E+01  0.36253796737E+02  0.83782156089E+01  0.37339930916E+02  0.00000000000E+00 0. -1.
         -5    1    3    3    0  503  0.49496728308E+02 -0.68829686748E+01 -0.58093076942E+02  0.76773673610E+02  0.47000000000E+01 0.  1.
         11    1    4    4    0    0 -0.22093390678E+02  0.77534442081E+01 -0.50236582197E+01  0.23947253509E+02  0.00000000000E+00 0. -1.
        -12    1    4    4    0    0 -0.59061928808E+02  0.64159696168E+02 -0.24149817765E+03  0.25676087680E+03  0.00000000000E+00 0.  1.
<mgrwt>
<rscale>  2 0.18699184E+03</rscale>
<asrwt>0</asrwt>
<pdfrwt beam="1">  1       21 0.37803302E-01 0.18709087E+03</pdfrwt>
<pdfrwt beam="2">  1       21 0.57043840E-01 0.18709087E+03</pdfrwt>
<totfact> 0.19546201E+04</totfact>
</mgrwt>
</event>
<event>
11    1  0.1050690E-001  0.2436209E+03  0.7546771E-02  0.1117540E+00
         21   -1    0    0  501  502  0.00000000000E+00  0.00000000000E+00  0.13779145462E+03  0.13779145462E+03  0.00000000000E+00 0.  1.
         21   -1    0    0  502  503 -0.00000000000E+00 -0.00000000000E+00 -0.71979134984E+03  0.71979134984E+03  0.00000000000E+00 0. -1.
         -6    2    1    2    0  503 -0.30592050746E+02 -0.17268247266E+03 -0.56312286101E+03  0.61323165098E+03  0.16790053975E+03 0.  0.
        -24    2    3    3    0    0  0.45097099537E+02 -0.92609356754E+02 -0.34264649789E+03  0.36671092558E+03  0.80374368288E+02 0.  0.
          6    2    1    2  501    0  0.30592050746E+02  0.17268247266E+03 -0.18877034218E+02  0.24435115347E+03  0.16910361868E+03 0.  0.
          5    1    5    5  501    0 -0.33923469390E+02  0.80578425707E+02 -0.77308914705E+02  0.11680086797E+03  0.47000000000E+01 0. -1.
        -13    1    5    5    0    0  0.27304907828E+02  0.29978511552E+02  0.15818316877E+02  0.43525719927E+02  0.00000000000E+00 0.  1.
         14    1    5    5    0    0  0.37210612309E+02  0.62125535403E+02  0.42613563609E+02  0.84024565581E+02  0.00000000000E+00 0. -1.
         -5    1    3    3    0  503 -0.75689150283E+02 -0.80073115907E+02 -0.22047636311E+03  0.24652072540E+03  0.47000000000E+01 0.  1.
         13    1    4    4    0    0  0.44913366462E+02 -0.55284814262E+02 -0.30680075079E+03  0.31496082592E+03  0.00000000000E+00 0. -1.
        -14    1    4    4    0    0  0.18373307444E+00 -0.37324542493E+02 -0.35845747097E+02  0.51750099662E+02  0.00000000000E+00 0.  1.
<mgrwt>
<rscale>  2 0.24341225E+03</rscale>
<asrwt>0</asrwt>
<pdfrwt beam="1">  1       21 0.21198685E-01 0.24362090E+03</pdfrwt>
<pdfrwt beam="2">  1       21 0.11073713E+00 0.24362090E+03</pdfrwt>
<totfact> 0.12883094E+04</totfact>
</mgrwt>
</event>
<event>
12    1  0.1050690E-001  0.2074874E+03  0.7546771E-02  0.1144070E+00
         21   -1    0    0  503  502  0.00000000000E+00  0.00000000000E+00  0.51752850787E+03  0.51752850787E+03  0.00000000000E+00 0.  1.
         21   -1    0    0  501  503 -0.00000000000E+00 -0.00000000000E+00 -0.95791166973E+02  0.95791166973E+02  0.00000000000E+00 0.  1.
          6    2    1    2  501    0 -0.99760852677E+02 -0.55839948780E+02  0.96445189231E+02  0.22880713482E+03  0.17314936561E+03 0.  0.
         24    2    3    3    0    0 -0.68817393467E+02 -0.10096650077E+03  0.40602279049E+02  0.15048457115E+03  0.77890905552E+02 0.  0.
         -6    2    1    2    0  502  0.99760852677E+02  0.55839948780E+02  0.32529215167E+03  0.38451254003E+03  0.17018984075E+03 0.  0.
        -24    2    5    5    0    0  0.65822880518E+02  0.71146286705E+02  0.32340236633E+03  0.34693952812E+03  0.79896807894E+02 0.  0.
          5    1    3    3  501    0 -0.30943459210E+02  0.45126551991E+02  0.55842910181E+02  0.78322563671E+02  0.47000000000E+01 0. -1.
        -11    1    4    4    0    0 -0.73892435585E+02 -0.78936795544E+02  0.49119783874E+01  0.10823694960E+03  0.00000000000E+00 0.  1.
         12    1    4    4    0    0  0.50750421175E+01 -0.22029705227E+02  0.35690300662E+02  0.42247621545E+02  0.00000000000E+00 0. -1.
         -5    1    5    5    0  502  0.33937972159E+02 -0.15306337926E+02  0.18897853343E+01  0.37573011905E+02  0.47000000000E+01 0.  1.
         11    1    6    6    0    0  0.40350127845E+02  0.35379471898E+02  0.28036631832E+03  0.28545597260E+03  0.00000000000E+00 0. -1.
        -12    1    6    6    0    0  0.25472752673E+02  0.35766814807E+02  0.43036048017E+02  0.61483555518E+02  0.00000000000E+00 0.  1.
<mgrwt>
<rscale>  2 0.20686885E+03</rscale>
<asrwt>0</asrwt>
<pdfrwt beam="1">  1       21 0.79619769E-01 0.20748742E+03</pdfrwt>
<pdfrwt beam="2">  1       21 0.14737103E-01 0.20748742E+03</pdfrwt>
<totfact> 0.55917192E+04</totfact>
</mgrwt>
</event>
<event>
12    1  0.1050690E-001  0.1858643E+03  0.7546771E-02  0.1162485E+00
         21   -1    0    0  503  502  0.00000000000E+00  0.00000000000E+00  0.73629393431E+02  0.73629393431E+02  0.00000000000E+00 0. -1.
         21   -1    0    0  501  503 -0.00000000000E+00 -0.00000000000E+00 -0.48620045787E+03  0.48620045787E+03  0.00000000000E+00 0. -1.
          6    2    1    2  501    0 -0.23678501278E+02  0.60129102400E+02 -0.26306521777E+03  0.32210065712E+03  0.17426802386E+03 0.  0.
         24    2    3    3    0    0 -0.77512435278E+02  0.37092953494E+02 -0.12366592390E+03  0.17082934544E+03  0.80655686150E+02 0.  0.
         -6    2    1    2    0  502  0.23678501278E+02 -0.60129102400E+02 -0.14950584667E+03  0.23772919418E+03  0.17316752351E+03 0.  0.
        -24    2    5    5    0    0  0.12105736143E+02 -0.19482959655E+02 -0.16731891883E+03  0.19162677177E+03  0.90548685773E+02 0.  0.
          5    1    3    3  501    0  0.53833934001E+02  0.23036148906E+02 -0.13939929387E+03  0.15127131169E+03  0.47000000000E+01 0. -1.
        -11    1    4    4    0    0 -0.53602209868E+02 -0.14907151557E+02 -0.36458243862E+02  0.66517844341E+02  0.00000000000E+00 0.  1.
         12    1    4    4    0    0 -0.23910225411E+02  0.52000105050E+02 -0.87207680035E+02  0.10431150110E+03  0.00000000000E+00 0. -1.
         -5    1    5    5    0  502  0.11572765135E+02 -0.40646142744E+02  0.17813072155E+02  0.46102422414E+02  0.47000000000E+01 0.  1.
         11    1    6    6    0    0  0.45750634708E+02  0.47984623800E+01 -0.12095834686E+03  0.12941046130E+03  0.00000000000E+00 0. -1.
        -12    1    6    6    0    0 -0.33644898564E+02 -0.24281422035E+02 -0.46360571966E+02  0.62216310470E+02  0.00000000000E+00 0.  1.
<mgrwt>
<rscale>  2 0.18560586E+03</rscale>
<asrwt>0</asrwt>
<pdfrwt beam="1">  1       21 0.11327599E-01 0.18586426E+03</pdfrwt>
<pdfrwt beam="2">  1       21 0.74800070E-01 0.18586426E+03</pdfrwt>
<totfact> 0.10430650E+05</totfact>
</mgrwt>
</event>
<event>
12    1  0.1050690E-001  0.2072694E+03  0.7546771E-02  0.1143759E+00
         21   -1    0    0  503  502  0.00000000000E+00  0.00000000000E+00  0.19773088463E+03  0.19773088463E+03  0.00000000000E+00 0.  1.
         21   -1    0    0  501  503 -0.00000000000E+00 -0.00000000000E+00 -0.22395548314E+03  0.22395548314E+03  0.00000000000E+00 0.  1.
          6    2    1    2  501    0 -0.11413510238E+03  0.40668588608E+01 -0.49722838612E+02  0.21315007556E+03  0.17296598825E+03 0.  0.
         24    2    3    3    0    0 -0.14049997874E+03 -0.20538077888E+02 -0.16959712808E+02  0.16420089752E+03  0.80698489564E+02 0.  0.
         -6    2    1    2    0  502  0.11413510238E+03 -0.40668588608E+01  0.23498240100E+02  0.20853629222E+03  0.17289261681E+03 0.  0.
        -24    2    5    5    0    0  0.48526194484E+01 -0.31363235082E+02  0.38092001256E+02  0.94857705427E+02  0.80868926597E+02 0.  0.
          5    1    3    3  501    0  0.26364876360E+02  0.24604936748E+02 -0.32763125804E+02  0.48949178035E+02  0.47000000000E+01 0. -1.
        -11    1    4    4    0    0 -0.90193806926E+02 -0.10912068646E+02 -0.49557225441E+02  0.10348871747E+03  0.00000000000E+00 0.  1.
         12    1    4    4    0    0 -0.50306171817E+02 -0.96260092422E+01  0.32597512632E+02  0.60712180052E+02  0.00000000000E+00 0. -1.
         -5    1    5    5    0  502  0.10928248293E+03  0.27296376221E+02 -0.14593761156E+02  0.11367858680E+03  0.47000000000E+01 0.  1.
         13    1    6    6    0    0 -0.30519064030E+02 -0.65485596046E+01 -0.74393977293E+01  0.32088027997E+02  0.00000000000E+00 0. -1.
        -14    1    6    6    0    0  0.35371683478E+02 -0.24814675477E+02  0.45531398985E+02  0.62769677430E+02  0.00000000000E+00 0.  1.
<mgrwt>
<rscale>  2 0.20725407E+03</rscale>
<asrwt>0</asrwt>
<pdfrwt beam="1">  1       21 0.30420136E-01 0.20726938E+03</pdfrwt>
<pdfrwt beam="2">  1       21 0.34454690E-01 0.20726938E+03</pdfrwt>
<totfact> 0.83676703E+04</totfact>
</mgrwt>
</event>
<event>
12    1  0.1050690E-001  0.1765644E+03  0.7546771E-02  0.1171958E+00
         21   -1    0    0  503  502  0.00000000000E+00  0.00000000000E+00  0.70076584731E+02  0.70076584731E+02  0.00000000000E+00 0.  1.
         21   -1    0    0  501  503 -0.00000000000E+00 -0.00000000000E+00 -0.50916295464E+03  0.50916295464E+03  0.00000000000E+00 0.  1.
          6    2    1    2  501    0  0.14096855193E+02  0.99845514573E+01 -0.33028047047E+03  0.37451325301E+03  0.17571731535E+03 0.  0.
         24    2    3    3    0    0  0.70855791486E+02 -0.57841269958E+01 -0.26800288151E+03  0.28865979556E+03  0.80280344835E+02 0.  0.
         -6    2    1    2    0  502 -0.14096855193E+02 -0.99845514573E+01 -0.10880589944E+03  0.20472628636E+03  0.17255641390E+03 0.  0.
        -24    2    5    5    0    0  0.92487693195E+01 -0.74299623129E+02 -0.59822624732E+02  0.12044759493E+03  0.72958227520E+02 0.  0.
          5    1    3    3  501    0 -0.56758936292E+02  0.15768678453E+02 -0.62277588965E+02  0.85853457452E+02  0.47000000000E+01 0. -1.
        -11    1    4    4    0    0  0.70462917690E+01  0.11377979955E+02 -0.16961659294E+03  0.17014375468E+03  0.00000000000E+00 0.  1.
         12    1    4    4    0    0  0.63809499717E+02 -0.17162106950E+02 -0.98386288563E+02  0.11851604088E+03  0.00000000000E+00 0. -1.
         -5    1    5    5    0  502 -0.23345624513E+02  0.64315071672E+02 -0.48983274705E+02  0.84278691428E+02  0.47000000000E+01 0.  1.
         13    1    6    6    0    0 -0.27960603624E+02 -0.15636159929E+02 -0.32966315326E+02  0.45968062810E+02  0.00000000000E+00 0. -1.
        -14    1    6    6    0    0  0.37209372944E+02 -0.58663463200E+02 -0.26856309406E+02  0.74479532117E+02  0.00000000000E+00 0.  1.
<mgrwt>
<rscale>  2 0.17577273E+03</rscale>
<asrwt>0</asrwt>
<pdfrwt beam="1">  1       21 0.10781013E-01 0.17656440E+03</pdfrwt>
<pdfrwt beam="2">  1       21 0.78332762E-01 0.17656440E+03</pdfrwt>
<totfact> 0.10308637E+05</totfact>
</mgrwt>
</event>
<event>
12    1  0.1050690E-001  0.3076958E+03  0.7546771E-02  0.1081477E+00
         21   -1    0    0  503  502  0.00000000000E+00  0.00000000000E+00  0.15036281293E+04  0.15036281293E+04  0.00000000000E+00 0.  1.
         21   -1    0    0  501  503 -0.00000000000E+00 -0.00000000000E+00 -0.64754627830E+02  0.64754627830E+02  0.00000000000E+00 0.  1.
          6    2    1    2  501    0  0.24902078442E+03  0.51723132086E+02  0.85091419318E+03  0.90477680084E+03  0.17285676648E+03 0.  0.
         24    2    3    3    0    0  0.22600172333E+03  0.81636146790E+02  0.81044402668E+03  0.84923771552E+03  0.81510353097E+02 0.  0.
         -6    2    1    2    0  502 -0.24902078442E+03 -0.51723132086E+02  0.58795930831E+03  0.66360595631E+03  0.17317645207E+03 0.  0.
        -24    2    5    5    0    0 -0.16534755270E+03  0.26146974857E+02  0.43220436861E+03  0.47035313097E+03  0.80049822517E+02 0.  0.
          5    1    3    3  501    0  0.23019061091E+02 -0.29913014704E+02  0.40470166503E+02  0.55539085327E+02  0.47000000000E+01 0. -1.
        -11    1    4    4    0    0  0.16968841623E+03  0.78877747580E+02  0.50327540574E+03  0.53693760503E+03  0.00000000000E+00 0.  1.
         12    1    4    4    0    0  0.56313307096E+02  0.27583992095E+01  0.30716862094E+03  0.31230011049E+03  0.00000000000E+00 0. -1.
         -5    1    5    5    0  502 -0.83673231719E+02 -0.77870106943E+02  0.15575493969E+03  0.19325282534E+03  0.47000000000E+01 0.  1.
         13    1    6    6    0    0 -0.10761065846E+03  0.38067818831E+02  0.19518209041E+03  0.22610895839E+03  0.00000000000E+00 0. -1.
        -14    1    6    6    0    0 -0.57736894249E+02 -0.11920843974E+02  0.23702227820E+03  0.24424417258E+03  0.00000000000E+00 0.  1.
<mgrwt>
<rscale>  2 0.30765086E+03</rscale>
<asrwt>0</asrwt>
<pdfrwt beam="1">  1       21 0.23132738E+00 0.30769582E+03</pdfrwt>
<pdfrwt beam="2">  1       21 0.99622516E-02 0.30769582E+03</pdfrwt>
<totfact> 0.64243049E+03</totfact>
</mgrwt>
</event>
<event>
12    1  0.1050690E-001  0.2375251E+03  0.7546771E-02  0.1122298E+00
         21   -1    0    0  501  502  0.00000000000E+00  0.00000000000E+00  0.70992061177E+02  0.70992061177E+02  0.00000000000E+00 0. -1.
         21   -1    0    0  502  503 -0.00000000000E+00 -0.00000000000E+00 -0.77832113000E+03  0.77832113000E+03  0.00000000000E+00 0. -1.
         -6    2    1    2    0  503  0.32115885022E+02 -0.15262224243E+03 -0.34533725238E+03  0.41635099056E+03  0.17252637627E+03 0.  0.
        -24    2    3    3    0    0  0.47227356192E+01 -0.31144976568E+01 -0.13010126304E+03  0.15281432995E+03  0.79961718752E+02 0.  0.
          6    2    1    2  501    0 -0.32115885022E+02  0.15262224243E+03 -0.36199181645E+03  0.43296220062E+03  0.17914578709E+03 0.  0.
         24    2    5    5    0    0 -0.55903316346E+02  0.22108390217E+02 -0.12282611977E+03  0.15942604583E+03  0.81953930316E+02 0.  0.
          5    1    5    5  501    0  0.23787431324E+02  0.13051385221E+03 -0.23916569668E+03  0.27353615479E+03  0.47000000000E+01 0. -1.
        -11    1    6    6    0    0 -0.47879123636E+02  0.18764504542E+02 -0.13500237821E+03  0.14446507963E+03  0.00000000000E+00 0.  1.
         12    1    6    6    0    0 -0.80241927101E+01  0.33438856748E+01  0.12176258437E+02  0.14960966198E+02  0.00000000000E+00 0. -1.
         -5    1    3    3    0  503  0.27393149403E+02 -0.14950774477E+03 -0.21523598933E+03  0.26353666061E+03  0.47000000000E+01 0.  1.
         13    1    4    4    0    0  0.13261290098E+02 -0.37865718054E+02 -0.92911888342E+02  0.10120421638E+03  0.00000000000E+00 0. -1.
        -14    1    4    4    0    0 -0.85385544784E+01  0.34751220397E+02 -0.37189374699E+02  0.51610113565E+02  0.00000000000E+00 0.  1.
<mgrwt>
<rscale>  2 0.23627738E+03</rscale>
<asrwt>0</asrwt>
<pdfrwt beam="1">  1       21 0.10921856E-01 0.23752514E+03</pdfrwt>
<pdfrwt beam="2">  1       21 0.11974170E+00 0.23752514E+03</pdfrwt>
<totfact> 0.35980314E+04</totfact>
</mgrwt>
</event>
<event>
12    1  0.1050690E-001  0.1930591E+03  0.7546771E-02  0.1156339E+00
         21   -1    0    0  503  502  0.00000000000E+00  0.00000000000E+00  0.41939160186E+03  0.41939160186E+03  0.00000000000E+00 0. -1.
         21   -1    0    0  501  503 -0.00000000000E+00 -0.00000000000E+00 -0.89191020297E+02  0.89191020297E+02  0.00000000000E+00 0.  1.
          6    2    1    2  501    0 -0.77269041482E+02 -0.36320284290E+02  0.13017408524E+03  0.23058547046E+03  0.17010202497E+03 0.  0.
         24    2    3    3    0    0 -0.47169924855E+02 -0.88284123802E+02  0.78328385606E+02  0.15111054355E+03  0.81731095997E+02 0.  0.
         -6    2    1    2    0  502  0.77269041482E+02  0.36320284290E+02  0.20002649633E+03  0.27799715170E+03  0.17315354254E+03 0.  0.
        -24    2    5    5    0    0  0.82568141502E+02 -0.34629085509E+02  0.12372610809E+03  0.17356663517E+03  0.82465480458E+02 0.  0.
          5    1    3    3  501    0 -0.30099116627E+02  0.51963839512E+02  0.51845699629E+02  0.79474926918E+02  0.47000000000E+01 0. -1.
        -13    1    4    4    0    0  0.21392805548E+02 -0.39984312777E+02  0.26591393999E+02  0.52568998775E+02  0.00000000000E+00 0.  1.
         14    1    4    4    0    0 -0.68562730402E+02 -0.48299811025E+02  0.51736991607E+02  0.98541544771E+02  0.00000000000E+00 0. -1.
         -5    1    5    5    0  502 -0.52991000205E+01  0.70949369799E+02  0.76300388240E+02  0.10443051652E+03  0.47000000000E+01 0.  1.
         13    1    6    6    0    0  0.93595232934E+01  0.23363397236E+02  0.44366418055E+02  0.51008117567E+02  0.00000000000E+00 0. -1.
        -14    1    6    6    0    0  0.73208618209E+02 -0.57992482744E+02  0.79359690037E+02  0.12255851761E+03  0.00000000000E+00 0.  1.
<mgrwt>
<rscale>  2 0.19237242E+03</rscale>
<asrwt>0</asrwt>
<pdfrwt beam="1">  1       21 0.64521784E-01 0.19305910E+03</pdfrwt>
<pdfrwt beam="2">  1       21 0.13721696E-01 0.19305910E+03</pdfrwt>
<totfact> 0.10211334E+05</totfact>
</mgrwt>
</event>
<event>
12    1  0.1050690E-001  0.3121911E+03  0.7546771E-02  0.1079536E+00
         21   -1    0    0  501  502  0.00000000000E+00  0.00000000000E+00  0.80451078993E+02  0.80451078993E+02  0.00000000000E+00 0. -1.
         21   -1    0    0  502  503 -0.00000000000E+00 -0.00000000000E+00 -0.12884383432E+04  0.12884383432E+04  0.00000000000E+00 0.  1.
         -6    2    1    2    0  503  0.25036635202E+03 -0.68874260581E+02 -0.42679031112E+03  0.52762136753E+03  0.16972732193E+03 0.  0.
        -24    2    3    3    0    0  0.10698126355E+03 -0.12091541931E+02 -0.29805160846E+03  0.32667534419E+03  0.79314708956E+02 0.  0.
          6    2    1    2  501    0 -0.25036635202E+03  0.68874260581E+02 -0.78119695310E+03  0.84126805468E+03  0.17330979862E+03 0.  0.
         24    2    5    5    0    0 -0.37928306147E+02  0.15696192960E+02 -0.16967841664E+03  0.19170293813E+03  0.79210633958E+02 0.  0.
          5    1    5    5  501    0 -0.21243804587E+03  0.53178067622E+02 -0.61151853645E+03  0.64956511655E+03  0.47000000000E+01 0. -1.
        -13    1    6    6    0    0 -0.51055319418E+02 -0.16790485297E+02 -0.93345006640E+02  0.10771191346E+03  0.00000000000E+00 0.  1.
         14    1    6    6    0    0  0.13127013271E+02  0.32486678257E+02 -0.76333410004E+02  0.83991024666E+02  0.00000000000E+00 0. -1.
         -5    1    3    3    0  503  0.14338508847E+03 -0.56782718650E+02 -0.12873870266E+03  0.20094602334E+03  0.47000000000E+01 0.  1.
         13    1    4    4    0    0  0.31523944887E+02 -0.75591569039E+01 -0.19019914235E+02  0.37585330806E+02  0.00000000000E+00 0. -1.
        -14    1    4    4    0    0  0.75457318662E+02 -0.45323850273E+01 -0.27903169423E+03  0.28909001338E+03  0.00000000000E+00 0.  1.
<mgrwt>
<rscale>  2 0.31169627E+03</rscale>
<asrwt>0</asrwt>
<pdfrwt beam="1">  1       21 0.12377089E-01 0.31219106E+03</pdfrwt>
<pdfrwt beam="2">  1       21 0.19822128E+00 0.31219106E+03</pdfrwt>
<totfact> 0.70424408E+03</totfact>
</mgrwt>
</event>
<event>
12    1  0.1050690E-001  0.2539711E+03  0.7546771E-02  0.1111526E+00
         21   -1    0    0  501  502  0.00000000000E+00  0.00000000000E+00  0.40323097383E+02  0.40323097383E+02  0.00000000000E+00 0.  1.
         21   -1    0    0  502  503 -0.00000000000E+00 -0.00000000000E+00 -0.16821314736E+04  0.16821314736E+04  0.00000000000E+00 0.  1.
         -6    2    1    2    0  503 -0.12187865622E+03 -0.14107259865E+03 -0.10350863315E+04  0.10647213670E+04  0.16574676718E+03 0.  0.
        -24    2    3    3    0    0 -0.56459265649E+01 -0.65156973009E+02 -0.50868471449E+03  0.52030059038E+03  0.87608549687E+02 0.  0.
          6    2    1    2  501    0  0.12187865622E+03  0.14107259865E+03 -0.60672204471E+03  0.65773320394E+03  0.17246867279E+03 0.  0.
         24    2    5    5    0    0  0.70896854669E+02  0.30365054735E+02 -0.42186886550E+03  0.43626516509E+03  0.80034705209E+02 0.  0.
          5    1    5    5  501    0  0.50981801555E+02  0.11070754392E+03 -0.18485317921E+03  0.22146803886E+03  0.47000000000E+01 0. -1.
        -11    1    6    6    0    0  0.25943568672E+02  0.15771668746E+02 -0.34226629824E+02  0.45752338515E+02  0.00000000000E+00 0.  1.
         12    1    6    6    0    0  0.44953285997E+02  0.14593385989E+02 -0.38764223568E+03  0.39051282657E+03  0.00000000000E+00 0. -1.
         -5    1    3    3    0  503 -0.11623272966E+03 -0.75915625643E+02 -0.52640161700E+03  0.54442077665E+03  0.47000000000E+01 0.  1.
         13    1    4    4    0    0 -0.33238572530E+02 -0.66964397866E+02 -0.27482952333E+03  0.28481625688E+03  0.00000000000E+00 0. -1.
        -14    1    4    4    0    0  0.27592645965E+02  0.18074248569E+01 -0.23385519116E+03  0.23548433351E+03  0.00000000000E+00 0.  1.
<mgrwt>
<rscale>  2 0.25283452E+03</rscale>
<asrwt>0</asrwt>
<pdfrwt beam="1">  1       21 0.62035543E-02 0.25397112E+03</pdfrwt>
<pdfrwt beam="2">  1       21 0.25878942E+00 0.25397112E+03</pdfrwt>
<totfact> 0.10435611E+04</totfact>
</mgrwt>
</event>
<event>
12    1  0.1050690E-001  0.1739444E+03  0.7546771E-02  0.1173867E+00
         21   -1    0    0  501  502  0.00000000000E+00  0.00000000000E+00  0.67859504932E+02  0.67859504932E+02  0.00000000000E+00 0.  1.
         21   -1    0    0  502  503 -0.00000000000E+00 -0.00000000000E+00 -0.11467941951E+04  0.11467941951E+04  0.00000000000E+00 0.  1.
         -6    2    1    2    0  503  0.16393619135E+02  0.49327270411E+01 -0.10146858648E+04  0.10294872733E+04  0.17309985310E+03 0.  0.
        -24    2    3    3    0    0 -0.98389714569E+01  0.39154235159E+01 -0.21549634449E+03  0.22985287992E+03  0.79256141849E+02 0.  0.
          6    2    1    2  501    0 -0.16393619135E+02 -0.49327270411E+01 -0.64248825390E+02  0.18516642674E+03  0.17281669909E+03 0.  0.
         24    2    5    5    0    0 -0.82714088919E+01 -0.26331512822E+02  0.30716548596E+02  0.87368724373E+02  0.76993654728E+02 0.  0.
          5    1    5    5  501    0 -0.81222102428E+01  0.21398785781E+02 -0.94965373986E+02  0.97797702368E+02  0.47000000000E+01 0. -1.
        -13    1    6    6    0    0 -0.40257365086E+02 -0.28734520308E+02  0.21978248803E+02  0.54123668772E+02  0.00000000000E+00 0.  1.
         14    1    6    6    0    0  0.31985956194E+02  0.24030074860E+01  0.87382997935E+01  0.33245055601E+02  0.00000000000E+00 0. -1.
         -5    1    3    3    0  503  0.26232590592E+02  0.10173035251E+01 -0.79918952029E+03  0.79963439337E+03  0.47000000000E+01 0.  1.
         11    1    4    4    0    0 -0.17985624913E+02 -0.28000562215E+02 -0.43709922770E+02  0.54936977861E+02  0.00000000000E+00 0. -1.
        -12    1    4    4    0    0  0.81466534563E+01  0.31915985731E+02 -0.17178642172E+03  0.17491590206E+03  0.00000000000E+00 0.  1.
<mgrwt>
<rscale>  2 0.17387388E+03</rscale>
<asrwt>0</asrwt>
<pdfrwt beam="1">  1       21 0.10439925E-01 0.17394436E+03</pdfrwt>
<pdfrwt beam="2">  1       21 0.17642986E+00 0.17394436E+03</pdfrwt>
<totfact> 0.14685575E+04</totfact>
</mgrwt>
</event>
<event>
12    1  0.1050690E-001  0.2705228E+03  0.7546771E-02  0.1102761E+00
         21   -1    0    0  501  502  0.00000000000E+00  0.00000000000E+00  0.52117987333E+03  0.52117987333E+03  0.00000000000E+00 0. -1.
         21   -1    0    0  502  503 -0.00000000000E+00 -0.00000000000E+00 -0.24269453279E+03  0.24269453279E+03  0.00000000000E+00 0.  1.
         -6    2    1    2    0  503 -0.17414271265E+02  0.19164774171E+03 -0.11435015314E+03  0.29369807864E+03  0.19013282233E+03 0.  0.
        -24    2    3    3    0    0 -0.84214758725E+02  0.12872222696E+03 -0.47686618482E+02  0.18017256440E+03  0.80787388116E+02 0.  0.
          6    2    1    2  501    0  0.17414271265E+02 -0.19164774171E+03  0.39283549368E+03  0.47017632748E+03  0.17237731892E+03 0.  0.
         24    2    5    5    0    0  0.31456462398E+02 -0.18487199304E+03  0.23369626421E+03  0.31020608569E+03  0.80291399633E+02 0.  0.
          5    1    5    5  501    0 -0.14042191133E+02 -0.67757486719E+01  0.15913922947E+03  0.15997024179E+03  0.47000000000E+01 0. -1.
        -11    1    6    6    0    0  0.27406406976E+02 -0.13579686872E+02  0.21095311851E+02  0.37155500548E+02  0.00000000000E+00 0.  1.
         12    1    6    6    0    0  0.40500554222E+01 -0.17129230617E+03  0.21260095236E+03  0.27305058514E+03  0.00000000000E+00 0. -1.
         -5    1    3    3    0  503  0.66800487460E+02  0.62925514753E+02 -0.66663534659E+02  0.11352551425E+03  0.47000000000E+01 0.  1.
         11    1    4    4    0    0 -0.25350466756E+00  0.40169989081E+02  0.15129119086E+02  0.42925313414E+02  0.00000000000E+00 0. -1.
        -12    1    4    4    0    0 -0.83961254058E+02  0.88552237878E+02 -0.62815737568E+02  0.13724725098E+03  0.00000000000E+00 0.  1.
<mgrwt>
<rscale>  2 0.26742755E+03</rscale>
<asrwt>0</asrwt>
<pdfrwt beam="1">  1       21 0.80181519E-01 0.27052283E+03</pdfrwt>
<pdfrwt beam="2">  1       21 0.37337621E-01 0.27052283E+03</pdfrwt>
<totfact> 0.90257613E+03</totfact>
</mgrwt>
</event>
<event>
12    1  0.1050690E-001  0.1838496E+03  0.7546771E-02  0.1165105E+00
         21   -1    0    0  501  502  0.00000000000E+00  0.00000000000E+00  0.33283152268E+03  0.33283152268E+03  0.00000000000E+00 0.  1.
         21   -1    0    0  502  503 -0.00000000000E+00 -0.00000000000E+00 -0.13247410609E+03  0.13247410609E+03  0.00000000000E+00 0.  1.
         -6    2    1    2    0  503  0.24924435506E+02  0.40418986377E+02 -0.17079131393E+02  0.18056129735E+03  0.17336598117E+03 0.  0.
        -24    2    3    3    0    0  0.15934792702E+02 -0.30171203560E+02  0.30810352719E+02  0.94658554195E+02  0.82745059701E+02 0.  0.
          6    2    1    2  501    0 -0.24924435506E+02 -0.40418986377E+02  0.21743654798E+03  0.28474433142E+03  0.17761126071E+03 0.  0.
         24    2    5    5    0    0 -0.50258051244E+01 -0.11011609972E+02  0.23196098305E+03  0.24609464200E+03  0.81302895945E+02 0.  0.
          5    1    5    5  501    0 -0.19898630382E+02 -0.29407376405E+02 -0.14524435073E+02  0.38649689420E+02  0.47000000000E+01 0. -1.
        -13    1    6    6    0    0  0.24066795497E+02 -0.33033906602E+02  0.16334150139E+03  0.16837724225E+03  0.00000000000E+00 0.  1.
         14    1    6    6    0    0 -0.29092600622E+02  0.22022296629E+02  0.68619481657E+02  0.77717399742E+02  0.00000000000E+00 0. -1.
         -5    1    3    3    0  503  0.89896428040E+01  0.70590189937E+02 -0.47889484113E+02  0.85902743156E+02  0.47000000000E+01 0.  1.
         11    1    4    4    0    0  0.35699043982E+02 -0.49672515638E+02  0.16177791664E+02  0.63273228890E+02  0.00000000000E+00 0. -1.
        -12    1    4    4    0    0 -0.19764251281E+02  0.19501312078E+02  0.14632561055E+02  0.31385325305E+02  0.00000000000E+00 0.  1.
<mgrwt>
<rscale>  2 0.18281647E+03</rscale>
<asrwt>0</asrwt>
<pdfrwt beam="1">  1       21 0.51204849E-01 0.18384962E+03</pdfrwt>
<pdfrwt beam="2">  1       21 0.20380632E-01 0.18384962E+03</pdfrwt>
<totfact> 0.81078866E+04</totfact>
</mgrwt>
</event>
<event>
12    1  0.1050690E-001  0.2533994E+03  0.7546771E-02  0.1111252E+00
         21   -1    0    0  501  502  0.00000000000E+00  0.00000000000E+00  0.98871906839E+03  0.98871906839E+03  0.00000000000E+00 0. -1.
         21   -1    0    0  502  503 -0.00000000000E+00 -0.00000000000E+00 -0.68756446406E+02  0.68756446406E+02  0.00000000000E+00 0.  1.
         -6    2    1    2    0  503  0.14797845306E+03  0.11086537298E+03  0.33301221192E+03  0.41816179823E+03  0.17254971085E+03 0.  0.
        -24    2    3    3    0    0  0.16417532705E+03  0.12055030185E+03  0.22759046793E+03  0.31096118871E+03  0.58425392644E+02 0.  0.
          6    2    1    2  501    0 -0.14797845306E+03 -0.11086537298E+03  0.58695041007E+03  0.63931371657E+03  0.17326999401E+03 0.  0.
         24    2    5    5    0    0 -0.63440786822E+02 -0.58357864165E+02  0.14461671886E+03  0.18589907204E+03  0.78829536790E+02 0.  0.
          5    1    5    5  501    0 -0.84537666240E+02 -0.52507508811E+02  0.44233369121E+03  0.45341464453E+03  0.47000000000E+01 0. -1.
        -11    1    6    6    0    0 -0.47915323576E+02 -0.43297259033E+00  0.29977612824E+02  0.56521880447E+02  0.00000000000E+00 0.  1.
         12    1    6    6    0    0 -0.15525463246E+02 -0.57924891575E+02  0.11463910603E+03  0.12937719159E+03  0.00000000000E+00 0. -1.
         -5    1    3    3    0  503 -0.16196873987E+02 -0.96849288752E+01  0.10542174399E+03  0.10720060951E+03  0.47000000000E+01 0.  1.
         13    1    4    4    0    0  0.58675534683E+02  0.55176528277E+02  0.13062762044E+03  0.15346283871E+03  0.00000000000E+00 0. -1.
        -14    1    4    4    0    0  0.10549979237E+03  0.65373773575E+02  0.96962847489E+02  0.15749835000E+03  0.00000000000E+00 0.  1.
<mgrwt>
<rscale>  2 0.25327629E+03</rscale>
<asrwt>0</asrwt>
<pdfrwt beam="1">  1       21 0.15211062E+00 0.25339938E+03</pdfrwt>
<pdfrwt beam="2">  1       21 0.10577916E-01 0.25339938E+03</pdfrwt>
<totfact> 0.20397509E+04</totfact>
</mgrwt>
</event>
<event>
12    1  0.1050690E-001  0.2170484E+03  0.7546771E-02  0.1136554E+00
         21   -1    0    0  501  502  0.00000000000E+00  0.00000000000E+00  0.26132279246E+04  0.26132279246E+04  0.00000000000E+00 0. -1.
         21   -1    0    0  502  503 -0.00000000000E+00 -0.00000000000E+00 -0.40605160261E+02  0.40605160261E+02  0.00000000000E+00 0.  1.
         -6    2    1    2    0  503  0.10226132313E+03 -0.74917454048E+02  0.28949228337E+03  0.36040883009E+03  0.17325916873E+03 0.  0.
        -24    2    3    3    0    0  0.74549143233E+02  0.20941043426E+02  0.12737522014E+03  0.16998601465E+03  0.81698815246E+02 0.  0.
          6    2    1    2  501    0 -0.10226132313E+03  0.74917454048E+02  0.22831304810E+04  0.22934242548E+04  0.17618177006E+03 0.  0.
         24    2    5    5    0    0 -0.33311262808E+02  0.53106261390E+02  0.19447922856E+04  0.19474117356E+04  0.79155030033E+02 0.  0.
          5    1    5    5  501    0 -0.68950060323E+02  0.21811192658E+02  0.33833819542E+03  0.34601251917E+03  0.47000000000E+01 0. -1.
        -11    1    6    6    0    0 -0.21442494489E+02 -0.53784260744E+01  0.12094051202E+04  0.12096071482E+04  0.00000000000E+00 0.  1.
         12    1    6    6    0    0 -0.11868768320E+02  0.58484687464E+02  0.73538716535E+03  0.73780458747E+03  0.00000000000E+00 0. -1.
         -5    1    3    3    0  503  0.27712179898E+02 -0.95858497474E+02  0.16211706323E+03  0.19042281545E+03  0.47000000000E+01 0.  1.
         11    1    4    4    0    0  0.68714660548E+02  0.42132810841E+02  0.12378479467E+03  0.14771443299E+03  0.00000000000E+00 0. -1.
        -12    1    4    4    0    0  0.58344826850E+01 -0.21191767415E+02  0.35904254789E+01  0.22271581657E+02  0.00000000000E+00 0.  1.
<mgrwt>
<rscale>  2 0.21645461E+03</rscale>
<asrwt>0</asrwt>
<pdfrwt beam="1">  1       21 0.40203493E+00 0.21704843E+03</pdfrwt>
<pdfrwt beam="2">  1       21 0.62469498E-02 0.21704843E+03</pdfrwt>
<totfact> 0.15041643E+03</totfact>
</mgrwt>
</event>
<event>
12    1  0.1050690E-001  0.2032639E+03  0.7546771E-02  0.1147588E+00
         21   -1    0    0  501  502  0.00000000000E+00  0.00000000000E+00  0.18993438601E+03  0.18993438601E+03  0.00000000000E+00 0.  1.
         21   -1    0    0  502  503 -0.00000000000E+00 -0.00000000000E+00 -0.87236640708E+03  0.87236640708E+03  0.00000000000E+00 0.  1.
         -6    2    1    2    0  503 -0.10046988774E+03  0.19582818934E+02 -0.80186015276E+03  0.82654822841E+03  0.17240819053E+03 0.  0.
        -24    2    3    3    0    0 -0.41625150730E+02 -0.47653040153E+02 -0.29366104727E+03  0.31053293344E+03  0.78679264472E+02 0.  0.
          6    2    1    2  501    0  0.10046988774E+03 -0.19582818934E+02  0.11942813169E+03  0.23575256468E+03  0.17560896325E+03 0.  0.
         24    2    5    5    0    0 -0.19310187118E+02 -0.24509926568E+01  0.60246465121E+02  0.10097376270E+03  0.78658588233E+02 0.  0.
          5    1    5    5  501    0  0.11978007486E+03 -0.17131826277E+02  0.59181666566E+02  0.13477880198E+03  0.47000000000E+01 0. -1.
        -13    1    6    6    0    0  0.67396382479E+01 -0.38082162006E+01 -0.17409928783E+02  0.19053368588E+02  0.00000000000E+00 0.  1.
         14    1    6    6    0    0 -0.26049825365E+02  0.13572235438E+01  0.77656393904E+02  0.81920394112E+02  0.00000000000E+00 0. -1.
         -5    1    3    3    0  503 -0.58844737014E+02  0.67235859086E+02 -0.50819910549E+03  0.51601529497E+03  0.47000000000E+01 0.  1.
         11    1    4    4    0    0 -0.39728310888E+02 -0.85705009167E+01 -0.53402561706E+02  0.67109058769E+02  0.00000000000E+00 0. -1.
        -12    1    4    4    0    0 -0.18968398419E+01 -0.39082539236E+02 -0.24025848557E+03  0.24342387467E+03  0.00000000000E+00 0.  1.
<mgrwt>
<rscale>  2 0.20257061E+03</rscale>
<asrwt>0</asrwt>
<pdfrwt beam="1">  1       21 0.29220675E-01 0.20326385E+03</pdfrwt>
<pdfrwt beam="2">  1       21 0.13421022E+00 0.20326385E+03</pdfrwt>
<totfact> 0.44330130E+03</totfact>
</mgrwt>
</event>
<event>
12    1  0.1050690E-001  0.1925786E+03  0.7546771E-02  0.1160207E+00
         21   -1    0    0  503  502  0.00000000000E+00  0.00000000000E+00  0.29868684253E+02  0.29868684253E+02  0.00000000000E+00 0. -1.
         21   -1    0    0  501  503 -0.00000000000E+00 -0.00000000000E+00 -0.12615130488E+04  0.12615130488E+04  0.00000000000E+00 0. -1.
          6    2    1    2  501    0  0.61401264741E+01  0.81402887614E+02 -0.84854661355E+03  0.87012520877E+03  0.17442016026E+03 0.  0.
         24    2    3    3    0    0  0.52157286313E+02  0.89823226181E+02 -0.75827022678E+03  0.76833917285E+03  0.67696035544E+02 0.  0.
         -6    2    1    2    0  502 -0.61401264741E+01 -0.81402887614E+02 -0.38309775098E+03  0.42125652427E+03  0.15501303547E+03 0.  0.
        -24    2    5    5    0    0  0.23891211508E+02 -0.98223706819E+01 -0.11995532781E+03  0.14686323620E+03  0.80698578199E+02 0.  0.
          5    1    3    3  501    0 -0.46017159838E+02 -0.84203385673E+01 -0.90276386764E+02  0.10178603592E+03  0.47000000000E+01 0. -1.
        -13    1    4    4    0    0  0.46641022610E+00  0.22468739206E+02 -0.37972049335E+03  0.38038495613E+03  0.00000000000E+00 0.  1.
         14    1    4    4    0    0  0.51690876086E+02  0.67354486975E+02 -0.37854973343E+03  0.38795421672E+03  0.00000000000E+00 0. -1.
         -5    1    5    5    0  502 -0.30031337982E+02 -0.71580516932E+02 -0.26314242317E+03  0.27439328807E+03  0.47000000000E+01 0.  1.
         11    1    6    6    0    0 -0.68481317935E+01  0.26188108504E+02 -0.81468394193E+02  0.85847616091E+02  0.00000000000E+00 0. -1.
        -12    1    6    6    0    0  0.30739343301E+02 -0.36010479186E+02 -0.38486933619E+02  0.61015620108E+02  0.00000000000E+00 0.  1.
<mgrwt>
<rscale>  2 0.18807725E+03</rscale>
<asrwt>0</asrwt>
<pdfrwt beam="1">  1       21 0.45951828E-02 0.19257862E+03</pdfrwt>
<pdfrwt beam="2">  1       21 0.19407891E+00 0.19257862E+03</pdfrwt>
<totfact> 0.45509247E+04</totfact>
</mgrwt>
</event>
<event>
12    1  0.1050690E-001  0.2869148E+03  0.7546771E-02  0.1092101E+00
         21   -1    0    0  501  502  0.00000000000E+00  0.00000000000E+00  0.71049724641E+03  0.71049724641E+03  0.00000000000E+00 0. -1.
         21   -1    0    0  502  503 -0.00000000000E+00 -0.00000000000E+00 -0.11578951057E+03  0.11578951057E+03  0.00000000000E+00 0. -1.
         -6    2    1    2    0  503  0.19497141353E+03 -0.12101487854E+03  0.27605198954E+03  0.39815173690E+03  0.17222558388E+03 0.  0.
        -24    2    3    3    0    0  0.18837482344E+03 -0.15161320410E+03  0.23762954565E+03  0.34837074933E+03  0.80142000614E+02 0.  0.
          6    2    1    2  501    0 -0.19497141353E+03  0.12101487854E+03  0.31865574630E+03  0.42813502008E+03  0.17058621822E+03 0.  0.
         24    2    5    5    0    0 -0.21406071453E+03  0.12682509681E+03  0.26927799449E+03  0.37467089732E+03  0.77207825356E+02 0.  0.
          5    1    5    5  501    0  0.19089300993E+02 -0.58102182790E+01  0.49377751811E+02  0.53464122763E+02  0.47000000000E+01 0. -1.
        -11    1    6    6    0    0 -0.11451431033E+03  0.96696394483E+02  0.11640748914E+03  0.18977466508E+03  0.00000000000E+00 0.  1.
         12    1    6    6    0    0 -0.99546404193E+02  0.30128702332E+02  0.15287050535E+03  0.18489623224E+03  0.00000000000E+00 0. -1.
         -5    1    3    3    0  503  0.65965900900E+01  0.30598325561E+02  0.38422443895E+02  0.49780987564E+02  0.47000000000E+01 0.  1.
         11    1    4    4    0    0  0.10931674392E+01 -0.77830529487E+01 -0.53818850048E+01  0.95255243665E+01  0.00000000000E+00 0. -1.
        -12    1    4    4    0    0  0.18728165600E+03 -0.14383015115E+03  0.24301143065E+03  0.33884522496E+03  0.00000000000E+00 0.  1.
<mgrwt>
<rscale>  2 0.28666923E+03</rscale>
<asrwt>0</asrwt>
<pdfrwt beam="1">  1       21 0.10930727E+00 0.28691480E+03</pdfrwt>
<pdfrwt beam="2">  1       21 0.17813771E-01 0.28691480E+03</pdfrwt>
<totfact> 0.18038897E+04</totfact>
</mgrwt>
</event>
<event>
12    1  0.1050690E-001  0.2181433E+03  0.7546771E-02  0.1135707E+00
         21   -1    0    0  501  502  0.00000000000E+00  0.00000000000E+00  0.28570461746E+03  0.28570461746E+03  0.00000000000E+00 0. -1.
         21   -1    0    0  502  503 -0.00000000000E+00 -0.00000000000E+00 -0.16974466198E+03  0.16974466198E+03  0.00000000000E+00 0.  1.
         -6    2    1    2    0  503 -0.88918529553E+02 -0.99757727443E+02  0.19489005292E+02  0.21901213371E+03  0.17241921095E+03 0.  0.
        -24    2    3    3    0    0 -0.46725309947E+02  0.10178279859E+02 -0.14297120002E+02  0.96416107087E+02  0.82491248597E+02 0.  0.
          6    2    1    2  501    0  0.88918529553E+02  0.99757727443E+02  0.96470950192E+02  0.23643714572E+03  0.16952218310E+03 0.  0.
         24    2    5    5    0    0  0.91443033371E+02  0.72514437439E+02  0.16029823391E+01  0.13759084435E+03  0.72859446252E+02 0.  0.
          5    1    5    5  501    0 -0.25245038178E+01  0.27243290004E+02  0.94867967853E+02  0.98846301369E+02  0.47000000000E+01 0. -1.
        -11    1    6    6    0    0  0.72418451345E+02  0.19129341615E+02  0.20829554455E+02  0.77744672773E+02  0.00000000000E+00 0.  1.
         12    1    6    6    0    0  0.19024582026E+02  0.53385095824E+02 -0.19226572116E+02  0.59846171579E+02  0.00000000000E+00 0. -1.
         -5    1    3    3    0  503 -0.42193219606E+02 -0.10993600730E+03  0.33786125295E+02  0.12259602663E+03  0.47000000000E+01 0.  1.
         11    1    4    4    0    0  0.18123839320E+02  0.10697733813E+02  0.14398675190E+02  0.25499743286E+02  0.00000000000E+00 0. -1.
        -12    1    4    4    0    0 -0.64849149267E+02 -0.51945395424E+00 -0.28695795192E+02  0.70916363801E+02  0.00000000000E+00 0.  1.
<mgrwt>
<rscale>  2 0.21757041E+03</rscale>
<asrwt>0</asrwt>
<pdfrwt beam="1">  1       21 0.43954557E-01 0.21814329E+03</pdfrwt>
<pdfrwt beam="2">  1       21 0.26114563E-01 0.21814329E+03</pdfrwt>
<totfact> 0.68518104E+04</totfact>
</mgrwt>
</event>
<event>
12    1  0.1050690E-001  0.1835592E+03  0.7546771E-02  0.1164528E+00
         21   -1    0    0  503  502  0.00000000000E+00  0.00000000000E+00  0.40070395428E+03  0.40070395428E+03  0.00000000000E+00 0. -1.
         21   -1    0    0  501  503 -0.00000000000E+00 -0.00000000000E+00 -0.98376021037E+02  0.98376021037E+02  0.00000000000E+00 0.  1.
          6    2    1    2  501    0  0.89385602977E+01  0.60869314276E+02  0.55440973128E+02  0.19174901912E+03  0.17294222605E+03 0.  0.
         24    2    3    3    0    0 -0.90126765186E+01 -0.12114863324E+02 -0.18101699200E+02  0.86489569494E+02  0.83215238183E+02 0.  0.
         -6    2    1    2    0  502 -0.89385602977E+01 -0.60869314276E+02  0.24688696012E+03  0.30733095620E+03  0.17237799825E+03 0.  0.
        -24    2    5    5    0    0  0.37170619122E+01 -0.10024655013E+03  0.22753386768E+03  0.26142492540E+03  0.80673064380E+02 0.  0.
          5    1    3    3  501    0  0.17951236816E+02  0.72984177599E+02  0.73542672329E+02  0.10525944963E+03  0.47000000000E+01 0. -1.
        -11    1    4    4    0    0  0.27214950768E+02 -0.31872081548E+02 -0.16951134122E+02  0.45208672570E+02  0.00000000000E+00 0.  1.
         12    1    4    4    0    0 -0.36227627287E+02  0.19757218225E+02 -0.11505650781E+01  0.41280896923E+02  0.00000000000E+00 0. -1.
         -5    1    5    5    0  502 -0.12655622210E+02  0.39377235852E+02  0.19353092441E+02  0.45906030801E+02  0.47000000000E+01 0.  1.
         13    1    6    6    0    0 -0.51860871374E+01 -0.10205513900E+03  0.13949774585E+03  0.17292127687E+03  0.00000000000E+00 0. -1.
        -14    1    6    6    0    0  0.89031490496E+01  0.18085888705E+01  0.88036121828E+02  0.88503648531E+02  0.00000000000E+00 0.  1.
<mgrwt>
<rscale>  2 0.18342620E+03</rscale>
<asrwt>0</asrwt>
<pdfrwt beam="1">  1       21 0.61646761E-01 0.18355921E+03</pdfrwt>
<pdfrwt beam="2">  1       21 0.15134773E-01 0.18355921E+03</pdfrwt>
<totfact> 0.94679169E+04</totfact>
</mgrwt>
</event>
<event>
12    1  0.1050690E-001  0.2283271E+03  0.7546771E-02  0.1128143E+00
         21   -1    0    0  503  502  0.00000000000E+00  0.00000000000E+00  0.74723205897E+03  0.74723205897E+03  0.00000000000E+00 0.  1.
         21   -1    0    0  501  503 -0.00000000000E+00 -0.00000000000E+00 -0.77351507144E+02  0.77351507144E+02  0.00000000000E+00 0. -1.
          6    2    1    2  501    0 -0.13232181204E+03 -0.68948606271E+02  0.46978938781E+03  0.52233642087E+03  0.17283025031E+03 0.  0.
         24    2    3    3    0    0 -0.71234771066E+02 -0.39568743955E+02  0.11870549154E+03  0.16473777000E+03  0.80046617896E+02 0.  0.
         -6    2    1    2    0  502  0.13232181204E+03  0.68948606271E+02  0.20009116402E+03  0.30224714524E+03  0.17045201859E+03 0.  0.
        -24    2    5    5    0    0  0.12674727488E+03  0.31279957344E+02  0.21235462143E+03  0.26196706376E+03  0.80554018105E+02 0.  0.
          5    1    3    3  501    0 -0.61087040974E+02 -0.29379862317E+02  0.35108389627E+03  0.35759865087E+03  0.47000000000E+01 0. -1.
        -11    1    4    4    0    0 -0.93021593513E+01 -0.50291562388E+02  0.58445743103E+02  0.77663867422E+02  0.00000000000E+00 0.  1.
         12    1    4    4    0    0 -0.61932611715E+02  0.10722818433E+02  0.60259748439E+02  0.87073902582E+02  0.00000000000E+00 0. -1.
         -5    1    5    5    0  502  0.55745371652E+01  0.37668648927E+02 -0.12263457411E+02  0.40280081483E+02  0.47000000000E+01 0.  1.
         13    1    6    6    0    0  0.83986266859E+02  0.35548756804E+02  0.75097474914E+02  0.11813990803E+03  0.00000000000E+00 0. -1.
        -14    1    6    6    0    0  0.42761008016E+02 -0.42687994593E+01  0.13725714652E+03  0.14382715573E+03  0.00000000000E+00 0.  1.
<mgrwt>
<rscale>  2 0.22787707E+03</rscale>
<asrwt>0</asrwt>
<pdfrwt beam="1">  1       21 0.11495877E+00 0.22832711E+03</pdfrwt>
<pdfrwt beam="2">  1       21 0.11900232E-01 0.22832711E+03</pdfrwt>
<totfact> 0.34278911E+04</totfact>
</mgrwt>
</event>
<event>
12    1  0.1050690E-001  0.1941438E+03  0.7546771E-02  0.1154847E+00
         21   -1    0    0  503  502  0.00000000000E+00  0.00000000000E+00  0.49012989875E+03  0.49012989875E+03  0.00000000000E+00 0. -1.
         21   -1    0    0  501  503 -0.00000000000E+00 -0.00000000000E+00 -0.77170682887E+02  0.77170682887E+02  0.00000000000E+00 0. -1.
          6    2    1    2  501    0 -0.61931887205E+02  0.62790971215E+02  0.18596197611E+03  0.26860412897E+03  0.17259216907E+03 0.  0.
         24    2    3    3    0    0 -0.56068797413E+02  0.10277972159E+03  0.16001244025E+03  0.22034499109E+03  0.96127794364E+02 0.  0.
         -6    2    1    2    0  502  0.61931887205E+02 -0.62790971215E+02  0.22699723976E+03  0.29869645267E+03  0.17295536783E+03 0.  0.
        -24    2    5    5    0    0  0.26996054202E+02 -0.56242199959E+02  0.42037033791E+02  0.11029325040E+03  0.80656784437E+02 0.  0.
          5    1    3    3  501    0 -0.58630897917E+01 -0.39988750370E+02  0.25949535853E+02  0.48259137881E+02  0.47000000000E+01 0. -1.
        -11    1    4    4    0    0  0.25776706694E+02  0.29682094456E+02  0.25982984834E+02  0.47123039378E+02  0.00000000000E+00 0.  1.
         12    1    4    4    0    0 -0.81845504107E+02  0.73097627129E+02  0.13402945542E+03  0.17322195171E+03  0.00000000000E+00 0. -1.
         -5    1    5    5    0  502  0.34935833003E+02 -0.65487712564E+01  0.18496020597E+03  0.18840320227E+03  0.47000000000E+01 0.  1.
         13    1    6    6    0    0  0.24868482242E+02  0.15651917099E+02  0.17992329457E+02  0.34455011786E+02  0.00000000000E+00 0. -1.
        -14    1    6    6    0    0  0.21275719601E+01 -0.71894117058E+02  0.24044704334E+02  0.75838238617E+02  0.00000000000E+00 0.  1.
<mgrwt>
<rscale>  2 0.19406290E+03</rscale>
<asrwt>0</asrwt>
<pdfrwt beam="1">  1       21 0.75404598E-01 0.19414382E+03</pdfrwt>
<pdfrwt beam="2">  1       21 0.11872413E-01 0.19414382E+03</pdfrwt>
<totfact> 0.93910578E+04</totfact>
</mgrwt>
</event>
<event>
12    1  0.1050690E-001  0.2073062E+03  0.7546771E-02  0.1143798E+00
         21   -1    0    0  503  502  0.00000000000E+00  0.00000000000E+00  0.24181497634E+02  0.24181497634E+02  0.00000000000E+00 0. -1.
         21   -1    0    0  501  503 -0.00000000000E+00 -0.00000000000E+00 -0.32757601787E+04  0.32757601787E+04  0.00000000000E+00 0. -1.
          6    2    1    2  501    0 -0.11445692500E+03 -0.96577588941E+01 -0.27438886436E+04  0.27517086930E+04  0.17257514979E+03 0.  0.
         24    2    3    3    0    0 -0.30535164838E+02 -0.59400608470E+02 -0.12028177814E+04  0.12075459084E+04  0.83280712045E+02 0.  0.
         -6    2    1    2    0  502  0.11445692500E+03  0.96577588941E+01 -0.50769003739E+03  0.54823298332E+03  0.17209465404E+03 0.  0.
        -24    2    5    5    0    0  0.63254523138E+02  0.72950143912E+02 -0.33428874493E+03  0.35661432508E+03  0.78115002871E+02 0.  0.
          5    1    3    3  501    0 -0.83921760161E+02  0.49742849576E+02 -0.15410708622E+04  0.15441627846E+04  0.47000000000E+01 0. -1.
        -13    1    4    4    0    0 -0.84189446046E+00 -0.45059481080E+02 -0.24189013898E+03  0.24605264672E+03  0.00000000000E+00 0.  1.
         14    1    4    4    0    0 -0.29693270377E+02 -0.14341127390E+02 -0.96092764242E+03  0.96149326166E+03  0.00000000000E+00 0. -1.
         -5    1    5    5    0  502  0.51202401860E+02 -0.63292385018E+02 -0.17340129246E+03  0.19161865824E+03  0.47000000000E+01 0.  1.
         11    1    6    6    0    0 -0.22565451038E+01  0.15171354132E+02 -0.53021038927E+01  0.16228810422E+02  0.00000000000E+00 0. -1.
        -12    1    6    6    0    0  0.65511068242E+02  0.57778789779E+02 -0.32898664103E+03  0.34038551466E+03  0.00000000000E+00 0.  1.
<mgrwt>
<rscale>  2 0.20720613E+03</rscale>
<asrwt>0</asrwt>
<pdfrwt beam="1">  1       21 0.37202312E-02 0.20730616E+03</pdfrwt>
<pdfrwt beam="2">  1       21 0.50396300E+00 0.20730616E+03</pdfrwt>
<totfact> 0.76759671E+02</totfact>
</mgrwt>
</event>
<event>
12    1  0.1050690E-001  0.3453285E+03  0.7546771E-02  0.1064606E+00
         21   -1    0    0  503  502  0.00000000000E+00  0.00000000000E+00  0.23130209292E+03  0.23130209292E+03  0.00000000000E+00 0.  1.
         21   -1    0    0  501  503 -0.00000000000E+00 -0.00000000000E+00 -0.11694158976E+04  0.11694158976E+04  0.00000000000E+00 0. -1.
          6    2    1    2  501    0 -0.29638755039E+03 -0.37919407944E+02 -0.99323925365E+03  0.10515588495E+04  0.17311365443E+03 0.  0.
         24    2    3    3    0    0 -0.14827969208E+03  0.10639305052E+02 -0.69177778192E+03  0.71215496728E+03  0.80673018784E+02 0.  0.
         -6    2    1    2    0  502  0.29638755039E+03  0.37919407944E+02  0.55125449008E+02  0.34915914104E+03  0.17201694427E+03 0.  0.
        -24    2    5    5    0    0  0.28652535623E+03  0.73148789026E+02  0.53123766563E+02  0.31222042290E+03  0.84923099344E+02 0.  0.
          5    1    3    3  501    0 -0.14810785831E+03 -0.48558712997E+02 -0.30146147173E+03  0.33940388218E+03  0.47000000000E+01 0. -1.
        -11    1    4    4    0    0 -0.62212755733E+02  0.44645443385E+02 -0.30731623718E+03  0.31671266508E+03  0.00000000000E+00 0.  1.
         12    1    4    4    0    0 -0.86066936347E+02 -0.34006138333E+02 -0.38446154475E+03  0.39544230219E+03  0.00000000000E+00 0. -1.
         -5    1    5    5    0  502  0.98621941605E+01 -0.35229381082E+02  0.20016824443E+01  0.36938718138E+02  0.47000000000E+01 0.  1.
         13    1    6    6    0    0  0.50864759649E+02  0.14935169730E+02  0.44679798480E+02  0.69329412671E+02  0.00000000000E+00 0. -1.
        -14    1    6    6    0    0  0.23566059658E+03  0.58213619296E+02  0.84439680829E+01  0.24289101023E+03  0.00000000000E+00 0.  1.
<mgrwt>
<rscale>  2 0.34519134E+03</rscale>
<asrwt>0</asrwt>
<pdfrwt beam="1">  1       21 0.35584937E-01 0.34532854E+03</pdfrwt>
<pdfrwt beam="2">  1       21 0.17991014E+00 0.34532854E+03</pdfrwt>
<totfact> 0.12307775E+03</totfact>
</mgrwt>
</event>
<event>
12    1  0.1050690E-001  0.1979138E+03  0.7546771E-02  0.1151615E+00
         21   -1    0    0  501  502  0.00000000000E+00  0.00000000000E+00  0.23285107013E+03  0.23285107013E+03  0.00000000000E+00 0. -1.
         21   -1    0    0  502  503 -0.00000000000E+00 -0.00000000000E+00 -0.25021489781E+03  0.25021489781E+03  0.00000000000E+00 0. -1.
         -6    2    1    2    0  503  0.36777326687E+02 -0.88035707006E+02 -0.14728962141E+03  0.24631596148E+03  0.17284230627E+03 0.  0.
        -24    2    3    3    0    0 -0.28298782358E+02  0.52820801119E-01 -0.81519558378E+02  0.11847903453E+03  0.81185093168E+02 0.  0.
          6    2    1    2  501    0 -0.36777326687E+02  0.88035707006E+02  0.12992579373E+03  0.23675000647E+03  0.17339837433E+03 0.  0.
         24    2    5    5    0    0 -0.46426220281E+02  0.95658045412E+01  0.12706994095E+03  0.15749804980E+03  0.80074760396E+02 0.  0.
          5    1    5    5  501    0  0.96488935942E+01  0.78469902465E+02  0.28558527852E+01  0.79251956667E+02  0.47000000000E+01 0. -1.
        -11    1    6    6    0    0  0.24401662379E+01 -0.26874753042E+02  0.17652363870E+02  0.32246127094E+02  0.00000000000E+00 0.  1.
         12    1    6    6    0    0 -0.48866386519E+02  0.36440557583E+02  0.10941757708E+03  0.12525192271E+03  0.00000000000E+00 0. -1.
         -5    1    3    3    0  503  0.65076109045E+02 -0.88088527807E+02 -0.65770063035E+02  0.12783692695E+03  0.47000000000E+01 0.  1.
         13    1    4    4    0    0  0.18121507873E+02  0.18997420763E+02 -0.56810608936E+02  0.62583834422E+02  0.00000000000E+00 0. -1.
        -14    1    4    4    0    0 -0.46420290231E+02 -0.18944599962E+02 -0.24708949442E+02  0.55895200111E+02  0.00000000000E+00 0.  1.
<mgrwt>
<rscale>  2 0.19779189E+03</rscale>
<asrwt>0</asrwt>
<pdfrwt beam="1">  1       21 0.35823241E-01 0.19791375E+03</pdfrwt>
<pdfrwt beam="2">  1       21 0.38494600E-01 0.19791375E+03</pdfrwt>
<totfact> 0.48771738E+04</totfact>
</mgrwt>
</event>
<event>
12    1  0.1050690E-001  0.1791275E+03  0.7546771E-02  0.1168697E+00
         21   -1    0    0  503  502  0.00000000000E+00  0.00000000000E+00  0.26297791592E+03  0.26297791592E+03  0.00000000000E+00 0.  1.
         21   -1    0    0  501  503 -0.00000000000E+00 -0.00000000000E+00 -0.15613316947E+03  0.15613316947E+03  0.00000000000E+00 0.  1.
          6    2    1    2  501    0  0.44509924095E+02  0.49484339384E+01 -0.44706023483E+02  0.18462199660E+03  0.17343884441E+03 0.  0.
         24    2    3    3    0    0  0.43410146614E+02  0.53720052015E+02 -0.71812873357E+02  0.12861528673E+03  0.81329689428E+02 0.  0.
         -6    2    1    2    0  502 -0.44509924095E+02 -0.49484339384E+01  0.15155076994E+03  0.23448908879E+03  0.17323936202E+03 0.  0.
        -24    2    5    5    0    0 -0.28442793457E+02  0.28062580419E+02  0.13381236714E+02  0.91447872119E+02  0.81161289416E+02 0.  0.
          5    1    3    3  501    0  0.10997774807E+01 -0.48771618077E+02  0.27106849875E+02  0.56006709870E+02  0.47000000000E+01 0. -1.
        -13    1    4    4    0    0  0.38894562307E+02 -0.85183219438E+01 -0.46648306412E+02  0.61330361787E+02  0.00000000000E+00 0.  1.
         14    1    4    4    0    0  0.45155843072E+01  0.62238373959E+02 -0.25164566946E+02  0.67284924940E+02  0.00000000000E+00 0. -1.
         -5    1    5    5    0  502 -0.16067130638E+02 -0.33011014357E+02  0.13816953322E+03  0.14304121667E+03  0.47000000000E+01 0.  1.
         13    1    6    6    0    0  0.59677703182E+01 -0.20809359603E+02 -0.13919717257E+02  0.25737176577E+02  0.00000000000E+00 0. -1.
        -14    1    6    6    0    0 -0.34410563775E+02  0.48871940022E+02  0.27300953971E+02  0.65710695541E+02  0.00000000000E+00 0.  1.
<mgrwt>
<rscale>  2 0.17907917E+03</rscale>
<asrwt>0</asrwt>
<pdfrwt beam="1">  1       21 0.40458141E-01 0.17912748E+03</pdfrwt>
<pdfrwt beam="2">  1       21 0.24020488E-01 0.17912748E+03</pdfrwt>
<totfact> 0.96711758E+04</totfact>
</mgrwt>
</event>
<event>
12    1  0.1050690E-001  0.1757883E+03  0.7546771E-02  0.1172489E+00
         21   -1    0    0  501  502  0.00000000000E+00  0.00000000000E+00  0.12916482711E+03  0.12916482711E+03  0.00000000000E+00 0.  1.
         21   -1    0    0  502  503 -0.00000000000E+00 -0.00000000000E+00 -0.28245161491E+03  0.28245161491E+03  0.00000000000E+00 0.  1.
         -6    2    1    2    0  503 -0.11925838544E+02 -0.21538931899E+02 -0.15944262634E+03  0.23572041168E+03  0.17186043807E+03 0.  0.
        -24    2    3    3    0    0 -0.65991228453E+02  0.10411219147E+02 -0.12539794020E+03  0.16413124216E+03  0.82165598215E+02 0.  0.
          6    2    1    2  501    0  0.11925838544E+02  0.21538931899E+02  0.61558385477E+01  0.17589603035E+03  0.17405564608E+03 0.  0.
         24    2    5    5    0    0  0.54259578149E+02  0.61078130722E+02  0.15495387452E+02  0.11703338577E+03  0.82353302785E+02 0.  0.
          5    1    5    5  501    0 -0.42333739605E+02 -0.39539198823E+02 -0.93395489045E+01  0.58862644574E+02  0.47000000000E+01 0. -1.
        -13    1    6    6    0    0  0.22385839616E+02  0.21053496194E+02  0.47579277672E+02  0.56640649546E+02  0.00000000000E+00 0.  1.
         14    1    6    6    0    0  0.31873738533E+02  0.40024634528E+02 -0.32083890220E+02  0.60392736226E+02  0.00000000000E+00 0. -1.
         -5    1    3    3    0  503  0.54065389909E+02 -0.31950151046E+02 -0.34044686147E+02  0.71589169521E+02  0.47000000000E+01 0.  1.
         11    1    4    4    0    0  0.16544692587E+02  0.80059129129E+01 -0.67521213286E+01  0.19580925331E+02  0.00000000000E+00 0. -1.
        -12    1    4    4    0    0 -0.82535921040E+02  0.24053062342E+01 -0.11864581887E+03  0.14455031683E+03  0.00000000000E+00 0.  1.
<mgrwt>
<rscale>  2 0.17524242E+03</rscale>
<asrwt>0</asrwt>
<pdfrwt beam="1">  1       21 0.19871512E-01 0.17578828E+03</pdfrwt>
<pdfrwt beam="2">  1       21 0.43454095E-01 0.17578828E+03</pdfrwt>
<totfact> 0.11964205E+05</totfact>
</mgrwt>
</event>
<event>
12    1  0.1050690E-001  0.2120185E+03  0.7546771E-02  0.1140115E+00
         21   -1    0    0  501  502  0.00000000000E+00  0.00000000000E+00  0.42816975112E+02  0.42816975112E+02  0.00000000000E+00 0.  1.
         21   -1    0    0  502  503 -0.00000000000E+00 -0.00000000000E+00 -0.11893716001E+04  0.11893716001E+04  0.00000000000E+00 0.  1.
         -6    2    1    2    0  503  0.39737046517E+02 -0.11567264370E+03 -0.36050071620E+03  0.41822556027E+03  0.17318388931E+03 0.  0.
        -24    2    3    3    0    0  0.63197679279E+02 -0.34018181200E+02 -0.27513155934E+03  0.29769408937E+03  0.88165824324E+02 0.  0.
          6    2    1    2  501    0 -0.39737046517E+02  0.11567264370E+03 -0.78605390884E+03  0.81396301499E+03  0.17232483515E+03 0.  0.
         24    2    5    5    0    0  0.29714449145E+02  0.10407038798E+03 -0.60218637199E+03  0.61701763248E+03  0.79804373522E+02 0.  0.
          5    1    5    5  501    0 -0.69451495662E+02  0.11602255714E+02 -0.18386753685E+03  0.19694538251E+03  0.47000000000E+01 0. -1.
        -11    1    6    6    0    0  0.69166459937E+01  0.56885497571E+02 -0.48832527640E+03  0.49167608789E+03  0.00000000000E+00 0.  1.
         12    1    6    6    0    0  0.22797803151E+02  0.47184890414E+02 -0.11386109559E+03  0.12534154459E+03  0.00000000000E+00 0. -1.
         -5    1    3    3    0  503 -0.23460632761E+02 -0.81654462498E+02 -0.85369156855E+02  0.12053147090E+03  0.47000000000E+01 0.  1.
         11    1    4    4    0    0 -0.19353028046E+02 -0.23314156086E+02 -0.80205811301E+02  0.85738332938E+02  0.00000000000E+00 0. -1.
        -12    1    4    4    0    0  0.82550707324E+02 -0.10704025114E+02 -0.19492574804E+03  0.21195575643E+03  0.00000000000E+00 0.  1.
<mgrwt>
<rscale>  2 0.21184302E+03</rscale>
<asrwt>0</asrwt>
<pdfrwt beam="1">  1       21 0.65872289E-02 0.21201852E+03</pdfrwt>
<pdfrwt beam="2">  1       21 0.18298019E+00 0.21201852E+03</pdfrwt>
<totfact> 0.28799606E+04</totfact>
</mgrwt>
</event>
<event>
12    1  0.1050690E-001  0.2152534E+03  0.7546771E-02  0.1137841E+00
         21   -1    0    0  503  502  0.00000000000E+00  0.00000000000E+00  0.35491588807E+03  0.35491588807E+03  0.00000000000E+00 0. -1.
         21   -1    0    0  501  503 -0.00000000000E+00 -0.00000000000E+00 -0.25619205033E+03  0.25619205033E+03  0.00000000000E+00 0. -1.
          6    2    1    2  501    0  0.54405692684E+02 -0.11249943328E+03 -0.16571277540E+03  0.27013765459E+03  0.17290901253E+03 0.  0.
         24    2    3    3    0    0  0.17976241478E+01 -0.13386499672E+03 -0.11437932053E+03  0.19344795668E+03  0.80102522929E+02 0.  0.
         -6    2    1    2    0  502 -0.54405692684E+02  0.11249943328E+03  0.26443661314E+03  0.34097028381E+03  0.17526525664E+03 0.  0.
        -24    2    5    5    0    0 -0.48655959970E+02  0.12642300564E+03  0.27866954562E+03  0.31971959768E+03  0.78827195114E+02 0.  0.
          5    1    3    3  501    0  0.52608068537E+02  0.21365563443E+02 -0.51333454868E+02  0.76689697907E+02  0.47000000000E+01 0. -1.
        -13    1    4    4    0    0 -0.96636434645E+01 -0.52202604001E+02 -0.80705324467E+00  0.53095660881E+02  0.00000000000E+00 0.  1.
         14    1    4    4    0    0  0.11461267612E+02 -0.81662392722E+02 -0.11357226729E+03  0.14035229580E+03  0.00000000000E+00 0. -1.
         -5    1    5    5    0  502 -0.57497327144E+01 -0.13923572361E+02 -0.14232932485E+02  0.21250686123E+02  0.47000000000E+01 0.  1.
         11    1    6    6    0    0  0.20567653151E+02  0.24835290841E+02  0.41210921476E+02  0.52327431394E+02  0.00000000000E+00 0. -1.
        -12    1    6    6    0    0 -0.69223613121E+02  0.10158771480E+03  0.23745862415E+03  0.26739216629E+03  0.00000000000E+00 0.  1.
<mgrwt>
<rscale>  2 0.21477323E+03</rscale>
<asrwt>0</asrwt>
<pdfrwt beam="1">  1       21 0.54602444E-01 0.21525337E+03</pdfrwt>
<pdfrwt beam="2">  1       21 0.39414162E-01 0.21525337E+03</pdfrwt>
<totfact> 0.19394325E+04</totfact>
</mgrwt>
</event>
<event>
12    1  0.1050690E-001  0.2559519E+03  0.7546771E-02  0.1109747E+00
         21   -1    0    0  501  502  0.00000000000E+00  0.00000000000E+00  0.12059578897E+03  0.12059578897E+03  0.00000000000E+00 0. -1.
         21   -1    0    0  502  503 -0.00000000000E+00 -0.00000000000E+00 -0.11197433540E+04  0.11197433540E+04  0.00000000000E+00 0. -1.
         -6    2    1    2    0  503 -0.17926293596E+03  0.59213786386E+02 -0.94580287855E+03  0.97982367921E+03  0.17282906169E+03 0.  0.
        -24    2    3    3    0    0 -0.31213471365E+02  0.56595874627E+02 -0.50418839360E+03  0.51402228296E+03  0.76391081439E+02 0.  0.
          6    2    1    2  501    0  0.17926293596E+03 -0.59213786386E+02 -0.53344686462E+02  0.26051546373E+03  0.17140938878E+03 0.  0.
         24    2    5    5    0    0  0.13474275436E+03 -0.46477575109E+02 -0.10092462934E+03  0.19395572657E+03  0.84363903541E+02 0.  0.
          5    1    5    5  501    0  0.44520181602E+02 -0.12736211277E+02  0.47579942876E+02  0.66559737167E+02  0.47000000000E+01 0. -1.
        -13    1    6    6    0    0  0.87760547746E+01 -0.11346447269E+02 -0.52629087574E+02  0.54548894231E+02  0.00000000000E+00 0.  1.
         14    1    6    6    0    0  0.12596669958E+03 -0.35131127839E+02 -0.48295541765E+02  0.13940683233E+03  0.00000000000E+00 0. -1.
         -5    1    3    3    0  503 -0.14804946460E+03  0.26179117591E+01 -0.44161448495E+03  0.46580139625E+03  0.47000000000E+01 0.  1.
         11    1    4    4    0    0  0.34074303952E+01  0.36539948257E+02 -0.80752785811E+02  0.88700568300E+02  0.00000000000E+00 0. -1.
        -12    1    4    4    0    0 -0.34620901760E+02  0.20055926370E+02 -0.42343560779E+03  0.42532171466E+03  0.00000000000E+00 0.  1.
<mgrwt>
<rscale>  2 0.25571241E+03</rscale>
<asrwt>0</asrwt>
<pdfrwt beam="1">  1       21 0.18553197E-01 0.25595187E+03</pdfrwt>
<pdfrwt beam="2">  1       21 0.17226822E+00 0.25595187E+03</pdfrwt>
<totfact> 0.52007612E+03</totfact>
</mgrwt>
</event>
<event>
12    1  0.1050690E-001  0.2158644E+03  0.7546771E-02  0.1137988E+00
         21   -1    0    0  501  502  0.00000000000E+00  0.00000000000E+00  0.86119040599E+03  0.86119040599E+03  0.00000000000E+00 0.  1.
         21   -1    0    0  502  503 -0.00000000000E+00 -0.00000000000E+00 -0.62463129280E+02  0.62463129280E+02  0.00000000000E+00 0. -1.
         -6    2    1    2    0  503 -0.12096607161E+03 -0.56923835787E+01  0.58464303132E+03  0.62322141450E+03  0.17869600919E+03 0.  0.
        -24    2    3    3    0    0 -0.59644852378E+02 -0.40362820087E+02  0.16198653078E+03  0.19470894262E+03  0.80531177341E+02 0.  0.
          6    2    1    2  501    0  0.12096607161E+03  0.56923835787E+01  0.21408424538E+03  0.30043212077E+03  0.17251724945E+03 0.  0.
         24    2    5    5    0    0  0.46728217902E+02  0.91970597806E+01  0.21369469225E+03  0.22596210378E+03  0.55904727835E+02 0.  0.
          5    1    5    5  501    0  0.74237853708E+02 -0.35046762019E+01  0.38955313466E+00  0.74470016987E+02  0.47000000000E+01 0. -1.
        -13    1    6    6    0    0 -0.69162713119E+01 -0.10673681841E+02  0.72697896136E+02  0.73802075821E+02  0.00000000000E+00 0.  1.
         14    1    6    6    0    0  0.53644489214E+02  0.19870741622E+02  0.14099679611E+03  0.15216002796E+03  0.00000000000E+00 0. -1.
         -5    1    3    3    0  503 -0.61321219231E+02  0.34670436508E+02  0.42265650055E+03  0.42851247187E+03  0.47000000000E+01 0.  1.
         13    1    4    4    0    0 -0.32279956508E+02 -0.19179021886E+02  0.10033650168E+02  0.38865210772E+02  0.00000000000E+00 0. -1.
        -14    1    4    4    0    0 -0.27364895870E+02 -0.21183798201E+02  0.15195288061E+03  0.15584373185E+03  0.00000000000E+00 0.  1.
<mgrwt>
<rscale>  2 0.21458146E+03</rscale>
<asrwt>0</asrwt>
<pdfrwt beam="1">  1       21 0.13249082E+00 0.21586444E+03</pdfrwt>
<pdfrwt beam="2">  1       21 0.96097129E-02 0.21586444E+03</pdfrwt>
<totfact> 0.35391065E+04</totfact>
</mgrwt>
</event>
<event>
12    1  0.1050690E-001  0.2152762E+03  0.7546771E-02  0.1137498E+00
         21   -1    0    0  503  502  0.00000000000E+00  0.00000000000E+00  0.17098740895E+03  0.17098740895E+03  0.00000000000E+00 0. -1.
         21   -1    0    0  501  503 -0.00000000000E+00 -0.00000000000E+00 -0.37776175682E+03  0.37776175682E+03  0.00000000000E+00 0. -1.
          6    2    1    2  501    0  0.20487260540E+02 -0.12553761656E+03 -0.24945755382E+03  0.32950403004E+03  0.17367905354E+03 0.  0.
         24    2    3    3    0    0  0.31804003164E+02 -0.15663783716E+03 -0.22854218391E+03  0.29007263286E+03  0.79772776425E+02 0.  0.
         -6    2    1    2    0  502 -0.20487260540E+02  0.12553761656E+03  0.42683205960E+02  0.21924513573E+03  0.17339882484E+03 0.  0.
        -24    2    5    5    0    0 -0.42836507605E+02  0.10584258702E+03  0.87680369324E+02  0.16507671556E+03  0.80776576100E+02 0.  0.
          5    1    3    3  501    0 -0.11316742624E+02  0.31100220603E+02 -0.20915369911E+02  0.39431397182E+02  0.47000000000E+01 0. -1.
        -13    1    4    4    0    0 -0.19546629642E+01 -0.36707220620E+02 -0.11771967057E+03  0.12332542963E+03  0.00000000000E+00 0.  1.
         14    1    4    4    0    0  0.33758666129E+02 -0.11993061654E+03 -0.11082251334E+03  0.16674720323E+03  0.00000000000E+00 0. -1.
         -5    1    5    5    0  502  0.22349247065E+02  0.19695029540E+02 -0.44997163364E+02  0.54168420171E+02  0.47000000000E+01 0.  1.
         11    1    6    6    0    0  0.82002072734E+01 -0.73791150045E+01  0.21940209492E+02  0.24557433297E+02  0.00000000000E+00 0. -1.
        -12    1    6    6    0    0 -0.51036714878E+02  0.11322170202E+03  0.65740159831E+02  0.14051928227E+03  0.00000000000E+00 0.  1.
<mgrwt>
<rscale>  2 0.21521966E+03</rscale>
<asrwt>0</asrwt>
<pdfrwt beam="1">  1       21 0.26305756E-01 0.21527618E+03</pdfrwt>
<pdfrwt beam="2">  1       21 0.58117193E-01 0.21527618E+03</pdfrwt>
<totfact> 0.37679014E+04</totfact>
</mgrwt>
</event>
<event>
12    1  0.1050690E-001  0.1838650E+03  0.7546771E-02  0.1164831E+00
         21   -1    0    0  503  502  0.00000000000E+00  0.00000000000E+00  0.29477431699E+03  0.29477431699E+03  0.00000000000E+00 0. -1.
         21   -1    0    0  501  503 -0.00000000000E+00 -0.00000000000E+00 -0.16675394728E+03  0.16675394728E+03  0.00000000000E+00 0. -1.
          6    2    1    2  501    0 -0.56741810953E+02  0.18533767203E+02 -0.67596583098E+02  0.19306537202E+03  0.17070971322E+03 0.  0.
         24    2    3    3    0    0 -0.42026755212E+01  0.56651436194E+02 -0.80550080952E+02  0.12670875556E+03  0.79622518734E+02 0.  0.
         -6    2    1    2    0  502  0.56741810953E+02 -0.18533767203E+02  0.19561695281E+03  0.26846289226E+03  0.17390571772E+03 0.  0.
        -24    2    5    5    0    0  0.36402666697E+02 -0.78885219938E+02  0.12032144330E+03  0.16973355321E+03  0.82366238843E+02 0.  0.
          5    1    3    3  501    0 -0.52539135432E+02 -0.38117668990E+02  0.12953497853E+02  0.66356616459E+02  0.47000000000E+01 0. -1.
        -11    1    4    4    0    0  0.20183201096E+02  0.17402436466E+01 -0.59809400424E+02  0.63147085709E+02  0.00000000000E+00 0.  1.
         12    1    4    4    0    0 -0.24385876617E+02  0.54911192547E+02 -0.20740680528E+02  0.63561669850E+02  0.00000000000E+00 0. -1.
         -5    1    5    5    0  502  0.20339144256E+02  0.60351452735E+02  0.75295509506E+02  0.98729339044E+02  0.47000000000E+01 0.  1.
         11    1    6    6    0    0 -0.64262387388E+01  0.12742032778E+02  0.25585443087E+01  0.14498347927E+02  0.00000000000E+00 0. -1.
        -12    1    6    6    0    0  0.42828905436E+02 -0.91627252716E+02  0.11776289899E+03  0.15523520529E+03  0.00000000000E+00 0.  1.
<mgrwt>
<rscale>  2 0.18310531E+03</rscale>
<asrwt>0</asrwt>
<pdfrwt beam="1">  1       21 0.45349895E-01 0.18386498E+03</pdfrwt>
<pdfrwt beam="2">  1       21 0.25654453E-01 0.18386498E+03</pdfrwt>
<totfact> 0.67490209E+04</totfact>
</mgrwt>
</event>
<event>
12    1  0.1050690E-001  0.1926499E+03  0.7546771E-02  0.1157883E+00
         21   -1    0    0  503  502  0.00000000000E+00  0.00000000000E+00  0.90539657366E+03  0.90539657366E+03  0.00000000000E+00 0.  1.
         21   -1    0    0  501  503 -0.00000000000E+00 -0.00000000000E+00 -0.42709853181E+02  0.42709853181E+02  0.00000000000E+00 0.  1.
          6    2    1    2  501    0  0.37481250981E+01  0.62109383967E+02  0.28964115936E+03  0.34354442728E+03  0.17395156884E+03 0.  0.
         24    2    3    3    0    0 -0.12023765846E+02 -0.32626403667E+02  0.12626660119E+03  0.15397397004E+03  0.80967127355E+02 0.  0.
         -6    2    1    2    0  502 -0.37481250981E+01 -0.62109383967E+02  0.57304556113E+03  0.60456199956E+03  0.18232490826E+03 0.  0.
        -24    2    5    5    0    0 -0.83312796697E+01  0.34758769839E+02  0.18658116571E+03  0.20608833236E+03  0.79889217277E+02 0.  0.
          5    1    3    3  501    0  0.15771890944E+02  0.94735787634E+02  0.16337455817E+03  0.18957045724E+03  0.47000000000E+01 0. -1.
        -13    1    4    4    0    0 -0.12869158020E+02  0.24129851833E+02  0.21378860621E+02  0.34711967088E+02  0.00000000000E+00 0.  1.
         14    1    4    4    0    0  0.84539217451E+00 -0.56756255500E+02  0.10488774057E+03  0.11926200295E+03  0.00000000000E+00 0. -1.
         -5    1    5    5    0  502  0.45831545716E+01 -0.96868153807E+02  0.38646439542E+03  0.39847366720E+03  0.47000000000E+01 0.  1.
         13    1    6    6    0    0 -0.38500440940E+02  0.21740007123E+02  0.15236183969E+03  0.15864754034E+03  0.00000000000E+00 0. -1.
        -14    1    6    6    0    0  0.30169161271E+02  0.13018762716E+02  0.34219326014E+02  0.47440792018E+02  0.00000000000E+00 0.  1.
<mgrwt>
<rscale>  2 0.19064258E+03</rscale>
<asrwt>0</asrwt>
<pdfrwt beam="1">  1       21 0.13929177E+00 0.19264993E+03</pdfrwt>
<pdfrwt beam="2">  1       21 0.65707473E-02 0.19264993E+03</pdfrwt>
<totfact> 0.61165952E+04</totfact>
</mgrwt>
</event>
<event>
12    1  0.1050690E-001  0.1791358E+03  0.7546771E-02  0.1169033E+00
         21   -1    0    0  503  502  0.00000000000E+00  0.00000000000E+00  0.12668198641E+03  0.12668198641E+03  0.00000000000E+00 0.  1.
         21   -1    0    0  501  503 -0.00000000000E+00 -0.00000000000E+00 -0.96622766597E+03  0.96622766597E+03  0.00000000000E+00 0.  1.
          6    2    1    2  501    0  0.14686633089E+02  0.44086833416E+02 -0.89039191720E+03  0.90823312493E+03  0.17300374830E+03 0.  0.
         24    2    3    3    0    0  0.21712182500E+02  0.28366167968E+02 -0.88532020073E+03  0.88967753346E+03  0.80362910392E+02 0.  0.
         -6    2    1    2    0  502 -0.14686633089E+02 -0.44086833416E+02  0.50846237635E+02  0.18467652745E+03  0.17134974128E+03 0.  0.
        -24    2    5    5    0    0 -0.33541927106E+02  0.32684017197E+02  0.84042971513E+01  0.94828355914E+02  0.82027306554E+02 0.  0.
          5    1    3    3  501    0 -0.70255494106E+01  0.15720665448E+02 -0.50717164663E+01  0.18555591463E+02  0.47000000000E+01 0. -1.
        -11    1    4    4    0    0  0.29809727640E+02  0.53580493906E+02 -0.64131751944E+03  0.64424191880E+03  0.00000000000E+00 0.  1.
         12    1    4    4    0    0 -0.80975451402E+01 -0.25214325938E+02 -0.24400268129E+03  0.24543561467E+03  0.00000000000E+00 0. -1.
         -5    1    5    5    0  502  0.18855294017E+02 -0.76770850613E+02  0.42441940484E+02  0.89848171536E+02  0.47000000000E+01 0.  1.
         11    1    6    6    0    0  0.16782839413E+01  0.97413990097E+01 -0.33828308033E+02  0.35242955552E+02  0.00000000000E+00 0. -1.
        -12    1    6    6    0    0 -0.35220211048E+02  0.22942618188E+02  0.42232605185E+02  0.59585400361E+02  0.00000000000E+00 0.  1.
<mgrwt>
<rscale>  2 0.17873526E+03</rscale>
<asrwt>0</asrwt>
<pdfrwt beam="1">  1       21 0.19489536E-01 0.17913582E+03</pdfrwt>
<pdfrwt beam="2">  1       21 0.14865041E+00 0.17913582E+03</pdfrwt>
<totfact> 0.74957997E+03</totfact>
</mgrwt>
</event>
<event>
12    1  0.1050690E-001  0.1742438E+03  0.7546771E-02  0.1173633E+00
         21   -1    0    0  501  502  0.00000000000E+00  0.00000000000E+00  0.23914585444E+03  0.23914585444E+03  0.00000000000E+00 0. -1.
         21   -1    0    0  502  503 -0.00000000000E+00 -0.00000000000E+00 -0.12923633248E+03  0.12923633248E+03  0.00000000000E+00 0. -1.
         -6    2    1    2    0  503  0.17148976511E+02  0.42361614392E+01  0.28322912520E+02  0.17598341725E+03  0.17278872450E+03 0.  0.
        -24    2    3    3    0    0  0.17348228503E+02  0.51321592955E+02  0.64505387329E+02  0.11641548086E+03  0.80353918723E+02 0.  0.
          6    2    1    2  501    0 -0.17148976511E+02 -0.42361614392E+01  0.81586609444E+02  0.19239876967E+03  0.17334612563E+03 0.  0.
         24    2    5    5    0    0 -0.42613279820E+02 -0.31775814658E+02 -0.53243211839E+01  0.97622912487E+02  0.81708571350E+02 0.  0.
          5    1    5    5  501    0  0.25464303309E+02  0.27539653219E+02  0.86910930628E+02  0.94775857185E+02  0.47000000000E+01 0. -1.
        -11    1    6    6    0    0  0.22596217269E+02 -0.20712549098E+02 -0.70736236080E+01  0.31458462708E+02  0.00000000000E+00 0.  1.
         12    1    6    6    0    0 -0.65209497090E+02 -0.11063265560E+02  0.17493024241E+01  0.66164449779E+02  0.00000000000E+00 0. -1.
         -5    1    3    3    0  503 -0.19925199218E+00 -0.47085431516E+02 -0.36182474809E+02  0.59567936390E+02  0.47000000000E+01 0.  1.
         13    1    4    4    0    0  0.22891586794E+02  0.50343060732E+02  0.37827172175E+01  0.55432458536E+02  0.00000000000E+00 0. -1.
        -14    1    4    4    0    0 -0.55433582908E+01  0.97853222307E+00  0.60722670112E+02  0.60983022325E+02  0.00000000000E+00 0.  1.
<mgrwt>
<rscale>  2 0.17410503E+03</rscale>
<asrwt>0</asrwt>
<pdfrwt beam="1">  1       21 0.36791670E-01 0.17424383E+03</pdfrwt>
<pdfrwt beam="2">  1       21 0.19882513E-01 0.17424383E+03</pdfrwt>
<totfact> 0.16723448E+05</totfact>
</mgrwt>
</event>
<event>
12    1  0.1050690E-001  0.1844212E+03  0.7546771E-02  0.1164251E+00
         21   -1    0    0  503  502  0.00000000000E+00  0.00000000000E+00  0.65083031752E+02  0.65083031752E+02  0.00000000000E+00 0. -1.
         21   -1    0    0  501  503 -0.00000000000E+00 -0.00000000000E+00 -0.59433441530E+03  0.59433441530E+03  0.00000000000E+00 0.  1.
          6    2    1    2  501    0 -0.41798933852E+02 -0.37530129257E+02 -0.38355959186E+03  0.42439130842E+03  0.17272625939E+03 0.  0.
         24    2    3    3    0    0  0.42621779617E+02 -0.14034072430E+02 -0.17563378124E+03  0.19870534459E+03  0.81381924095E+02 0.  0.
         -6    2    1    2    0  502  0.41798933852E+02  0.37530129257E+02 -0.14569179169E+03  0.23502613863E+03  0.17565741146E+03 0.  0.
        -24    2    5    5    0    0  0.23004713778E+02 -0.46577290358E+02 -0.55372174415E+02  0.11009814334E+03  0.79729935626E+02 0.  0.
          5    1    3    3  501    0 -0.84420713469E+02 -0.23496056827E+02 -0.20792581062E+03  0.22568596383E+03  0.47000000000E+01 0. -1.
        -13    1    4    4    0    0 -0.79302992970E+01 -0.13838956486E+00 -0.12683217731E+03  0.12707993548E+03  0.00000000000E+00 0.  1.
         14    1    4    4    0    0  0.50552078914E+02 -0.13895682865E+02 -0.48801603923E+02  0.71625409110E+02  0.00000000000E+00 0. -1.
         -5    1    5    5    0  502  0.18794220074E+02  0.84107419614E+02 -0.90319617276E+02  0.12492799529E+03  0.47000000000E+01 0.  1.
         11    1    6    6    0    0  0.42522517964E+02 -0.31451434915E+02 -0.64819660882E+02  0.83659701942E+02  0.00000000000E+00 0. -1.
        -12    1    6    6    0    0 -0.19517804186E+02 -0.15125855442E+02  0.94474864667E+01  0.26438441400E+02  0.00000000000E+00 0.  1.
<mgrwt>
<rscale>  2 0.18371982E+03</rscale>
<asrwt>0</asrwt>
<pdfrwt beam="1">  1       21 0.10012774E-01 0.18442122E+03</pdfrwt>
<pdfrwt beam="2">  1       21 0.91436065E-01 0.18442122E+03</pdfrwt>
<totfact> 0.82280530E+04</totfact>
</mgrwt>
</event>
<event>
12    1  0.1050690E-001  0.1771756E+03  0.7546771E-02  0.1170576E+00
         21   -1    0    0  503  502  0.00000000000E+00  0.00000000000E+00  0.23756277158E+03  0.23756277158E+03  0.00000000000E+00 0.  1.
         21   -1    0    0  501  503 -0.00000000000E+00 -0.00000000000E+00 -0.18396497572E+03  0.18396497572E+03  0.00000000000E+00 0.  1.
          6    2    1    2  501    0 -0.56761085042E+01  0.36062184888E+02 -0.85109311869E+02  0.19651470136E+03  0.17332551311E+03 0.  0.
         24    2    3    3    0    0 -0.63099039192E+02  0.55112540965E+02 -0.58333387564E+02  0.13018711164E+03  0.80789968518E+02 0.  0.
         -6    2    1    2    0  502  0.56761085042E+01 -0.36062184888E+02  0.13870710772E+03  0.22501304594E+03  0.17337390150E+03 0.  0.
        -24    2    5    5    0    0  0.15907296610E+01  0.11890675696E+01  0.16176955720E+03  0.18076021885E+03  0.80628300112E+02 0.  0.
          5    1    3    3  501    0  0.57422930687E+02 -0.19050356077E+02 -0.26775924306E+02  0.66327589718E+02  0.47000000000E+01 0. -1.
        -11    1    4    4    0    0 -0.68127074020E+02  0.10991503205E+02 -0.49460821476E+02  0.84902792759E+02  0.00000000000E+00 0.  1.
         12    1    4    4    0    0  0.50280348280E+01  0.44121037760E+02 -0.88725660878E+01  0.45284318878E+02  0.00000000000E+00 0. -1.
         -5    1    5    5    0  502  0.40853788432E+01 -0.37251252457E+02 -0.23062449474E+02  0.44252827092E+02  0.47000000000E+01 0.  1.
         11    1    6    6    0    0 -0.20091726974E+02  0.16350882002E+02  0.11783376136E+02  0.28458334248E+02  0.00000000000E+00 0. -1.
        -12    1    6    6    0    0  0.21682456635E+02 -0.15161814432E+02  0.14998618106E+03  0.15230188460E+03  0.00000000000E+00 0.  1.
<mgrwt>
<rscale>  2 0.17716381E+03</rscale>
<asrwt>0</asrwt>
<pdfrwt beam="1">  1       21 0.36548119E-01 0.17717564E+03</pdfrwt>
<pdfrwt beam="2">  1       21 0.28302304E-01 0.17717564E+03</pdfrwt>
<totfact> 0.86685731E+04</totfact>
</mgrwt>
</event>
<event>
12    1  0.1050690E-001  0.3087304E+03  0.7546771E-02  0.1081205E+00
         21   -1    0    0  501  502  0.00000000000E+00  0.00000000000E+00  0.27411273550E+03  0.27411273550E+03  0.00000000000E+00 0. -1.
         21   -1    0    0  502  503 -0.00000000000E+00 -0.00000000000E+00 -0.37317718433E+03  0.37317718433E+03  0.00000000000E+00 0. -1.
         -6    2    1    2    0  503  0.19848129268E+03  0.16097270802E+03 -0.13767327961E+03  0.33615477227E+03  0.16952599427E+03 0.  0.
        -24    2    3    3    0    0  0.51907625126E+02  0.35160404016E+02 -0.92099132986E+02  0.13763104901E+03  0.80804701577E+02 0.  0.
          6    2    1    2  501    0 -0.19848129268E+03 -0.16097270802E+03  0.38608830773E+02  0.31113514757E+03  0.17322644708E+03 0.  0.
         24    2    5    5    0    0 -0.95534373973E+02 -0.13933038384E+03 -0.23088869312E+02  0.18908944112E+03  0.81743185563E+02 0.  0.
          5    1    5    5  501    0 -0.10294691870E+03 -0.21642324184E+02  0.61697700085E+02  0.12204570645E+03  0.47000000000E+01 0. -1.
        -13    1    6    6    0    0 -0.10330073480E+03 -0.93609006878E+02 -0.28843671006E+02  0.14235745620E+03  0.00000000000E+00 0.  1.
         14    1    6    6    0    0  0.77663608315E+01 -0.45721376957E+02  0.57548016946E+01  0.46731984913E+02  0.00000000000E+00 0. -1.
         -5    1    3    3    0  503  0.14657366755E+03  0.12581230400E+03 -0.45574146621E+02  0.19852372326E+03  0.47000000000E+01 0.  1.
         13    1    4    4    0    0  0.20592229252E+02  0.53030630738E+02 -0.82688451782E+02  0.10036766292E+03  0.00000000000E+00 0. -1.
        -14    1    4    4    0    0  0.31315395874E+02 -0.17870226722E+02 -0.94106812043E+01  0.37263386085E+02  0.00000000000E+00 0.  1.
<mgrwt>
<rscale>  2 0.30821382E+03</rscale>
<asrwt>0</asrwt>
<pdfrwt beam="1">  1       21 0.42171190E-01 0.30873036E+03</pdfrwt>
<pdfrwt beam="2">  1       21 0.57411874E-01 0.30873036E+03</pdfrwt>
<totfact> 0.14512545E+04</totfact>
</mgrwt>
</event>
<event>
12    1  0.1050690E-001  0.2436981E+03  0.7546771E-02  0.1117492E+00
         21   -1    0    0  503  502  0.00000000000E+00  0.00000000000E+00  0.30064465322E+03  0.30064465322E+03  0.00000000000E+00 0. -1.
         21   -1    0    0  501  503 -0.00000000000E+00 -0.00000000000E+00 -0.21576946097E+03  0.21576946097E+03  0.00000000000E+00 0. -1.
          6    2    1    2  501    0 -0.97601424291E+02  0.14020109499E+03 -0.34085855219E+02  0.24523060217E+03  0.17260885741E+03 0.  0.
         24    2    3    3    0    0 -0.66501288832E+02  0.41519577761E+01 -0.13869066121E+02  0.10413703491E+03  0.78819482836E+02 0.  0.
         -6    2    1    2    0  502  0.97601424291E+02 -0.14020109499E+03  0.11896104747E+03  0.27118351201E+03  0.17379983116E+03 0.  0.
        -24    2    5    5    0    0  0.57096494582E+02 -0.12239791237E+03  0.10114020583E+02  0.15359368293E+03  0.72439404872E+02 0.  0.
          5    1    3    3  501    0 -0.31100135460E+02  0.13604913722E+03 -0.20216789098E+02  0.14109356727E+03  0.47000000000E+01 0. -1.
        -11    1    4    4    0    0 -0.57927456677E+02  0.35883327096E+02 -0.19301220132E+02  0.70821892795E+02  0.00000000000E+00 0.  1.
         12    1    4    4    0    0 -0.85738321544E+01 -0.31731369320E+02  0.54321540111E+01  0.33315142112E+02  0.00000000000E+00 0. -1.
         -5    1    5    5    0  502  0.40504929709E+02 -0.17803182626E+02  0.10884702688E+03  0.11758982908E+03  0.47000000000E+01 0.  1.
         11    1    6    6    0    0  0.47189115421E+02 -0.31917716398E+02  0.23437894927E+02  0.61602663521E+02  0.00000000000E+00 0. -1.
        -12    1    6    6    0    0  0.99073791615E+01 -0.90480195969E+02 -0.13323874343E+02  0.91991019409E+02  0.00000000000E+00 0.  1.
<mgrwt>
<rscale>  2 0.24348584E+03</rscale>
<asrwt>0</asrwt>
<pdfrwt beam="1">  1       21 0.46253024E-01 0.24369810E+03</pdfrwt>
<pdfrwt beam="2">  1       21 0.33195302E-01 0.24369810E+03</pdfrwt>
<totfact> 0.38185479E+04</totfact>
</mgrwt>
</event>
<event>
12    1  0.1050690E-001  0.2475626E+03  0.7546771E-02  0.1115065E+00
         21   -1    0    0  501  502  0.00000000000E+00  0.00000000000E+00  0.25879386091E+03  0.25879386091E+03  0.00000000000E+00 0.  1.
         21   -1    0    0  502  503 -0.00000000000E+00 -0.00000000000E+00 -0.26717659067E+03  0.26717659067E+03  0.00000000000E+00 0. -1.
         -6    2    1    2    0  503  0.10344368476E+03 -0.14078943211E+03 -0.94658590543E+02  0.26504245317E+03  0.17539952425E+03 0.  0.
        -24    2    3    3    0    0  0.80853574171E+02 -0.61908934557E+02 -0.12110964585E+03  0.17870477705E+03  0.83053202168E+02 0.  0.
          6    2    1    2  501    0 -0.10344368476E+03  0.14078943211E+03  0.86275860781E+02  0.26092799841E+03  0.17354433464E+03 0.  0.
         24    2    5    5    0    0 -0.10877638995E+02  0.73225687532E+02  0.93056008402E+02  0.14603068420E+03  0.84765651548E+02 0.  0.
          5    1    5    5  501    0 -0.92566045769E+02  0.67563744579E+02 -0.67801476207E+01  0.11489731421E+03  0.47000000000E+01 0. -1.
        -11    1    6    6    0    0 -0.91583850812E+01  0.76871726158E+02  0.10668751395E+03  0.13181564374E+03  0.00000000000E+00 0.  1.
         12    1    6    6    0    0 -0.17192539142E+01 -0.36460386253E+01 -0.13631505552E+02  0.14215040460E+02  0.00000000000E+00 0. -1.
         -5    1    3    3    0  503  0.22590110594E+02 -0.78880497554E+02  0.26451055303E+02  0.86337676119E+02  0.47000000000E+01 0.  1.
         11    1    4    4    0    0  0.83067269592E+02 -0.49000486675E+02 -0.54411934308E+02  0.11073336248E+03  0.00000000000E+00 0. -1.
        -12    1    4    4    0    0 -0.22136954208E+01 -0.12908447882E+02 -0.66697711538E+02  0.67971414569E+02  0.00000000000E+00 0.  1.
<mgrwt>
<rscale>  2 0.24723424E+03</rscale>
<asrwt>0</asrwt>
<pdfrwt beam="1">  1       21 0.39814440E-01 0.24756262E+03</pdfrwt>
<pdfrwt beam="2">  1       21 0.41104091E-01 0.24756262E+03</pdfrwt>
<totfact> 0.33742398E+04</totfact>
</mgrwt>
</event>
<event>
12    1  0.1050690E-001  0.1764271E+03  0.7546771E-02  0.1171657E+00
         21   -1    0    0  501  502  0.00000000000E+00  0.00000000000E+00  0.10652417060E+03  0.10652417060E+03  0.00000000000E+00 0.  1.
         21   -1    0    0  502  503 -0.00000000000E+00 -0.00000000000E+00 -0.36475343211E+03  0.36475343211E+03  0.00000000000E+00 0.  1.
         -6    2    1    2    0  503  0.18491683506E+02 -0.13309506647E+02 -0.22764202344E+02  0.17788962677E+03  0.17494977873E+03 0.  0.
        -24    2    3    3    0    0 -0.35644528354E+02  0.20382797056E+02  0.30101108180E+02  0.94927395481E+02  0.80119553679E+02 0.  0.
          6    2    1    2  501    0 -0.18491683506E+02  0.13309506647E+02 -0.23546505917E+03  0.29338797595E+03  0.17353277793E+03 0.  0.
         24    2    5    5    0    0 -0.68807736064E+02 -0.18658306334E+02 -0.19009165196E+03  0.21832478728E+03  0.80300931858E+02 0.  0.
          5    1    5    5  501    0  0.50316052559E+02  0.31967812980E+02 -0.45373407206E+02  0.75063188670E+02  0.47000000000E+01 0. -1.
        -13    1    6    6    0    0 -0.10456577712E+02 -0.21215553908E+02 -0.13815759156E+03  0.14016761342E+03  0.00000000000E+00 0.  1.
         14    1    6    6    0    0 -0.58351158353E+02  0.25572475742E+01 -0.51934060397E+02  0.78157173859E+02  0.00000000000E+00 0. -1.
         -5    1    3    3    0  503  0.54136211860E+02 -0.33692303703E+02 -0.52865310525E+02  0.82962231288E+02  0.47000000000E+01 0.  1.
         13    1    4    4    0    0  0.25019952057E+02  0.85057974995E+01  0.60149433048E+00  0.26433092658E+02  0.00000000000E+00 0. -1.
        -14    1    4    4    0    0 -0.60664480411E+02  0.11876999557E+02  0.29499613850E+02  0.68494302823E+02  0.00000000000E+00 0.  1.
<mgrwt>
<rscale>  2 0.17607475E+03</rscale>
<asrwt>0</asrwt>
<pdfrwt beam="1">  1       21 0.16388334E-01 0.17642707E+03</pdfrwt>
<pdfrwt beam="2">  1       21 0.56115912E-01 0.17642707E+03</pdfrwt>
<totfact> 0.10036971E+05</totfact>
</mgrwt>
</event>
<event>
12    1  0.1050690E-001  0.2402180E+03  0.7546771E-02  0.1120404E+00
         21   -1    0    0  501  502  0.00000000000E+00  0.00000000000E+00  0.63661721066E+03  0.63661721066E+03  0.00000000000E+00 0.  1.
         21   -1    0    0  502  503 -0.00000000000E+00 -0.00000000000E+00 -0.10403748355E+03  0.10403748355E+03  0.00000000000E+00 0.  1.
         -6    2    1    2    0  503  0.25005153179E+00  0.16082679236E+03  0.12743089420E+03  0.27192520852E+03  0.17843588923E+03 0.  0.
        -24    2    3    3    0    0  0.25554458519E+02  0.14767191420E+02  0.75544406241E+02  0.11480099755E+03  0.81247839548E+02 0.  0.
          6    2    1    2  501    0 -0.25005153179E+00 -0.16082679236E+03  0.40514883292E+03  0.46872948569E+03  0.17232653386E+03 0.  0.
         24    2    5    5    0    0 -0.70408723377E+02 -0.83050790402E+02  0.22897061604E+03  0.26371192591E+03  0.72536988795E+02 0.  0.
          5    1    5    5  501    0  0.70158671845E+02 -0.77776001959E+02  0.17617821688E+03  0.20501755978E+03  0.47000000000E+01 0. -1.
        -13    1    6    6    0    0 -0.46199511643E+02 -0.71152580284E+02  0.21916246030E+03  0.23500908188E+03  0.00000000000E+00 0.  1.
         14    1    6    6    0    0 -0.24209211734E+02 -0.11898210118E+02  0.98081557367E+01  0.28702844036E+02  0.00000000000E+00 0. -1.
         -5    1    3    3    0  503 -0.25304406987E+02  0.14605960094E+03  0.51886487957E+02  0.15712421097E+03  0.47000000000E+01 0.  1.
         11    1    4    4    0    0  0.21989348611E+02  0.44535759746E+02  0.67416720105E+02  0.83737563245E+02  0.00000000000E+00 0. -1.
        -12    1    4    4    0    0  0.35651099081E+01 -0.29768568326E+02  0.81276861361E+01  0.31063434304E+02  0.00000000000E+00 0.  1.
<mgrwt>
<rscale>  2 0.23908435E+03</rscale>
<asrwt>0</asrwt>
<pdfrwt beam="1">  1       21 0.97941107E-01 0.24021800E+03</pdfrwt>
<pdfrwt beam="2">  1       21 0.16005767E-01 0.24021800E+03</pdfrwt>
<totfact> 0.29294835E+04</totfact>
</mgrwt>
</event>
<event>
12    1  0.1050690E-001  0.2387958E+03  0.7546771E-02  0.1123205E+00
         21   -1    0    0  503  502  0.00000000000E+00  0.00000000000E+00  0.15344005976E+03  0.15344005976E+03  0.00000000000E+00 0.  1.
         21   -1    0    0  501  503 -0.00000000000E+00 -0.00000000000E+00 -0.10644305328E+04  0.10644305328E+04  0.00000000000E+00 0. -1.
          6    2    1    2  501    0 -0.45666343458E+02 -0.13395338997E+03 -0.94992098466E+03  0.97592225407E+03  0.17333621459E+03 0.  0.
         24    2    3    3    0    0 -0.68803927877E+02 -0.72314243029E+02 -0.36058219961E+03  0.38289862401E+03  0.81415621093E+02 0.  0.
         -6    2    1    2    0  502  0.45666343458E+02  0.13395338997E+03  0.38930511589E+02  0.24194833852E+03  0.19233951277E+03 0.  0.
        -24    2    5    5    0    0  0.84225523337E+02  0.14142459712E+03 -0.43695426810E+01  0.18330011614E+03  0.80529399742E+02 0.  0.
          5    1    3    3  501    0  0.23137584419E+02 -0.61639146945E+02 -0.58933878505E+03  0.59302363006E+03  0.47000000000E+01 0. -1.
        -13    1    4    4    0    0 -0.44865128324E+02  0.13365686797E+01 -0.78998051462E+02  0.90859002252E+02  0.00000000000E+00 0.  1.
         14    1    4    4    0    0 -0.23938799553E+02 -0.73650811709E+02 -0.28158414815E+03  0.29203962176E+03  0.00000000000E+00 0. -1.
         -5    1    5    5    0  502 -0.38559179878E+02 -0.74712071423E+01  0.43300054270E+02  0.58648222384E+02  0.47000000000E+01 0.  1.
         13    1    6    6    0    0  0.27824717925E+02  0.52836725821E+02 -0.40597416310E+02  0.72208619528E+02  0.00000000000E+00 0. -1.
        -14    1    6    6    0    0  0.56400805412E+02  0.88587871295E+02  0.36227873629E+02  0.11109149661E+03  0.00000000000E+00 0.  1.
<mgrwt>
<rscale>  2 0.23494807E+03</rscale>
<asrwt>0</asrwt>
<pdfrwt beam="1">  1       21 0.23606163E-01 0.23879576E+03</pdfrwt>
<pdfrwt beam="2">  1       21 0.16375854E+00 0.23879576E+03</pdfrwt>
<totfact> 0.38441543E+03</totfact>
</mgrwt>
</event>
<event>
12    1  0.1050690E-001  0.2157598E+03  0.7546771E-02  0.1138342E+00
         21   -1    0    0  501  502  0.00000000000E+00  0.00000000000E+00  0.13739978429E+04  0.13739978429E+04  0.00000000000E+00 0. -1.
         21   -1    0    0  502  503 -0.00000000000E+00 -0.00000000000E+00 -0.84762361426E+02  0.84762361426E+02  0.00000000000E+00 0. -1.
         -6    2    1    2    0  503  0.97343728685E+02 -0.71900922320E+02  0.77766674635E+02  0.22934674738E+03  0.17862455236E+03 0.  0.
        -24    2    3    3    0    0  0.94533641766E+02 -0.78112966983E+02  0.11814289745E+03  0.18813005833E+03  0.79980807648E+02 0.  0.
          6    2    1    2  501    0 -0.97343728685E+02  0.71900922320E+02  0.12114688068E+04  0.12294134569E+04  0.17074903812E+03 0.  0.
         24    2    5    5    0    0 -0.66461018150E+02 -0.49733008343E+01  0.35333469785E+03  0.36727679318E+03  0.74866771318E+02 0.  0.
          5    1    5    5  501    0 -0.30882710535E+02  0.76874223154E+02  0.85813410896E+03  0.86213666373E+03  0.47000000000E+01 0. -1.
        -11    1    6    6    0    0 -0.51061375437E+00 -0.28855368964E+02  0.78638221842E+02  0.83766717608E+02  0.00000000000E+00 0.  1.
         12    1    6    6    0    0 -0.65950404396E+02  0.23882068130E+02  0.27469647601E+03  0.28351007557E+03  0.00000000000E+00 0. -1.
         -5    1    3    3    0  503  0.28100869197E+01  0.62120446631E+01 -0.40376222819E+02  0.41216689053E+02  0.47000000000E+01 0.  1.
         13    1    4    4    0    0  0.10219907136E+03 -0.68282421619E+02  0.76761818777E+02  0.14491209788E+03  0.00000000000E+00 0. -1.
        -14    1    4    4    0    0 -0.76654295979E+01 -0.98305453640E+01  0.41381078677E+02  0.43217960451E+02  0.00000000000E+00 0.  1.
<mgrwt>
<rscale>  2 0.21412288E+03</rscale>
<asrwt>0</asrwt>
<pdfrwt beam="1">  1       21 0.21138427E+00 0.21575976E+03</pdfrwt>
<pdfrwt beam="2">  1       21 0.13040364E-01 0.21575976E+03</pdfrwt>
<totfact> 0.56311236E+03</totfact>
</mgrwt>
</event>
<event>
12    1  0.1050690E-001  0.1833796E+03  0.7546771E-02  0.1164887E+00
         21   -1    0    0  501  502  0.00000000000E+00  0.00000000000E+00  0.12443396824E+03  0.12443396824E+03  0.00000000000E+00 0.  1.
         21   -1    0    0  502  503 -0.00000000000E+00 -0.00000000000E+00 -0.39369347091E+03  0.39369347091E+03  0.00000000000E+00 0. -1.
         -6    2    1    2    0  503  0.36474862202E+02 -0.44800371022E+02 -0.28117338654E+03  0.33568819721E+03  0.17404195939E+03 0.  0.
        -24    2    3    3    0    0  0.55670893321E+02 -0.59906127096E+02 -0.95538480308E+02  0.14839409722E+03  0.78773183532E+02 0.  0.
          6    2    1    2  501    0 -0.36474862202E+02  0.44800371022E+02  0.11913883866E+02  0.18243924194E+03  0.17264022577E+03 0.  0.
         24    2    5    5    0    0 -0.35379959932E+02 -0.32953099761E+02 -0.23280926641E+02  0.96954940945E+02  0.80750298326E+02 0.  0.
          5    1    5    5  501    0 -0.10949022701E+01  0.77753470783E+02  0.35194810506E+02  0.85484300994E+02  0.47000000000E+01 0. -1.
        -13    1    6    6    0    0 -0.55119969382E+01  0.26775703454E+02 -0.65878799847E+01  0.28119754060E+02  0.00000000000E+00 0.  1.
         14    1    6    6    0    0 -0.29867962994E+02 -0.59728803215E+02 -0.16693046656E+02  0.68835186885E+02  0.00000000000E+00 0. -1.
         -5    1    3    3    0  503 -0.19196031120E+02  0.15105756074E+02 -0.18563490623E+03  0.18729409998E+03  0.47000000000E+01 0.  1.
         13    1    4    4    0    0 -0.76550218726E+01 -0.23088254586E+02 -0.64324066703E+02  0.68769560249E+02  0.00000000000E+00 0. -1.
        -14    1    4    4    0    0  0.63325915194E+02 -0.36817872511E+02 -0.31214413605E+02  0.79624536973E+02  0.00000000000E+00 0.  1.
<mgrwt>
<rscale>  2 0.18304628E+03</rscale>
<asrwt>0</asrwt>
<pdfrwt beam="1">  1       21 0.19143688E-01 0.18337964E+03</pdfrwt>
<pdfrwt beam="2">  1       21 0.60568226E-01 0.18337964E+03</pdfrwt>
<totfact> 0.63855111E+04</totfact>
</mgrwt>
</event>
<event>
12    1  0.1050690E-001  0.2414370E+03  0.7546771E-02  0.1119192E+00
         21   -1    0    0  501  502  0.00000000000E+00  0.00000000000E+00  0.18427460555E+03  0.18427460555E+03  0.00000000000E+00 0. -1.
         21   -1    0    0  502  503 -0.00000000000E+00 -0.00000000000E+00 -0.31358447958E+03  0.31358447958E+03  0.00000000000E+00 0.  1.
         -6    2    1    2    0  503  0.16005958487E+03 -0.41959595258E+02 -0.62333574429E+02  0.24935373646E+03  0.17581846616E+03 0.  0.
        -24    2    3    3    0    0  0.15878998018E+03 -0.79710565083E+02 -0.26041377881E+02  0.19676133065E+03  0.80429073632E+02 0.  0.
          6    2    1    2  501    0 -0.16005958487E+03  0.41959595258E+02 -0.66976299600E+02  0.24850534867E+03  0.17288552648E+03 0.  0.
         24    2    5    5    0    0 -0.10962348440E+03  0.23894817622E+02 -0.11298107181E+03  0.17773342283E+03  0.78969464738E+02 0.  0.
          5    1    5    5  501    0 -0.50436100467E+02  0.18064777636E+02  0.46004772210E+02  0.70771925843E+02  0.47000000000E+01 0. -1.
        -11    1    6    6    0    0 -0.44336216598E+02 -0.21941661127E+02 -0.15641044724E+02  0.51882356108E+02  0.00000000000E+00 0.  1.
         12    1    6    6    0    0 -0.65287267806E+02  0.45836478749E+02 -0.97340027085E+02  0.12585106672E+03  0.00000000000E+00 0. -1.
         -5    1    3    3    0  503  0.12696046930E+01  0.37750969825E+02 -0.36292196549E+02  0.52592405812E+02  0.47000000000E+01 0.  1.
         13    1    4    4    0    0  0.57941289010E+02  0.64620746267E+01  0.10343989051E+02  0.59211058850E+02  0.00000000000E+00 0. -1.
        -14    1    4    4    0    0  0.10084869117E+03 -0.86172639709E+02 -0.36385366931E+02  0.13755027180E+03  0.00000000000E+00 0.  1.
<mgrwt>
<rscale>  2 0.24090336E+03</rscale>
<asrwt>0</asrwt>
<pdfrwt beam="1">  1       21 0.28349940E-01 0.24143697E+03</pdfrwt>
<pdfrwt beam="2">  1       21 0.48243765E-01 0.24143697E+03</pdfrwt>
<totfact> 0.47741805E+04</totfact>
</mgrwt>
</event>
<event>
12    1  0.1050690E-001  0.2481852E+03  0.7546771E-02  0.1115317E+00
         21   -1    0    0  501  502  0.00000000000E+00  0.00000000000E+00  0.10746917274E+04  0.10746917274E+04  0.00000000000E+00 0.  1.
         21   -1    0    0  502  503 -0.00000000000E+00 -0.00000000000E+00 -0.56988737280E+02  0.56988737280E+02  0.00000000000E+00 0. -1.
         -6    2    1    2    0  503 -0.17449764367E+03 -0.31676971923E+02  0.44328235427E+03  0.50803064764E+03  0.17361749665E+03 0.  0.
        -24    2    3    3    0    0 -0.31746972685E+02  0.14266540920E+01  0.14310624760E+03  0.17396270674E+03  0.93668135556E+02 0.  0.
          6    2    1    2  501    0  0.17449764367E+03  0.31676971923E+02  0.57442063585E+03  0.62364981703E+03  0.16591313752E+03 0.  0.
         24    2    5    5    0    0  0.12992339994E+03  0.42054683477E+02  0.24963849584E+03  0.29562529269E+03  0.80163887255E+02 0.  0.
          5    1    5    5  501    0  0.44574243729E+02 -0.10377711554E+02  0.32478214001E+03  0.32802452434E+03  0.47000000000E+01 0. -1.
        -13    1    6    6    0    0  0.10097710981E+03  0.49583000351E+02  0.23851878100E+03  0.26371586892E+03  0.00000000000E+00 0.  1.
         14    1    6    6    0    0  0.28946290133E+02 -0.75283168747E+01  0.11119714836E+02  0.31909423773E+02  0.00000000000E+00 0. -1.
         -5    1    3    3    0  503 -0.14275067098E+03 -0.33103626015E+02  0.30017610667E+03  0.33406794090E+03  0.47000000000E+01 0.  1.
         11    1    4    4    0    0 -0.38399428540E+02 -0.35904267877E+02  0.11598545241E+03  0.12734307101E+03  0.00000000000E+00 0. -1.
        -12    1    4    4    0    0  0.66524558543E+01  0.37330921969E+02  0.27120795190E+02  0.46619635731E+02  0.00000000000E+00 0.  1.
<mgrwt>
<rscale>  2 0.24684255E+03</rscale>
<asrwt>0</asrwt>
<pdfrwt beam="1">  1       21 0.16533717E+00 0.24818520E+03</pdfrwt>
<pdfrwt beam="2">  1       21 0.87674989E-02 0.24818520E+03</pdfrwt>
<totfact> 0.22750669E+04</totfact>
</mgrwt>
</event>
<event>
12    1  0.1050690E-001  0.1960695E+03  0.7546771E-02  0.1153175E+00
         21   -1    0    0  503  502  0.00000000000E+00  0.00000000000E+00  0.44042686829E+02  0.44042686829E+02  0.00000000000E+00 0. -1.
         21   -1    0    0  501  503 -0.00000000000E+00 -0.00000000000E+00 -0.10942225036E+04  0.10942225036E+04  0.00000000000E+00 0. -1.
          6    2    1    2  501    0  0.90950222633E+02  0.11159886689E+02 -0.26857864989E+03  0.33253233840E+03  0.17334006703E+03 0.  0.
         24    2    3    3    0    0 -0.11551937592E+02 -0.28776961588E+02 -0.10883238144E+03  0.13851531599E+03  0.79877686084E+02 0.  0.
         -6    2    1    2    0  502 -0.90950222633E+02 -0.11159886689E+02 -0.78160116691E+03  0.80573285206E+03  0.17294091101E+03 0.  0.
        -24    2    5    5    0    0 -0.98353768898E+01  0.47880076135E+02 -0.34683275460E+03  0.35951429826E+03  0.81045263034E+02 0.  0.
          5    1    3    3  501    0  0.10250216023E+03  0.39936848277E+02 -0.15974626845E+03  0.19401702241E+03  0.47000000000E+01 0. -1.
        -13    1    4    4    0    0 -0.39011809207E+02 -0.30129315679E+02 -0.96547014571E+02  0.10840213533E+03  0.00000000000E+00 0.  1.
         14    1    4    4    0    0  0.27459871615E+02  0.13523540907E+01 -0.12285366869E+02  0.30113180665E+02  0.00000000000E+00 0. -1.
         -5    1    5    5    0  502 -0.81114845743E+02 -0.59039962824E+02 -0.43476841231E+03  0.44621855380E+03  0.47000000000E+01 0.  1.
         11    1    6    6    0    0 -0.14198164971E+02 -0.20166395873E+02 -0.12612320938E+03  0.12851200471E+03  0.00000000000E+00 0. -1.
        -12    1    6    6    0    0  0.43627880813E+01  0.68046472008E+02 -0.22070954522E+03  0.23100229355E+03  0.00000000000E+00 0.  1.
<mgrwt>
<rscale>  2 0.19598128E+03</rscale>
<asrwt>0</asrwt>
<pdfrwt beam="1">  1       21 0.67757987E-02 0.19606954E+03</pdfrwt>
<pdfrwt beam="2">  1       21 0.16834190E+00 0.19606954E+03</pdfrwt>
<totfact> 0.34997725E+04</totfact>
</mgrwt>
</event>
<event>
12    1  0.1050690E-001  0.2393716E+03  0.7546771E-02  0.1120472E+00
         21   -1    0    0  503  502  0.00000000000E+00  0.00000000000E+00  0.65314200837E+03  0.65314200837E+03  0.00000000000E+00 0. -1.
         21   -1    0    0  501  503 -0.00000000000E+00 -0.00000000000E+00 -0.87516482153E+02  0.87516482153E+02  0.00000000000E+00 0.  1.
          6    2    1    2  501    0  0.83987311824E+01  0.16371366421E+03  0.30553513617E+03  0.38718178543E+03  0.17229426282E+03 0.  0.
         24    2    3    3    0    0  0.25660146552E+02  0.18874710018E+03  0.25474529244E+03  0.32779889562E+03  0.79202531506E+02 0.  0.
         -6    2    1    2    0  502 -0.83987311824E+01 -0.16371366421E+03  0.26009039006E+03  0.35347670510E+03  0.17443069544E+03 0.  0.
        -24    2    5    5    0    0  0.37346799189E+02 -0.75591773194E+02  0.47276917538E+02  0.11859421254E+03  0.68706482459E+02 0.  0.
          5    1    3    3  501    0 -0.17261415369E+02 -0.25033435968E+02  0.50789843723E+02  0.59382889811E+02  0.47000000000E+01 0. -1.
        -13    1    4    4    0    0  0.34436242253E+01  0.76579547442E+02  0.16670728654E+03  0.18348734294E+03  0.00000000000E+00 0.  1.
         14    1    4    4    0    0  0.22216522326E+02  0.11216755274E+03  0.88038005904E+02  0.14431155267E+03  0.00000000000E+00 0. -1.
         -5    1    5    5    0  502 -0.45745530372E+02 -0.88121891020E+02  0.21281347252E+03  0.23488249256E+03  0.47000000000E+01 0.  1.
         13    1    6    6    0    0  0.26247696640E+02 -0.51578293027E+02 -0.69204125698E+01  0.58285109596E+02  0.00000000000E+00 0. -1.
        -14    1    6    6    0    0  0.11099102549E+02 -0.24013480167E+02  0.54197330108E+02  0.60309102944E+02  0.00000000000E+00 0.  1.
<mgrwt>
<rscale>  2 0.23898259E+03</rscale>
<asrwt>0</asrwt>
<pdfrwt beam="1">  1       21 0.10048338E+00 0.23937161E+03</pdfrwt>
<pdfrwt beam="2">  1       21 0.13464075E-01 0.23937161E+03</pdfrwt>
<totfact> 0.37816533E+04</totfact>
</mgrwt>
</event>
<event>
12    1  0.1050690E-001  0.1838206E+03  0.7546771E-02  0.1164416E+00
         21   -1    0    0  503  502  0.00000000000E+00  0.00000000000E+00  0.24635263079E+03  0.24635263079E+03  0.00000000000E+00 0.  1.
         21   -1    0    0  501  503 -0.00000000000E+00 -0.00000000000E+00 -0.28962565273E+03  0.28962565273E+03  0.00000000000E+00 0.  1.
          6    2    1    2  501    0 -0.21345061464E+02  0.59806209516E+02 -0.21656714086E+03  0.28335036501E+03  0.17132924007E+03 0.  0.
         24    2    3    3    0    0 -0.96362500472E+00 -0.74130058899E+01 -0.19130435569E+03  0.20855648701E+03  0.82719831579E+02 0.  0.
         -6    2    1    2    0  502  0.21345061464E+02 -0.59806209516E+02  0.17329411891E+03  0.25262791851E+03  0.17250396870E+03 0.  0.
        -24    2    5    5    0    0 -0.16072965532E+02 -0.83626716014E+02  0.17601067505E+03  0.20794016906E+03  0.70764315333E+02 0.  0.
          5    1    3    3  501    0 -0.20381436459E+02  0.67219215406E+02 -0.25262785168E+02  0.74793878001E+02  0.47000000000E+01 0. -1.
        -11    1    4    4    0    0  0.21100111003E+02 -0.37838218117E+02 -0.12560804786E+03  0.13286958690E+03  0.00000000000E+00 0.  1.
         12    1    4    4    0    0 -0.22063736008E+02  0.30425212227E+02 -0.65696307828E+02  0.75686900107E+02  0.00000000000E+00 0. -1.
         -5    1    5    5    0  502  0.37418026995E+02  0.23820506498E+02 -0.27165561348E+01  0.44687749454E+02  0.47000000000E+01 0.  1.
         11    1    6    6    0    0 -0.40095248102E+02 -0.45237380301E+02  0.68952209992E+02  0.91697637699E+02  0.00000000000E+00 0. -1.
        -12    1    6    6    0    0  0.24022282571E+02 -0.38389335712E+02  0.10705846506E+03  0.11624253136E+03  0.00000000000E+00 0.  1.
<mgrwt>
<rscale>  2 0.18354449E+03</rscale>
<asrwt>0</asrwt>
<pdfrwt beam="1">  1       21 0.37900405E-01 0.18382060E+03</pdfrwt>
<pdfrwt beam="2">  1       21 0.44557793E-01 0.18382060E+03</pdfrwt>
<totfact> 0.32616822E+04</totfact>
</mgrwt>
</event>
<event>
12    1  0.1050690E-001  0.2489755E+03  0.7546771E-02  0.1114075E+00
         21   -1    0    0  501  502  0.00000000000E+00  0.00000000000E+00  0.10471892439E+03  0.10471892439E+03  0.00000000000E+00 0. -1.
         21   -1    0    0  502  503 -0.00000000000E+00 -0.00000000000E+00 -0.69944318237E+03  0.69944318237E+03  0.00000000000E+00 0.  1.
         -6    2    1    2    0  503  0.14034771504E+03 -0.10949840972E+03 -0.45669272712E+03  0.52015100225E+03  0.17407307455E+03 0.  0.
        -24    2    3    3    0    0  0.77381806333E+01 -0.35353733950E+02 -0.24023171596E+03  0.25565113284E+03  0.79601874518E+02 0.  0.
          6    2    1    2  501    0 -0.14034771504E+03  0.10949840972E+03 -0.13803153086E+03  0.28401110452E+03  0.17298040678E+03 0.  0.
         24    2    5    5    0    0  0.15718772599E+01  0.23373244202E+02 -0.23935487337E+02  0.82519883960E+02  0.75417798642E+02 0.  0.
          5    1    5    5  501    0 -0.14191959230E+03  0.86125165520E+02 -0.11409604352E+03  0.20149122056E+03  0.47000000000E+01 0. -1.
        -13    1    6    6    0    0  0.20519720669E+02  0.39884416188E+02 -0.33125919454E+02  0.55759771616E+02  0.00000000000E+00 0.  1.
         14    1    6    6    0    0 -0.18947843409E+02 -0.16511171985E+02  0.91904321170E+01  0.26760112344E+02  0.00000000000E+00 0. -1.
         -5    1    3    3    0  503  0.13260953441E+03 -0.74144675772E+02 -0.21646101117E+03  0.26449986941E+03  0.47000000000E+01 0.  1.
         11    1    4    4    0    0 -0.13611158090E+01  0.47986765170E+01  0.49556395125E+01  0.70312371271E+01  0.00000000000E+00 0. -1.
        -12    1    4    4    0    0  0.90992964423E+01 -0.40152410467E+02 -0.24518735547E+03  0.24861989571E+03  0.00000000000E+00 0.  1.
<mgrwt>
<rscale>  2 0.24878464E+03</rscale>
<asrwt>0</asrwt>
<pdfrwt beam="1">  1       21 0.16110604E-01 0.24897554E+03</pdfrwt>
<pdfrwt beam="2">  1       21 0.10760664E+00 0.24897554E+03</pdfrwt>
<totfact> 0.22983398E+04</totfact>
</mgrwt>
</event>
<event>
12    1  0.1050690E-001  0.1904931E+03  0.7546771E-02  0.1158567E+00
         21   -1    0    0  503  502  0.00000000000E+00  0.00000000000E+00  0.30032382728E+03  0.30032382728E+03  0.00000000000E+00 0.  1.
         21   -1    0    0  501  503 -0.00000000000E+00 -0.00000000000E+00 -0.12816930495E+03  0.12816930495E+03  0.00000000000E+00 0.  1.
          6    2    1    2  501    0  0.47708808095E+02 -0.63455446612E+02  0.29178243905E+02  0.19031288421E+03  0.17048430985E+03 0.  0.
         24    2    3    3    0    0  0.53390603499E+02  0.13375486187E+02  0.50788127040E+02  0.11016082820E+03  0.80786843290E+02 0.  0.
         -6    2    1    2    0  502 -0.47708808095E+02  0.63455446612E+02  0.14297627843E+03  0.23818024801E+03  0.17316145725E+03 0.  0.
        -24    2    5    5    0    0 -0.86670069093E+02  0.76462410156E+01  0.11122765612E+03  0.16292925263E+03  0.81266130692E+02 0.  0.
          5    1    3    3  501    0 -0.56817954038E+01 -0.76830932799E+02 -0.21609883135E+02  0.80152056012E+02  0.47000000000E+01 0. -1.
        -13    1    4    4    0    0  0.63879994310E+02 -0.71267192422E+01  0.57426882734E+02  0.86193333041E+02  0.00000000000E+00 0.  1.
         14    1    4    4    0    0 -0.10489390811E+02  0.20502205429E+02 -0.66387556937E+01  0.23967495159E+02  0.00000000000E+00 0. -1.
         -5    1    5    5    0  502  0.38961260998E+02  0.55809205597E+02  0.31748622309E+02  0.75250995385E+02  0.47000000000E+01 0.  1.
         11    1    6    6    0    0  0.11149958569E+02 -0.10346726376E-01  0.40417722381E+02  0.41927484609E+02  0.00000000000E+00 0. -1.
        -12    1    6    6    0    0 -0.97820027662E+02  0.76565877419E+01  0.70809933737E+02  0.12100176802E+03  0.00000000000E+00 0.  1.
<mgrwt>
<rscale>  2 0.18988259E+03</rscale>
<asrwt>0</asrwt>
<pdfrwt beam="1">  1       21 0.46203666E-01 0.19049308E+03</pdfrwt>
<pdfrwt beam="2">  1       21 0.19718355E-01 0.19049308E+03</pdfrwt>
<totfact> 0.10646801E+05</totfact>
</mgrwt>
</event>
<event>
12    1  0.1050690E-001  0.1797622E+03  0.7546771E-02  0.1169077E+00
         21   -1    0    0  503  502  0.00000000000E+00  0.00000000000E+00  0.28478722817E+03  0.28478722817E+03  0.00000000000E+00 0.  1.
         21   -1    0    0  501  503 -0.00000000000E+00 -0.00000000000E+00 -0.22319590542E+03  0.22319590542E+03  0.00000000000E+00 0.  1.
          6    2    1    2  501    0 -0.27334876131E+02 -0.92932728821E+01  0.21084492547E+03  0.27433578502E+03  0.17312128688E+03 0.  0.
         24    2    3    3    0    0  0.92056378385E+01 -0.23976172645E+02  0.21639126303E+03  0.23429020390E+03  0.86064628646E+02 0.  0.
         -6    2    1    2    0  502  0.27334876131E+02  0.92932728821E+01 -0.14925360272E+03  0.23364734857E+03  0.17742853545E+03 0.  0.
        -24    2    5    5    0    0 -0.37608299990E+02 -0.26291486291E+02 -0.12395479700E+03  0.15525085132E+03  0.81439601277E+02 0.  0.
          5    1    3    3  501    0 -0.36540513970E+02  0.14682899763E+02 -0.55463375609E+01  0.40045581117E+02  0.47000000000E+01 0. -1.
        -11    1    4    4    0    0 -0.12323179063E+02  0.14823078707E+02  0.16613136323E+03  0.16724596932E+03  0.00000000000E+00 0.  1.
         12    1    4    4    0    0  0.21528816902E+02 -0.38799251351E+02  0.50259899807E+02  0.67044234586E+02  0.00000000000E+00 0. -1.
         -5    1    5    5    0  502  0.64943176122E+02  0.35584759173E+02 -0.25298805726E+02  0.78396497252E+02  0.47000000000E+01 0.  1.
         11    1    6    6    0    0 -0.52295267549E+02 -0.35052257451E+02 -0.53093552212E+02  0.82355212627E+02  0.00000000000E+00 0. -1.
        -12    1    6    6    0    0  0.14686967558E+02  0.87607711597E+01 -0.70861244785E+02  0.72895638689E+02  0.00000000000E+00 0.  1.
<mgrwt>
<rscale>  2 0.17869015E+03</rscale>
<asrwt>0</asrwt>
<pdfrwt beam="1">  1       21 0.43813420E-01 0.17976219E+03</pdfrwt>
<pdfrwt beam="2">  1       21 0.34337832E-01 0.17976219E+03</pdfrwt>
<totfact> 0.41172845E+04</totfact>
</mgrwt>
</event>
<event>
12    1  0.1050690E-001  0.1925835E+03  0.7546771E-02  0.1157211E+00
         21   -1    0    0  501  502  0.00000000000E+00  0.00000000000E+00  0.10445883021E+03  0.10445883021E+03  0.00000000000E+00 0. -1.
         21   -1    0    0  502  503 -0.00000000000E+00 -0.00000000000E+00 -0.70870821567E+03  0.70870821567E+03  0.00000000000E+00 0. -1.
         -6    2    1    2    0  503  0.77690769881E+02  0.39286366113E+02 -0.59464748003E+03  0.62505523654E+03  0.17178227189E+03 0.  0.
        -24    2    3    3    0    0  0.10918149347E+02  0.33256794247E+01 -0.48172093719E+03  0.48894407639E+03  0.82951687028E+02 0.  0.
          6    2    1    2  501    0 -0.77690769881E+02 -0.39286366113E+02 -0.96019054278E+01  0.18811180935E+03  0.16647697120E+03 0.  0.
         24    2    5    5    0    0 -0.82012723906E+02 -0.79843741879E+02  0.14505155510E+02  0.14050067197E+03  0.80180604179E+02 0.  0.
          5    1    5    5  501    0  0.43219540256E+01  0.40557375766E+02 -0.24107060937E+02  0.47611137380E+02  0.47000000000E+01 0. -1.
        -13    1    6    6    0    0 -0.51513810546E+02 -0.20853051182E+01  0.23176742293E+02  0.56525945880E+02  0.00000000000E+00 0.  1.
         14    1    6    6    0    0 -0.30498913361E+02 -0.77758436761E+02 -0.86715867831E+01  0.83974726085E+02  0.00000000000E+00 0. -1.
         -5    1    3    3    0  503  0.66772620533E+02  0.35960686689E+02 -0.11292654284E+03  0.13611116015E+03  0.47000000000E+01 0.  1.
         11    1    4    4    0    0  0.11966920871E+02  0.39441750072E+02 -0.16091555230E+03  0.16611042658E+03  0.00000000000E+00 0. -1.
        -12    1    4    4    0    0 -0.10487715232E+01 -0.36116070647E+02 -0.32080538488E+03  0.32283364981E+03  0.00000000000E+00 0.  1.
<mgrwt>
<rscale>  2 0.19139332E+03</rscale>
<asrwt>0</asrwt>
<pdfrwt beam="1">  1       21 0.16070589E-01 0.19258355E+03</pdfrwt>
<pdfrwt beam="2">  1       21 0.10903204E+00 0.19258355E+03</pdfrwt>
<totfact> 0.23080054E+04</totfact>
</mgrwt>
</event>
<event>
12    1  0.1050690E-001  0.2005696E+03  0.7546771E-02  0.1150168E+00
         21   -1    0    0  503  502  0.00000000000E+00  0.00000000000E+00  0.22164652475E+03  0.22164652475E+03  0.00000000000E+00 0.  1.
         21   -1    0    0  501  503 -0.00000000000E+00 -0.00000000000E+00 -0.22718057977E+03  0.22718057977E+03  0.00000000000E+00 0.  1.
          6    2    1    2  501    0  0.92560929559E+02  0.11857164327E+02 -0.10757059684E+03  0.22759521907E+03  0.17753881945E+03 0.  0.
         24    2    3    3    0    0  0.66327920849E+02  0.77722683837E+02 -0.71778776097E+02  0.14803654991E+03  0.79513638728E+02 0.  0.
         -6    2    1    2    0  502 -0.92560929559E+02 -0.11857164327E+02  0.10203654182E+03  0.22123188546E+03  0.17269618771E+03 0.  0.
        -24    2    5    5    0    0 -0.10821279092E+03 -0.99155866483E+01  0.19474615974E+02  0.13704571030E+03  0.81203073010E+02 0.  0.
          5    1    3    3  501    0  0.26233008710E+02 -0.65865519509E+02 -0.35791820745E+02  0.79558669159E+02  0.47000000000E+01 0. -1.
        -13    1    4    4    0    0  0.21474584039E+02  0.14129637082E+02  0.16351486290E+02  0.30465972947E+02  0.00000000000E+00 0.  1.
         14    1    4    4    0    0  0.44853336810E+02  0.63593046754E+02 -0.88130262387E+02  0.11757057696E+03  0.00000000000E+00 0. -1.
         -5    1    5    5    0  502  0.15651861363E+02 -0.19415776791E+01  0.82561925847E+02  0.84186175157E+02  0.47000000000E+01 0.  1.
         13    1    6    6    0    0 -0.64337658855E+02  0.32550930856E+02  0.23542414773E+02  0.75849474223E+02  0.00000000000E+00 0. -1.
        -14    1    6    6    0    0 -0.43875132068E+02 -0.42466517504E+02 -0.40677987988E+01  0.61196236077E+02  0.00000000000E+00 0.  1.
<mgrwt>
<rscale>  2 0.19949251E+03</rscale>
<asrwt>0</asrwt>
<pdfrwt beam="1">  1       21 0.34099465E-01 0.20056957E+03</pdfrwt>
<pdfrwt beam="2">  1       21 0.34950859E-01 0.20056957E+03</pdfrwt>
<totfact> 0.65157222E+04</totfact>
</mgrwt>
</event>
<event>
12    1  0.1050690E-001  0.2062367E+03  0.7546771E-02  0.1145270E+00
         21   -1    0    0  503  502  0.00000000000E+00  0.00000000000E+00  0.86325317700E+03  0.86325317700E+03  0.00000000000E+00 0. -1.
         21   -1    0    0  501  503 -0.00000000000E+00 -0.00000000000E+00 -0.53635597731E+02  0.53635597731E+02  0.00000000000E+00 0. -1.
          6    2    1    2  501    0  0.11016877013E+03  0.23915532432E+02  0.26554969408E+03  0.33622942923E+03  0.17269765040E+03 0.  0.
         24    2    3    3    0    0  0.46138296285E+01 -0.86650895851E+01  0.72539241651E+02  0.11379187139E+03  0.87122197015E+02 0.  0.
         -6    2    1    2    0  502 -0.11016877013E+03 -0.23915532432E+02  0.54406788519E+03  0.58065934550E+03  0.16866031309E+03 0.  0.
        -24    2    5    5    0    0 -0.12682508559E+03  0.93057980956E+01  0.31856777435E+03  0.35206914528E+03  0.79347690512E+02 0.  0.
          5    1    3    3  501    0  0.10555494050E+03  0.32580622017E+02  0.19301045243E+03  0.22243755785E+03  0.47000000000E+01 0. -1.
        -13    1    4    4    0    0  0.12992482734E+02  0.19023724403E+02  0.80545881014E+02  0.83775567119E+02  0.00000000000E+00 0.  1.
         14    1    4    4    0    0 -0.83786531057E+01 -0.27688813988E+02 -0.80066393630E+01  0.30016304267E+02  0.00000000000E+00 0. -1.
         -5    1    5    5    0  502  0.16656315458E+02 -0.33221330528E+02  0.22550011084E+03  0.22859020022E+03  0.47000000000E+01 0.  1.
         13    1    6    6    0    0 -0.27800323448E+02  0.16687237986E+02  0.17200982144E+03  0.17503914010E+03  0.00000000000E+00 0. -1.
        -14    1    6    6    0    0 -0.99024762141E+02 -0.73814398908E+01  0.14655795291E+03  0.17703000518E+03  0.00000000000E+00 0.  1.
<mgrwt>
<rscale>  2 0.20538933E+03</rscale>
<asrwt>0</asrwt>
<pdfrwt beam="1">  1       21 0.13280817E+00 0.20623673E+03</pdfrwt>
<pdfrwt beam="2">  1       21 0.82516311E-02 0.20623673E+03</pdfrwt>
<totfact> 0.46212610E+04</totfact>
</mgrwt>
</event>
<event>
12    1  0.1050690E-001  0.2124254E+03  0.7546771E-02  0.1140035E+00
         21   -1    0    0  501  502  0.00000000000E+00  0.00000000000E+00  0.17791460194E+03  0.17791460194E+03  0.00000000000E+00 0.  1.
         21   -1    0    0  502  503 -0.00000000000E+00 -0.00000000000E+00 -0.27618521277E+03  0.27618521277E+03  0.00000000000E+00 0.  1.
         -6    2    1    2    0  503  0.11783548529E+03  0.23240296818E+02  0.18751630996E+02  0.21325143948E+03  0.17521198528E+03 0.  0.
        -24    2    3    3    0    0 -0.79462725712E+00 -0.12742316396E+02  0.27473769045E+02  0.88888994393E+02  0.83567022677E+02 0.  0.
          6    2    1    2  501    0 -0.11783548529E+03 -0.23240296818E+02 -0.11702224183E+03  0.24084837523E+03  0.17288268213E+03 0.  0.
         24    2    5    5    0    0 -0.57809373453E+02  0.46082736295E+02 -0.98054573334E+02  0.14708975179E+03  0.80963902361E+02 0.  0.
          5    1    5    5  501    0 -0.60026111836E+02 -0.69323033113E+02 -0.18967668497E+02  0.93758623445E+02  0.47000000000E+01 0. -1.
        -11    1    6    6    0    0 -0.39823211442E+02 -0.17136080057E+02 -0.46325947190E+02  0.63447827326E+02  0.00000000000E+00 0.  1.
         12    1    6    6    0    0 -0.17986162010E+02  0.63218816352E+02 -0.51728626144E+02  0.83641924461E+02  0.00000000000E+00 0. -1.
         -5    1    3    3    0  503  0.11863011255E+03  0.35982613213E+02 -0.87221380484E+01  0.12436244509E+03  0.47000000000E+01 0.  1.
         11    1    4    4    0    0 -0.36976008821E+01 -0.29249490270E+02 -0.21914115767E+02  0.36734634927E+02  0.00000000000E+00 0. -1.
        -12    1    4    4    0    0  0.29029736250E+01  0.16507173875E+02  0.49387884811E+02  0.52154359466E+02  0.00000000000E+00 0.  1.
<mgrwt>
<rscale>  2 0.21194449E+03</rscale>
<asrwt>0</asrwt>
<pdfrwt beam="1">  1       21 0.27371477E-01 0.21242541E+03</pdfrwt>
<pdfrwt beam="2">  1       21 0.42490033E-01 0.21242541E+03</pdfrwt>
<totfact> 0.67240404E+04</totfact>
</mgrwt>
</event>
<event>
12    1  0.1050690E-001  0.2465528E+03  0.7546771E-02  0.1116679E+00
         21   -1    0    0  503  502  0.00000000000E+00  0.00000000000E+00  0.21863065187E+03  0.21863065187E+03  0.00000000000E+00 0.  1.
         21   -1    0    0  501  503 -0.00000000000E+00 -0.00000000000E+00 -0.27014292228E+03  0.27014292228E+03  0.00000000000E+00 0.  1.
          6    2    1    2  501    0  0.16231445296E+03 -0.27900746431E+02 -0.19431397900E+02  0.24014241674E+03  0.17368467924E+03 0.  0.
         24    2    3    3    0    0  0.50150763296E+02 -0.11395753698E+02  0.49889099725E+02  0.10717426471E+03  0.79702186187E+02 0.  0.
         -6    2    1    2    0  502 -0.16231445296E+03  0.27900746431E+02 -0.32080872512E+02  0.24863115741E+03  0.18347707422E+03 0.  0.
        -24    2    5    5    0    0 -0.17728936969E+03 -0.17267075186E+02 -0.42408079911E+02  0.19971161680E+03  0.79728364774E+02 0.  0.
          5    1    3    3  501    0  0.11216368966E+03 -0.16504992733E+02 -0.69320497625E+02  0.13296815203E+03  0.47000000000E+01 0. -1.
        -11    1    4    4    0    0  0.26800028396E+02 -0.33104103856E+02 -0.58186216979E+01  0.42988132927E+02  0.00000000000E+00 0.  1.
         12    1    4    4    0    0  0.23350734900E+02  0.21708350158E+02  0.55707721423E+02  0.64186131782E+02  0.00000000000E+00 0. -1.
         -5    1    5    5    0  502  0.14974916739E+02  0.45167821616E+02  0.10327207399E+02  0.48919540611E+02  0.47000000000E+01 0.  1.
         11    1    6    6    0    0  0.79573050424E+01 -0.51382185026E+01 -0.11788449627E+01  0.95451384675E+01  0.00000000000E+00 0. -1.
        -12    1    6    6    0    0 -0.18524667474E+03 -0.12128856683E+02 -0.41229234949E+02  0.19016647833E+03  0.00000000000E+00 0.  1.
<mgrwt>
<rscale>  2 0.24473328E+03</rscale>
<asrwt>0</asrwt>
<pdfrwt beam="1">  1       21 0.33635485E-01 0.24655277E+03</pdfrwt>
<pdfrwt beam="2">  1       21 0.41560450E-01 0.24655277E+03</pdfrwt>
<totfact> 0.46308039E+04</totfact>
</mgrwt>
</event>
<event>
12    1  0.1050690E-001  0.1763243E+03  0.7546771E-02  0.1172206E+00
         21   -1    0    0  503  502  0.00000000000E+00  0.00000000000E+00  0.10188058950E+03  0.10188058950E+03  0.00000000000E+00 0. -1.
         21   -1    0    0  501  503 -0.00000000000E+00 -0.00000000000E+00 -0.89351617269E+03  0.89351617269E+03  0.00000000000E+00 0. -1.
          6    2    1    2  501    0  0.24781022722E+02  0.12573682481E+02 -0.80034227102E+03  0.81885763241E+03  0.17090311523E+03 0.  0.
         24    2    3    3    0    0 -0.22135186844E+02 -0.47780018506E+02 -0.45513105480E+03  0.46525252251E+03  0.80887180650E+02 0.  0.
         -6    2    1    2    0  502 -0.24781022722E+02 -0.12573682481E+02  0.87066878349E+01  0.17653912977E+03  0.17412082400E+03 0.  0.
        -24    2    5    5    0    0  0.21802199852E+02  0.43701865240E+02  0.32648502967E+02  0.99518129985E+02  0.80328976751E+02 0.  0.
          5    1    3    3  501    0  0.46916209567E+02  0.60353700987E+02 -0.34521121622E+03  0.35360510990E+03  0.47000000000E+01 0. -1.
        -11    1    4    4    0    0  0.30068365888E+02 -0.14622015472E+02 -0.12594283022E+03  0.13030543522E+03  0.00000000000E+00 0.  1.
         12    1    4    4    0    0 -0.52203552732E+02 -0.33158003034E+02 -0.32918822458E+03  0.33494708729E+03  0.00000000000E+00 0. -1.
         -5    1    5    5    0  502 -0.46583222574E+02 -0.56275547721E+02 -0.23941815133E+02  0.77020999790E+02  0.47000000000E+01 0.  1.
         11    1    6    6    0    0  0.29857555167E+02 -0.15673477276E+02  0.75595596446E+01  0.34558333763E+02  0.00000000000E+00 0. -1.
        -12    1    6    6    0    0 -0.80553553144E+01  0.59375342516E+02  0.25088943323E+02  0.64959796222E+02  0.00000000000E+00 0.  1.
<mgrwt>
<rscale>  2 0.17552469E+03</rscale>
<asrwt>0</asrwt>
<pdfrwt beam="1">  1       21 0.15673937E-01 0.17632430E+03</pdfrwt>
<pdfrwt beam="2">  1       21 0.13746402E+00 0.17632430E+03</pdfrwt>
<totfact> 0.13740161E+04</totfact>
</mgrwt>
</event>
<event>
12    1  0.1050690E-001  0.2140564E+03  0.7546771E-02  0.1138478E+00
         21   -1    0    0  501  502  0.00000000000E+00  0.00000000000E+00  0.60037507069E+02  0.60037507069E+02  0.00000000000E+00 0. -1.
         21   -1    0    0  502  503 -0.00000000000E+00 -0.00000000000E+00 -0.10605257752E+04  0.10605257752E+04  0.00000000000E+00 0.  1.
         -6    2    1    2    0  503  0.49082702940E+00 -0.12521889936E+03 -0.79805987590E+03  0.82626855021E+03  0.17360915261E+03 0.  0.
        -24    2    3    3    0    0  0.34060320633E+02 -0.14886448181E+03 -0.65370159357E+03  0.67611053961E+03  0.80491918515E+02 0.  0.
          6    2    1    2  501    0 -0.49082702940E+00  0.12521889936E+03 -0.20242839221E+03  0.29429473204E+03  0.17306681272E+03 0.  0.
         24    2    5    5    0    0 -0.60159593551E+02  0.40160372413E+02 -0.67146865432E+02  0.12365330626E+03  0.74494338063E+02 0.  0.
          5    1    5    5  501    0  0.59668766521E+02  0.85058526948E+02 -0.13528152677E+03  0.17064142578E+03  0.47000000000E+01 0. -1.
        -13    1    6    6    0    0 -0.12671033809E+02 -0.74401620326E+01 -0.52925771972E+02  0.54927665595E+02  0.00000000000E+00 0.  1.
         14    1    6    6    0    0 -0.47488559742E+02  0.47600534445E+02 -0.14221093460E+02  0.68725640666E+02  0.00000000000E+00 0. -1.
         -5    1    3    3    0  503 -0.33569493603E+02  0.23645582448E+02 -0.14435828233E+03  0.15015801060E+03  0.47000000000E+01 0.  1.
         13    1    4    4    0    0  0.25354881258E+02 -0.52265290100E+02 -0.11601289831E+03  0.12974406779E+03  0.00000000000E+00 0. -1.
        -14    1    4    4    0    0  0.87054393749E+01 -0.96599191709E+02 -0.53768869527E+03  0.54636647182E+03  0.00000000000E+00 0.  1.
<mgrwt>
<rscale>  2 0.21394643E+03</rscale>
<asrwt>0</asrwt>
<pdfrwt beam="1">  1       21 0.92365399E-02 0.21405642E+03</pdfrwt>
<pdfrwt beam="2">  1       21 0.16315781E+00 0.21405642E+03</pdfrwt>
<totfact> 0.21964654E+04</totfact>
</mgrwt>
</event>
<event>
12    1  0.1050690E-001  0.2826373E+03  0.7546771E-02  0.1094356E+00
         21   -1    0    0  503  502  0.00000000000E+00  0.00000000000E+00  0.10558035470E+04  0.10558035470E+04  0.00000000000E+00 0. -1.
         21   -1    0    0  501  503 -0.00000000000E+00 -0.00000000000E+00 -0.11012334099E+03  0.11012334099E+03  0.00000000000E+00 0.  1.
          6    2    1    2  501    0 -0.17425465453E+03  0.13838128974E+03  0.14537983687E+03  0.31718399307E+03  0.17307894879E+03 0.  0.
         24    2    3    3    0    0 -0.85043547887E+02  0.14317451848E+03  0.12900273691E+03  0.22623402884E+03  0.82515343399E+02 0.  0.
         -6    2    1    2    0  502  0.17425465453E+03 -0.13838128974E+03  0.80030036914E+03  0.84874289492E+03  0.17426920225E+03 0.  0.
        -24    2    5    5    0    0  0.12574646331E+03 -0.12693859786E+02  0.40345341159E+03  0.42962480609E+03  0.76351238205E+02 0.  0.
          5    1    3    3  501    0 -0.89211106643E+02 -0.47932287366E+01  0.16377099960E+02  0.90949964229E+02  0.47000000000E+01 0. -1.
        -11    1    4    4    0    0 -0.87059744057E+02  0.68895422259E+02  0.85504559553E+02  0.14013210891E+03  0.00000000000E+00 0.  1.
         12    1    4    4    0    0  0.20161961699E+01  0.74279096218E+02  0.43498177360E+02  0.86101919930E+02  0.00000000000E+00 0. -1.
         -5    1    5    5    0  502  0.48508191216E+02 -0.12568742995E+03  0.39684695755E+03  0.41911808883E+03  0.47000000000E+01 0.  1.
         11    1    6    6    0    0  0.60364836774E+02 -0.16965024301E+02  0.30488644468E+03  0.31126752114E+03  0.00000000000E+00 0. -1.
        -12    1    6    6    0    0  0.65381626539E+02  0.42711645150E+01  0.98566966907E+02  0.11835728495E+03  0.00000000000E+00 0.  1.
<mgrwt>
<rscale>  2 0.28245400E+03</rscale>
<asrwt>0</asrwt>
<pdfrwt beam="1">  1       21 0.16243131E+00 0.28263726E+03</pdfrwt>
<pdfrwt beam="2">  1       21 0.16942053E-01 0.28263726E+03</pdfrwt>
<totfact> 0.71309551E+03</totfact>
</mgrwt>
</event>
<event>
12    1  0.1050690E-001  0.1762543E+03  0.7546771E-02  0.1171662E+00
         21   -1    0    0  501  502  0.00000000000E+00  0.00000000000E+00  0.11389305269E+04  0.11389305269E+04  0.00000000000E+00 0. -1.
         21   -1    0    0  502  503 -0.00000000000E+00 -0.00000000000E+00 -0.99096014125E+02  0.99096014125E+02  0.00000000000E+00 0. -1.
         -6    2    1    2    0  503 -0.37059194277E+01 -0.32049888684E+02 -0.71822720934E+01  0.17640060286E+03  0.17327624896E+03 0.  0.
        -24    2    3    3    0    0 -0.32653996749E+01  0.49188225441E+02  0.76569692026E+01  0.93683504707E+02  0.79295810229E+02 0.  0.
          6    2    1    2  501    0  0.37059194277E+01  0.32049888684E+02  0.10470167849E+04  0.10616259382E+04  0.17252407249E+03 0.  0.
         24    2    5    5    0    0 -0.44359221872E+02  0.10198210930E+02  0.35039072181E+03  0.36298603424E+03  0.83147213123E+02 0.  0.
          5    1    5    5  501    0  0.48065141299E+02  0.21851677754E+02  0.69662606310E+03  0.69863990397E+03  0.47000000000E+01 0. -1.
        -11    1    6    6    0    0 -0.35059175458E+01 -0.14251171851E+02  0.69102414300E+01  0.16221553365E+02  0.00000000000E+00 0.  1.
         12    1    6    6    0    0 -0.40853304326E+02  0.24449382781E+02  0.34348048038E+03  0.34676448087E+03  0.00000000000E+00 0. -1.
         -5    1    3    3    0  503 -0.44051975276E+00 -0.81238114125E+02 -0.14839241296E+02  0.82717098151E+02  0.47000000000E+01 0.  1.
         13    1    4    4    0    0 -0.17069265048E+02  0.30634374894E+02 -0.32196082664E+02  0.47606853218E+02  0.00000000000E+00 0. -1.
        -14    1    4    4    0    0  0.13803865373E+02  0.18553850548E+02  0.39853051867E+02  0.46076651489E+02  0.00000000000E+00 0.  1.
<mgrwt>
<rscale>  2 0.17606918E+03</rscale>
<asrwt>0</asrwt>
<pdfrwt beam="1">  1       21 0.17522007E+00 0.17625433E+03</pdfrwt>
<pdfrwt beam="2">  1       21 0.15245541E-01 0.17625433E+03</pdfrwt>
<totfact> 0.75789058E+03</totfact>
</mgrwt>
</event>
<event>
12    1  0.1050690E-001  0.2471313E+03  0.7546771E-02  0.1115277E+00
         21   -1    0    0  503  502  0.00000000000E+00  0.00000000000E+00  0.11259235025E+03  0.11259235025E+03  0.00000000000E+00 0.  1.
         21   -1    0    0  501  503 -0.00000000000E+00 -0.00000000000E+00 -0.54200018871E+03  0.54200018871E+03  0.00000000000E+00 0. -1.
          6    2    1    2  501    0  0.10373601534E+03  0.14197182210E+03 -0.19758586055E+03  0.31640804395E+03  0.17365689977E+03 0.  0.
         24    2    3    3    0    0  0.13616151389E+03  0.14439900095E+03 -0.18025253226E+03  0.27926186752E+03  0.78135689187E+02 0.  0.
         -6    2    1    2    0  502 -0.10373601534E+03 -0.14197182210E+03 -0.23182197791E+03  0.33818449502E+03  0.17236636586E+03 0.  0.
        -24    2    5    5    0    0 -0.78709236982E+02 -0.33198448250E+02 -0.18208416646E+03  0.21589824730E+03  0.78486486465E+02 0.  0.
          5    1    3    3  501    0 -0.32425498550E+02 -0.24271788530E+01 -0.17333328288E+02  0.37146176424E+02  0.47000000000E+01 0. -1.
        -13    1    4    4    0    0  0.33689554356E+02  0.79715729442E+02 -0.44574460718E+02  0.97347142441E+02  0.00000000000E+00 0.  1.
         14    1    4    4    0    0  0.10247195953E+03  0.64683271513E+02 -0.13567807154E+03  0.18191472508E+03  0.00000000000E+00 0. -1.
         -5    1    5    5    0  502 -0.25026778358E+02 -0.10877337385E+03 -0.49737811446E+02  0.12228624772E+03  0.47000000000E+01 0.  1.
         13    1    6    6    0    0 -0.41179771854E+02 -0.29322550782E+02 -0.29099354966E+02  0.58329735588E+02  0.00000000000E+00 0. -1.
        -14    1    6    6    0    0 -0.37529465128E+02 -0.38758974681E+01 -0.15298481150E+03  0.15756851171E+03  0.00000000000E+00 0.  1.
<mgrwt>
<rscale>  2 0.24690470E+03</rscale>
<asrwt>0</asrwt>
<pdfrwt beam="1">  1       21 0.17321900E-01 0.24713130E+03</pdfrwt>
<pdfrwt beam="2">  1       21 0.83384645E-01 0.24713130E+03</pdfrwt>
<totfact> 0.36731368E+04</totfact>
</mgrwt>
</event>
<event>
12    1  0.1050690E-001  0.1767205E+03  0.7546771E-02  0.1171050E+00
         21   -1    0    0  501  502  0.00000000000E+00  0.00000000000E+00  0.66913410319E+03  0.66913410319E+03  0.00000000000E+00 0.  1.
         21   -1    0    0  502  503 -0.00000000000E+00 -0.00000000000E+00 -0.46972298885E+02  0.46972298885E+02  0.00000000000E+00 0.  1.
         -6    2    1    2    0  503  0.28300425319E+02 -0.21537229467E+02  0.34128465517E+03  0.38425989064E+03  0.17296150259E+03 0.  0.
        -24    2    3    3    0    0  0.51480897103E+02 -0.60852802725E+02  0.17002146832E+03  0.20695727436E+03  0.87009581969E+02 0.  0.
          6    2    1    2  501    0 -0.28300425319E+02  0.21537229467E+02  0.28087714914E+03  0.33184651143E+03  0.17310507767E+03 0.  0.
         24    2    5    5    0    0  0.30643758909E+02  0.52040832918E+02  0.21952201022E+03  0.24133999372E+03  0.80048681086E+02 0.  0.
          5    1    5    5  501    0 -0.58944184227E+02 -0.30503603451E+02  0.61355138913E+02  0.90506517715E+02  0.47000000000E+01 0. -1.
        -11    1    6    6    0    0 -0.23409951231E+02  0.37656409349E+02  0.96860232023E+02  0.10652668928E+03  0.00000000000E+00 0.  1.
         12    1    6    6    0    0  0.54053710140E+02  0.14384423568E+02  0.12266177820E+03  0.13481330444E+03  0.00000000000E+00 0. -1.
         -5    1    3    3    0  503 -0.23180471784E+02  0.39315573258E+02  0.17126318685E+03  0.17730261628E+03  0.47000000000E+01 0.  1.
         13    1    4    4    0    0  0.36276524410E+02 -0.31478365425E+02  0.16696990114E+03  0.17374067342E+03  0.00000000000E+00 0. -1.
        -14    1    4    4    0    0  0.15204372693E+02 -0.29374437299E+02  0.30515671775E+01  0.33216600938E+02  0.00000000000E+00 0.  1.
<mgrwt>
<rscale>  2 0.17668533E+03</rscale>
<asrwt>0</asrwt>
<pdfrwt beam="1">  1       21 0.10294370E+00 0.17672050E+03</pdfrwt>
<pdfrwt beam="2">  1       21 0.72265080E-02 0.17672050E+03</pdfrwt>
<totfact> 0.11038307E+05</totfact>
</mgrwt>
</event>
<event>
12    1  0.1050690E-001  0.2367041E+03  0.7546771E-02  0.1122280E+00
         21   -1    0    0  503  502  0.00000000000E+00  0.00000000000E+00  0.35561442384E+03  0.35561442384E+03  0.00000000000E+00 0. -1.
         21   -1    0    0  501  503 -0.00000000000E+00 -0.00000000000E+00 -0.15692816602E+03  0.15692816602E+03  0.00000000000E+00 0. -1.
          6    2    1    2  501    0 -0.15882057618E+03  0.13901743263E+02  0.11249909952E+03  0.26063577531E+03  0.17279388328E+03 0.  0.
         24    2    3    3    0    0 -0.33269374409E+02  0.52460584605E+02  0.54564651863E+02  0.11700994638E+03  0.82795302455E+02 0.  0.
         -6    2    1    2    0  502  0.15882057618E+03 -0.13901743263E+02  0.86187158303E+02  0.25190681455E+03  0.17496166174E+03 0.  0.
        -24    2    5    5    0    0  0.12279532737E+03 -0.74207741855E+02  0.48948873859E+02  0.17226127578E+03  0.81807539420E+02 0.  0.
          5    1    3    3  501    0 -0.12555120177E+03 -0.38558841342E+02  0.57934447656E+02  0.14362582893E+03  0.47000000000E+01 0. -1.
        -13    1    4    4    0    0 -0.80842945070E+01  0.52635285449E+02 -0.38556913779E+01  0.53391904330E+02  0.00000000000E+00 0.  1.
         14    1    4    4    0    0 -0.25185079902E+02 -0.17470084417E+00  0.58420343241E+02  0.63618042051E+02  0.00000000000E+00 0. -1.
         -5    1    5    5    0  502  0.36025248810E+02  0.60305998592E+02  0.37238284444E+02  0.79645538772E+02  0.47000000000E+01 0.  1.
         13    1    6    6    0    0  0.19030024544E+02  0.17506370352E+02  0.14119467435E+02  0.29461401828E+02  0.00000000000E+00 0. -1.
        -14    1    6    6    0    0  0.10376530282E+03 -0.91714112208E+02  0.34829406424E+02  0.14279987395E+03  0.00000000000E+00 0.  1.
<mgrwt>
<rscale>  2 0.23630361E+03</rscale>
<asrwt>0</asrwt>
<pdfrwt beam="1">  1       21 0.54709911E-01 0.23670407E+03</pdfrwt>
<pdfrwt beam="2">  1       21 0.24142795E-01 0.23670407E+03</pdfrwt>
<totfact> 0.50039652E+04</totfact>
</mgrwt>
</event>
<event>
12    1  0.1050690E-001  0.2013060E+03  0.7546771E-02  0.1148644E+00
         21   -1    0    0  501  502  0.00000000000E+00  0.00000000000E+00  0.78740553369E+03  0.78740553369E+03  0.00000000000E+00 0. -1.
         21   -1    0    0  502  503 -0.00000000000E+00 -0.00000000000E+00 -0.77138849400E+02  0.77138849400E+02  0.00000000000E+00 0. -1.
         -6    2    1    2    0  503  0.10121596043E+03  0.14820859142E+02  0.10573237919E+03  0.22737421303E+03  0.17336484139E+03 0.  0.
        -24    2    3    3    0    0  0.73747311755E+02  0.36329764251E+02  0.13779563693E+03  0.17975801667E+03  0.81035728164E+02 0.  0.
          6    2    1    2  501    0 -0.10121596043E+03 -0.14820859142E+02  0.60453430510E+03  0.63717017006E+03  0.17337753909E+03 0.  0.
         24    2    5    5    0    0 -0.20409110627E+02  0.46374209804E+01  0.11712768451E+03  0.14270513041E+03  0.78789734718E+02 0.  0.
          5    1    5    5  501    0 -0.80806849804E+02 -0.19458280122E+02  0.48740662059E+03  0.49446503965E+03  0.47000000000E+01 0. -1.
        -11    1    6    6    0    0 -0.11945815936E+02  0.28235690114E+02  0.93538887858E+01  0.32053891339E+02  0.00000000000E+00 0.  1.
         12    1    6    6    0    0 -0.84632946914E+01 -0.23598269134E+02  0.10777379573E+03  0.11065123907E+03  0.00000000000E+00 0. -1.
         -5    1    3    3    0  503  0.27468648676E+02 -0.21508905109E+02 -0.32063257737E+02  0.47616196360E+02  0.47000000000E+01 0.  1.
         13    1    4    4    0    0  0.83479354584E+02  0.27906172818E+02  0.74948488344E+02  0.11560637105E+03  0.00000000000E+00 0. -1.
        -14    1    4    4    0    0 -0.97320428285E+01  0.84235914330E+01  0.62847148582E+02  0.64151645615E+02  0.00000000000E+00 0.  1.
<mgrwt>
<rscale>  2 0.20130325E+03</rscale>
<asrwt>0</asrwt>
<pdfrwt beam="1">  1       21 0.12113931E+00 0.20130598E+03</pdfrwt>
<pdfrwt beam="2">  1       21 0.11867516E-01 0.20130598E+03</pdfrwt>
<totfact> 0.30720976E+04</totfact>
</mgrwt>
</event>
<event>
12    1  0.1050690E-001  0.1832130E+03  0.7546771E-02  0.1164739E+00
         21   -1    0    0  501  502  0.00000000000E+00  0.00000000000E+00  0.46622542263E+03  0.46622542263E+03  0.00000000000E+00 0.  1.
         21   -1    0    0  502  503 -0.00000000000E+00 -0.00000000000E+00 -0.98227251773E+02  0.98227251773E+02  0.00000000000E+00 0. -1.
         -6    2    1    2    0  503 -0.13245130226E+02 -0.60357769855E+02  0.38128344197E+02  0.18713841873E+03  0.17247760225E+03 0.  0.
        -24    2    3    3    0    0  0.56897425374E+02 -0.16224079246E+02 -0.38577407600E+01  0.94118624689E+02  0.73095113298E+02 0.  0.
          6    2    1    2  501    0  0.13245130226E+02  0.60357769855E+02  0.32986982666E+03  0.37731425567E+03  0.17243390368E+03 0.  0.
         24    2    5    5    0    0 -0.59267511690E+02  0.21714266327E+02  0.17581467969E+03  0.20265320704E+03  0.78570817895E+02 0.  0.
          5    1    5    5  501    0  0.72512641916E+02  0.38643503528E+02  0.15405514697E+03  0.17466104863E+03  0.47000000000E+01 0. -1.
        -11    1    6    6    0    0 -0.34402474558E+02 -0.81777431725E+01  0.15412778442E+03  0.15813215887E+03  0.00000000000E+00 0.  1.
         12    1    6    6    0    0 -0.24865037132E+02  0.29892009499E+02  0.21686895269E+02  0.44521048167E+02  0.00000000000E+00 0. -1.
         -5    1    3    3    0  503 -0.70142555601E+02 -0.44133690609E+02  0.41986084957E+02  0.93019794039E+02  0.47000000000E+01 0.  1.
         13    1    4    4    0    0  0.55096611777E+02 -0.16472141797E+02 -0.32072494922E+02  0.65845372010E+02  0.00000000000E+00 0. -1.
        -14    1    4    4    0    0  0.18008135976E+01  0.24806255137E+00  0.28214754162E+02  0.28273252679E+02  0.00000000000E+00 0.  1.
<mgrwt>
<rscale>  2 0.18320275E+03</rscale>
<asrwt>0</asrwt>
<pdfrwt beam="1">  1       21 0.71726987E-01 0.18321304E+03</pdfrwt>
<pdfrwt beam="2">  1       21 0.15111885E-01 0.18321304E+03</pdfrwt>
<totfact> 0.68230255E+04</totfact>
</mgrwt>
</event>
<event>
12    1  0.1050690E-001  0.2085017E+03  0.7546771E-02  0.1143762E+00
         21   -1    0    0  503  502  0.00000000000E+00  0.00000000000E+00  0.18833452501E+03  0.18833452501E+03  0.00000000000E+00 0.  1.
         21   -1    0    0  501  503 -0.00000000000E+00 -0.00000000000E+00 -0.12083394317E+04  0.12083394317E+04  0.00000000000E+00 0. -1.
          6    2    1    2  501    0  0.62144678880E+01 -0.11439553812E+03 -0.11409949254E+04  0.11598889434E+04  0.17420672344E+03 0.  0.
         24    2    3    3    0    0  0.55004854168E+02 -0.76355065653E+02 -0.46879907589E+03  0.48483566444E+03  0.80233521224E+02 0.  0.
         -6    2    1    2    0  502 -0.62144678880E+01  0.11439553812E+03  0.12099001873E+03  0.23678501328E+03  0.16823673537E+03 0.  0.
        -24    2    5    5    0    0 -0.65422835933E+02  0.71623966336E+02  0.74093231809E+02  0.14985724543E+03  0.86932427739E+02 0.  0.
          5    1    3    3  501    0 -0.48790386280E+02 -0.38040472471E+02 -0.67219584949E+03  0.67505327894E+03  0.47000000000E+01 0. -1.
        -13    1    4    4    0    0  0.46748027017E+02 -0.88295460685E+02 -0.45066596858E+03  0.46160728075E+03  0.00000000000E+00 0.  1.
         14    1    4    4    0    0  0.82568271513E+01  0.11940395032E+02 -0.18133107306E+02  0.23228383687E+02  0.00000000000E+00 0. -1.
         -5    1    5    5    0  502  0.59208368045E+02  0.42771571787E+02  0.46896786918E+02  0.86927767848E+02  0.47000000000E+01 0.  1.
         11    1    6    6    0    0  0.95962223208E+01 -0.35166524406E+01 -0.10085029308E+02  0.14358347515E+02  0.00000000000E+00 0. -1.
        -12    1    6    6    0    0 -0.75019058254E+02  0.75140618777E+02  0.84178261117E+02  0.13549889792E+03  0.00000000000E+00 0.  1.
<mgrwt>
<rscale>  2 0.20725003E+03</rscale>
<asrwt>0</asrwt>
<pdfrwt beam="1">  1       21 0.28974543E-01 0.20850166E+03</pdfrwt>
<pdfrwt beam="2">  1       21 0.18589837E+00 0.20850166E+03</pdfrwt>
<totfact> 0.18635081E+03</totfact>
</mgrwt>
</event>
<event>
12    1  0.1050690E-001  0.2123647E+03  0.7546771E-02  0.1140204E+00
         21   -1    0    0  503  502  0.00000000000E+00  0.00000000000E+00  0.33112756935E+03  0.33112756935E+03  0.00000000000E+00 0. -1.
         21   -1    0    0  501  503 -0.00000000000E+00 -0.00000000000E+00 -0.15158189783E+03  0.15158189783E+03  0.00000000000E+00 0. -1.
          6    2    1    2  501    0  0.12047651256E+03  0.58169856775E+01  0.84646378067E+01  0.21000546089E+03  0.17170386166E+03 0.  0.
         24    2    3    3    0    0  0.30401465215E+02  0.53438135447E+02  0.28880555362E+02  0.10598532943E+03  0.81356746301E+02 0.  0.
         -6    2    1    2    0  502 -0.12047651256E+03 -0.58169856775E+01  0.17108103371E+03  0.27270400630E+03  0.17478651994E+03 0.  0.
        -24    2    5    5    0    0 -0.56711059940E+02 -0.44614333000E+02  0.42680415739E+02  0.12411034626E+03  0.91515993859E+02 0.  0.
          5    1    3    3  501    0  0.90075047348E+02 -0.47621149769E+02 -0.20415917555E+02  0.10402013146E+03  0.47000000000E+01 0. -1.
        -13    1    4    4    0    0 -0.13359658174E+02 -0.37956734336E+01  0.30934582721E+02  0.33909231950E+02  0.00000000000E+00 0.  1.
         14    1    4    4    0    0  0.43761123389E+02  0.57233808880E+02 -0.20540273588E+01  0.72076097478E+02  0.00000000000E+00 0. -1.
         -5    1    5    5    0  502 -0.63765452623E+02  0.38797347322E+02  0.12840061797E+03  0.14859366004E+03  0.47000000000E+01 0.  1.
         11    1    6    6    0    0 -0.52463260584E+02  0.14886880738E+02  0.32818515907E+02  0.63648000091E+02  0.00000000000E+00 0. -1.
        -12    1    6    6    0    0 -0.42477993553E+01 -0.59501213738E+02  0.98618998314E+01  0.60462346166E+02  0.00000000000E+00 0.  1.
<mgrwt>
<rscale>  2 0.21172936E+03</rscale>
<asrwt>0</asrwt>
<pdfrwt beam="1">  1       21 0.50942703E-01 0.21236467E+03</pdfrwt>
<pdfrwt beam="2">  1       21 0.23320292E-01 0.21236467E+03</pdfrwt>
<totfact> 0.62794435E+04</totfact>
</mgrwt>
</event>
<event>
12    1  0.1050690E-001  0.3161627E+03  0.7546771E-02  0.1078128E+00
         21   -1    0    0  501  502  0.00000000000E+00  0.00000000000E+00  0.77178008952E+02  0.77178008952E+02  0.00000000000E+00 0.  1.
         21   -1    0    0  502  503 -0.00000000000E+00 -0.00000000000E+00 -0.14981606050E+04  0.14981606050E+04  0.00000000000E+00 0. -1.
         -6    2    1    2    0  503  0.86164288268E+02 -0.24641795819E+03 -0.10114703860E+04  0.10579808315E+04  0.16764546894E+03 0.  0.
        -24    2    3    3    0    0  0.19478191395E+02 -0.21936115486E+03 -0.69667220195E+03  0.73502713073E+03  0.80087513007E+02 0.  0.
          6    2    1    2  501    0 -0.86164288268E+02  0.24641795819E+03 -0.40951221000E+03  0.51735778246E+03  0.17836123525E+03 0.  0.
         24    2    5    5    0    0 -0.85695492416E+02  0.25102204350E+03 -0.42099616607E+03  0.50411434567E+03  0.80856155725E+02 0.  0.
          5    1    5    5  501    0 -0.46879585223E+00 -0.46040853077E+01  0.11483956070E+02  0.13243436793E+02  0.47000000000E+01 0. -1.
        -13    1    6    6    0    0 -0.23325329351E+02  0.51896006434E+02 -0.16088290787E+03  0.17064752127E+03  0.00000000000E+00 0.  1.
         14    1    6    6    0    0 -0.62370163065E+02  0.19912603707E+03 -0.26011325821E+03  0.33346682440E+03  0.00000000000E+00 0. -1.
         -5    1    3    3    0  503  0.66686096873E+02 -0.27056803329E+02 -0.31479818406E+03  0.32295370072E+03  0.47000000000E+01 0.  1.
         11    1    4    4    0    0  0.48692783576E+02 -0.12070251598E+03 -0.42684474806E+03  0.44624715515E+03  0.00000000000E+00 0. -1.
        -12    1    4    4    0    0 -0.29214592181E+02 -0.98658638880E+02 -0.26982745389E+03  0.28877997558E+03  0.00000000000E+00 0.  1.
<mgrwt>
<rscale>  2 0.31467239E+03</rscale>
<asrwt>0</asrwt>
<pdfrwt beam="1">  1       21 0.11873540E-01 0.31616266E+03</pdfrwt>
<pdfrwt beam="2">  1       21 0.23048624E+00 0.31616266E+03</pdfrwt>
<totfact> 0.47196082E+03</totfact>
</mgrwt>
</event>
<event>
12    1  0.1050690E-001  0.4364680E+03  0.7546771E-02  0.1032020E+00
         21   -1    0    0  501  502  0.00000000000E+00  0.00000000000E+00  0.68805581009E+03  0.68805581009E+03  0.00000000000E+00 0. -1.
         21   -1    0    0  502  503 -0.00000000000E+00 -0.00000000000E+00 -0.63912525954E+03  0.63912525954E+03  0.00000000000E+00 0.  1.
         -6    2    1    2    0  503 -0.28105075697E+03  0.28292563239E+03 -0.47612745508E+03  0.64591148260E+03  0.17739179355E+03 0.  0.
        -24    2    3    3    0    0 -0.11482641306E+03  0.19066987958E+03 -0.19420578433E+03  0.30584740795E+03  0.79288348222E+02 0.  0.
          6    2    1    2  501    0  0.28105075697E+03 -0.28292563239E+03  0.52505800563E+03  0.68126958703E+03  0.17148148436E+03 0.  0.
         24    2    5    5    0    0  0.17225490046E+03 -0.82637194632E+02  0.23794041143E+03  0.31464907534E+03  0.76731639834E+02 0.  0.
          5    1    5    5  501    0  0.10879585651E+03 -0.20028843776E+03  0.28711759420E+03  0.36662051169E+03  0.47000000000E+01 0. -1.
        -13    1    6    6    0    0  0.12912844054E+03 -0.37825161309E+02  0.11553836246E+03  0.17735278454E+03  0.00000000000E+00 0.  1.
         14    1    6    6    0    0  0.43126459923E+02 -0.44812033323E+02  0.12240204897E+03  0.13729629080E+03  0.00000000000E+00 0. -1.
         -5    1    3    3    0  503 -0.16622434390E+03  0.92255752811E+02 -0.28192167074E+03  0.34006407465E+03  0.47000000000E+01 0.  1.
         11    1    4    4    0    0 -0.12529090877E+03  0.16235047602E+03 -0.17817212803E+03  0.27166301936E+03  0.00000000000E+00 0. -1.
        -12    1    4    4    0    0  0.10464495705E+02  0.28319403560E+02 -0.16033656304E+02  0.34184388583E+02  0.00000000000E+00 0.  1.
<mgrwt>
<rscale>  2 0.43587463E+03</rscale>
<asrwt>0</asrwt>
<pdfrwt beam="1">  1       21 0.10585474E+00 0.43646797E+03</pdfrwt>
<pdfrwt beam="2">  1       21 0.98326962E-01 0.43646797E+03</pdfrwt>
<totfact> 0.51570884E+02</totfact>
</mgrwt>
</event>
<event>
12    1  0.1050690E-001  0.2068299E+03  0.7546771E-02  0.1144248E+00
         21   -1    0    0  503  502  0.00000000000E+00  0.00000000000E+00  0.28999856212E+03  0.28999856212E+03  0.00000000000E+00 0.  1.
         21   -1    0    0  501  503 -0.00000000000E+00 -0.00000000000E+00 -0.18090130065E+03  0.18090130065E+03  0.00000000000E+00 0. -1.
          6    2    1    2  501    0  0.46747960430E+01 -0.11368475409E+03 -0.47463215821E+02  0.21149711490E+03  0.17184934020E+03 0.  0.
         24    2    3    3    0    0  0.10362465375E+02 -0.13371631825E+03  0.38764688597E+01  0.15589615836E+03  0.79379787891E+02 0.  0.
         -6    2    1    2    0  502 -0.46747960430E+01  0.11368475409E+03  0.15656047729E+03  0.25940274786E+03  0.17272094696E+03 0.  0.
        -24    2    5    5    0    0 -0.55887445389E+01 -0.82534952541E+01  0.87262404762E+02  0.11906713296E+03  0.80392167629E+02 0.  0.
          5    1    3    3  501    0 -0.56876693324E+01  0.20031564163E+02 -0.51339684681E+02  0.55600956542E+02  0.47000000000E+01 0. -1.
        -11    1    4    4    0    0 -0.25933519518E+02 -0.12656808700E+02 -0.46313764646E+01  0.29226561361E+02  0.00000000000E+00 0.  1.
         12    1    4    4    0    0  0.36295984893E+02 -0.12105950955E+03  0.85078453243E+01  0.12666959700E+03  0.00000000000E+00 0. -1.
         -5    1    5    5    0  502  0.91394849591E+00  0.12193824934E+03  0.69298072528E+02  0.14033561490E+03  0.47000000000E+01 0.  1.
         13    1    6    6    0    0  0.17374282189E+02  0.21961735743E+02  0.49638720151E+01  0.28439823203E+02  0.00000000000E+00 0. -1.
        -14    1    6    6    0    0 -0.22963026728E+02 -0.30215230997E+02  0.82298532747E+02  0.90627309753E+02  0.00000000000E+00 0.  1.
<mgrwt>
<rscale>  2 0.20664782E+03</rscale>
<asrwt>0</asrwt>
<pdfrwt beam="1">  1       21 0.44615163E-01 0.20682989E+03</pdfrwt>
<pdfrwt beam="2">  1       21 0.27830969E-01 0.20682989E+03</pdfrwt>
<totfact> 0.59060939E+04</totfact>
</mgrwt>
</event>
<event>
12    1  0.1050690E-001  0.2315520E+03  0.7546771E-02  0.1125833E+00
         21   -1    0    0  501  502  0.00000000000E+00  0.00000000000E+00  0.10539017014E+03  0.10539017014E+03  0.00000000000E+00 0.  1.
         21   -1    0    0  502  503 -0.00000000000E+00 -0.00000000000E+00 -0.55644362064E+03  0.55644362064E+03  0.00000000000E+00 0.  1.
         -6    2    1    2    0  503 -0.53394789450E+02  0.14446461713E+03 -0.32663966878E+03  0.40038705792E+03  0.17290255575E+03 0.  0.
        -24    2    3    3    0    0 -0.33091052546E+02  0.11222596967E+02 -0.77025740950E+02  0.11667086057E+03  0.80362680996E+02 0.  0.
          6    2    1    2  501    0  0.53394789450E+02 -0.14446461713E+03 -0.12441378173E+03  0.26144673286E+03  0.17074711095E+03 0.  0.
         24    2    5    5    0    0  0.56884650135E+02 -0.24995143754E+02 -0.24379140073E+02  0.10551676869E+03  0.81724080733E+02 0.  0.
          5    1    5    5  501    0 -0.34898606854E+01 -0.11946947337E+03 -0.10003464165E+03  0.15592996417E+03  0.47000000000E+01 0. -1.
        -13    1    6    6    0    0  0.12420896983E+02  0.18823655990E+02 -0.35548331799E+02  0.42098605682E+02  0.00000000000E+00 0.  1.
         14    1    6    6    0    0  0.44463753152E+02 -0.43818799744E+02  0.11169191726E+02  0.63418163007E+02  0.00000000000E+00 0. -1.
         -5    1    3    3    0  503 -0.20303736903E+02  0.13324202016E+03 -0.24961392783E+03  0.28371619734E+03  0.47000000000E+01 0.  1.
         13    1    4    4    0    0  0.18080508172E+02  0.26054548244E+02 -0.15548476122E+02  0.35319957102E+02  0.00000000000E+00 0. -1.
        -14    1    4    4    0    0 -0.51171560718E+02 -0.14831951277E+02 -0.61477264827E+02  0.81350903472E+02  0.00000000000E+00 0.  1.
<mgrwt>
<rscale>  2 0.23114968E+03</rscale>
<asrwt>0</asrwt>
<pdfrwt beam="1">  1       21 0.16213872E-01 0.23155199E+03</pdfrwt>
<pdfrwt beam="2">  1       21 0.85606711E-01 0.23155199E+03</pdfrwt>
<totfact> 0.39340174E+04</totfact>
</mgrwt>
</event>
<event>
12    1  0.1050690E-001  0.1782428E+03  0.7546771E-02  0.1169725E+00
         21   -1    0    0  501  502  0.00000000000E+00  0.00000000000E+00  0.87075191033E+02  0.87075191033E+02  0.00000000000E+00 0.  1.
         21   -1    0    0  502  503 -0.00000000000E+00 -0.00000000000E+00 -0.44746337882E+03  0.44746337882E+03  0.00000000000E+00 0.  1.
         -6    2    1    2    0  503 -0.39307904590E+02  0.15816484582E+01 -0.29588253387E+03  0.34498257716E+03  0.17297078285E+03 0.  0.
        -24    2    3    3    0    0 -0.20837397417E+02  0.54197356269E+02 -0.98330940661E+02  0.13965772644E+03  0.80397488175E+02 0.  0.
          6    2    1    2  501    0  0.39307904590E+02 -0.15816484582E+01 -0.64505653916E+02  0.18955599269E+03  0.17384729507E+03 0.  0.
         24    2    5    5    0    0  0.96959882135E+01  0.61221959150E+01 -0.10869806695E+03  0.13559976803E+03  0.80252936780E+02 0.  0.
          5    1    5    5  501    0  0.29611916377E+02 -0.77038443732E+01  0.44192413035E+02  0.53956224660E+02  0.47000000000E+01 0. -1.
        -13    1    6    6    0    0  0.29854780830E+02  0.28219640592E+02 -0.28482858261E+02  0.49989291536E+02  0.00000000000E+00 0.  1.
         14    1    6    6    0    0 -0.20158792616E+02 -0.22097444677E+02 -0.80215208690E+02  0.85610476498E+02  0.00000000000E+00 0. -1.
         -5    1    3    3    0  503 -0.18470507173E+02 -0.52615707811E+02 -0.19755159321E+03  0.20532485072E+03  0.47000000000E+01 0.  1.
         13    1    4    4    0    0 -0.21313853840E+02  0.74515602397E+02 -0.67762357233E+02  0.10294946539E+03  0.00000000000E+00 0. -1.
        -14    1    4    4    0    0  0.47645642264E+00 -0.20318246128E+02 -0.30568583428E+02  0.36708261049E+02  0.00000000000E+00 0.  1.
<mgrwt>
<rscale>  2 0.17802871E+03</rscale>
<asrwt>0</asrwt>
<pdfrwt beam="1">  1       21 0.13396183E-01 0.17824280E+03</pdfrwt>
<pdfrwt beam="2">  1       21 0.68840521E-01 0.17824280E+03</pdfrwt>
<totfact> 0.93097707E+04</totfact>
</mgrwt>
</event>
<event>
12    1  0.1050690E-001  0.2131803E+03  0.7546771E-02  0.1139353E+00
         21   -1    0    0  503  502  0.00000000000E+00  0.00000000000E+00  0.35572685255E+03  0.35572685255E+03  0.00000000000E+00 0.  1.
         21   -1    0    0  501  503 -0.00000000000E+00 -0.00000000000E+00 -0.15448322809E+03  0.15448322809E+03  0.00000000000E+00 0.  1.
          6    2    1    2  501    0  0.97650083571E+01  0.12182019071E+03  0.20815230128E+03  0.29691790903E+03  0.17290850160E+03 0.  0.
         24    2    3    3    0    0  0.65241757132E+02  0.81768261734E+02  0.17852764136E+03  0.22220822328E+03  0.81005186656E+02 0.  0.
         -6    2    1    2    0  502 -0.97650083571E+01 -0.12182019071E+03 -0.69086768174E+01  0.21329217162E+03  0.17467199662E+03 0.  0.
        -24    2    5    5    0    0 -0.58336219248E+02 -0.19428583587E+02  0.13715417726E+01  0.99565060702E+02  0.78299015636E+02 0.  0.
          5    1    3    3  501    0 -0.55476748775E+02  0.40051928976E+02  0.29624659918E+02  0.74709685748E+02  0.47000000000E+01 0. -1.
        -11    1    4    4    0    0  0.38565455288E+02  0.52907094710E+02  0.36741395620E+02  0.75075862728E+02  0.00000000000E+00 0.  1.
         12    1    4    4    0    0  0.26676301844E+02  0.28861167024E+02  0.14178624574E+03  0.14713236056E+03  0.00000000000E+00 0. -1.
         -5    1    5    5    0  502  0.48571210891E+02 -0.10239160712E+03 -0.82802185900E+01  0.11372711091E+03  0.47000000000E+01 0.  1.
         13    1    6    6    0    0 -0.18611971570E+02  0.21353812971E+02 -0.24103440567E+02  0.37193637376E+02  0.00000000000E+00 0. -1.
        -14    1    6    6    0    0 -0.39724247678E+02 -0.40782396558E+02  0.25474982339E+02  0.62371423326E+02  0.00000000000E+00 0.  1.
<mgrwt>
<rscale>  2 0.21281870E+03</rscale>
<asrwt>0</asrwt>
<pdfrwt beam="1">  1       21 0.54727208E-01 0.21318025E+03</pdfrwt>
<pdfrwt beam="2">  1       21 0.23766651E-01 0.21318025E+03</pdfrwt>
<totfact> 0.52060696E+04</totfact>
</mgrwt>
</event>
<event>
12    1  0.1050690E-001  0.2154096E+03  0.7546771E-02  0.1137511E+00
         21   -1    0    0  503  502  0.00000000000E+00  0.00000000000E+00  0.11390383454E+03  0.11390383454E+03  0.00000000000E+00 0. -1.
         21   -1    0    0  501  503 -0.00000000000E+00 -0.00000000000E+00 -0.42664211733E+03  0.42664211733E+03  0.00000000000E+00 0. -1.
          6    2    1    2  501    0  0.11784709425E+03  0.48503756117E+02 -0.21637005755E+03  0.30531504745E+03  0.17366843240E+03 0.  0.
         24    2    3    3    0    0  0.94000356546E+02 -0.34830267578E+02 -0.13509482969E+03  0.18639919877E+03  0.80279721726E+02 0.  0.
         -6    2    1    2    0  502 -0.11784709425E+03 -0.48503756117E+02 -0.96368225235E+02  0.23523090443E+03  0.17264469752E+03 0.  0.
        -24    2    5    5    0    0 -0.90108867109E+02 -0.81297480201E+02 -0.18447986277E+02  0.14613269331E+03  0.79281445739E+02 0.  0.
          5    1    3    3  501    0  0.23846737701E+02  0.83334023695E+02 -0.81275227856E+02  0.11891584868E+03  0.47000000000E+01 0. -1.
        -11    1    4    4    0    0  0.22896832021E+01 -0.36560169885E+02 -0.35799363723E+02  0.51219948400E+02  0.00000000000E+00 0.  1.
         12    1    4    4    0    0  0.91710673344E+02  0.17299023067E+01 -0.99295465970E+02  0.13517925037E+03  0.00000000000E+00 0. -1.
         -5    1    5    5    0  502 -0.27738227139E+02  0.32793724084E+02 -0.77920238959E+02  0.89098211113E+02  0.47000000000E+01 0.  1.
         13    1    6    6    0    0 -0.44559496507E+02  0.55099317909E+01 -0.17235062524E+02  0.48093195542E+02  0.00000000000E+00 0. -1.
        -14    1    6    6    0    0 -0.45549370602E+02 -0.86807411992E+02 -0.12129237529E+01  0.98039497770E+02  0.00000000000E+00 0.  1.
<mgrwt>
<rscale>  2 0.21520313E+03</rscale>
<asrwt>0</asrwt>
<pdfrwt beam="1">  1       21 0.17523667E-01 0.21540956E+03</pdfrwt>
<pdfrwt beam="2">  1       21 0.65637248E-01 0.21540956E+03</pdfrwt>
<totfact> 0.62293178E+04</totfact>
</mgrwt>
</event>
<event>
12    1  0.1050690E-001  0.2128815E+03  0.7546771E-02  0.1139737E+00
         21   -1    0    0  503  502  0.00000000000E+00  0.00000000000E+00  0.99421958812E+02  0.99421958812E+02  0.00000000000E+00 0.  1.
         21   -1    0    0  501  503 -0.00000000000E+00 -0.00000000000E+00 -0.49178274660E+03  0.49178274660E+03  0.00000000000E+00 0.  1.
          6    2    1    2  501    0  0.10973212961E+03 -0.46676298442E+02 -0.28215045258E+03  0.35345070195E+03  0.17634824555E+03 0.  0.
         24    2    3    3    0    0  0.66627815308E+02 -0.87895525900E+02 -0.25048086513E+03  0.28575979124E+03  0.82177279365E+02 0.  0.
         -6    2    1    2    0  502 -0.10973212961E+03  0.46676298442E+02 -0.11021033521E+03  0.23775400346E+03  0.17366873948E+03 0.  0.
        -24    2    5    5    0    0 -0.12975817674E+03 -0.63104338310E+01 -0.75999291532E+02  0.17141305178E+03  0.82033749172E+02 0.  0.
          5    1    3    3  501    0  0.43104314305E+02  0.41219227458E+02 -0.31669587452E+02  0.67690910714E+02  0.47000000000E+01 0. -1.
        -11    1    4    4    0    0  0.77791993097E+02 -0.51476317654E+02 -0.13448296022E+03  0.16366756569E+03  0.00000000000E+00 0.  1.
         12    1    4    4    0    0 -0.11164177789E+02 -0.36419208246E+02 -0.11599790491E+03  0.12209222554E+03  0.00000000000E+00 0. -1.
         -5    1    5    5    0  502  0.20026047125E+02  0.52986732273E+02 -0.34211043674E+02  0.66340951679E+02  0.47000000000E+01 0.  1.
         11    1    6    6    0    0  0.74433587214E+01 -0.67468501473E+01 -0.21596281370E+02  0.23818542041E+02  0.00000000000E+00 0. -1.
        -12    1    6    6    0    0 -0.13720153546E+03  0.43641631624E+00 -0.54403010162E+02  0.14759450974E+03  0.00000000000E+00 0.  1.
<mgrwt>
<rscale>  2 0.21232572E+03</rscale>
<asrwt>0</asrwt>
<pdfrwt beam="1">  1       21 0.15295686E-01 0.21288147E+03</pdfrwt>
<pdfrwt beam="2">  1       21 0.75658885E-01 0.21288147E+03</pdfrwt>
<totfact> 0.58464475E+04</totfact>
</mgrwt>
</event>
<event>
11    1  0.1050690E-001  0.2708544E+03  0.7546771E-02  0.1100953E+00
         21   -1    0    0  501  502  0.00000000000E+00  0.00000000000E+00  0.96241915154E+02  0.96241915154E+02  0.00000000000E+00 0.  1.
         21   -1    0    0  502  503 -0.00000000000E+00 -0.00000000000E+00 -0.80403406904E+03  0.80403406904E+03  0.00000000000E+00 0. -1.
         -6    2    1    2    0  503 -0.97249613263E+02 -0.18456031297E+03 -0.45962925365E+03  0.53292471939E+03  0.17096698314E+03 0.  0.
        -24    2    3    3    0    0 -0.53578397168E+02 -0.10794313144E+03 -0.39902958342E+03  0.42581833465E+03  0.87030347645E+02 0.  0.
          6    2    1    2  501    0  0.97249613263E+02  0.18456031297E+03 -0.24816290023E+03  0.36735126480E+03  0.17274874904E+03 0.  0.
          5    1    5    5  501    0 -0.17396234089E+02  0.99207373388E+02 -0.34147778479E+02  0.10645605981E+03  0.47000000000E+01 0. -1.
        -11    1    5    5    0    0  0.92786400043E+02  0.50827435301E+02 -0.17440349284E+03  0.20398363299E+03  0.00000000000E+00 0.  1.
         12    1    5    5    0    0  0.21859447309E+02  0.34525504281E+02 -0.39611628917E+02  0.56911572004E+02  0.00000000000E+00 0. -1.
         -5    1    3    3    0  503 -0.43671216095E+02 -0.76617181527E+02 -0.60599670230E+02  0.10710638474E+03  0.47000000000E+01 0.  1.
         11    1    4    4    0    0 -0.46854662555E+02 -0.53552715359E+02 -0.10574301865E+03  0.12745524202E+03  0.00000000000E+00 0. -1.
        -12    1    4    4    0    0 -0.67237346130E+01 -0.54390416085E+02 -0.29328656477E+03  0.29836309263E+03  0.00000000000E+00 0.  1.
<mgrwt>
<rscale>  2 0.27057077E+03</rscale>
<asrwt>0</asrwt>
<pdfrwt beam="1">  1       21 0.14806448E-01 0.27085444E+03</pdfrwt>
<pdfrwt beam="2">  1       21 0.12369755E+00 0.27085444E+03</pdfrwt>
<totfact> 0.18820021E+04</totfact>
</mgrwt>
</event>
<event>
12    1  0.1050690E-001  0.1959061E+03  0.7546771E-02  0.1153442E+00
         21   -1    0    0  501  502  0.00000000000E+00  0.00000000000E+00  0.22301138958E+03  0.22301138958E+03  0.00000000000E+00 0.  1.
         21   -1    0    0  502  503 -0.00000000000E+00 -0.00000000000E+00 -0.22001902907E+03  0.22001902907E+03  0.00000000000E+00 0.  1.
         -6    2    1    2    0  503 -0.92370762394E+02  0.26743790909E+00 -0.10276217354E+03  0.22122216926E+03  0.17276213298E+03 0.  0.
        -24    2    3    3    0    0 -0.51324558028E+02  0.43112275936E+01  0.11263470312E+02  0.99875226222E+02  0.84825692507E+02 0.  0.
          6    2    1    2  501    0  0.92370762394E+02 -0.26743790909E+00  0.10575453405E+03  0.22180824939E+03  0.17170453914E+03 0.  0.
         24    2    5    5    0    0  0.11271139589E+03  0.43905342760E+02  0.73197196697E+02  0.16309669910E+03  0.81309075538E+02 0.  0.
          5    1    5    5  501    0 -0.20340633498E+02 -0.44172780669E+02  0.32557337349E+02  0.58711550298E+02  0.47000000000E+01 0. -1.
        -11    1    6    6    0    0  0.37902148642E+02  0.43797235046E+01 -0.14890303267E+02  0.40957001612E+02  0.00000000000E+00 0.  1.
         12    1    6    6    0    0  0.74809247251E+02  0.39525619255E+02  0.88087499963E+02  0.12213969748E+03  0.00000000000E+00 0. -1.
         -5    1    3    3    0  503 -0.41046204366E+02 -0.40437896845E+01 -0.11402564385E+03  0.12134694304E+03  0.47000000000E+01 0.  1.
         11    1    4    4    0    0 -0.43916165500E+01 -0.33385948664E+02  0.19818156181E+02  0.39072588582E+02  0.00000000000E+00 0. -1.
        -12    1    4    4    0    0 -0.46932941478E+02  0.37697176258E+02 -0.85546858691E+01  0.60802637639E+02  0.00000000000E+00 0.  1.
<mgrwt>
<rscale>  2 0.19567264E+03</rscale>
<asrwt>0</asrwt>
<pdfrwt beam="1">  1       21 0.34309445E-01 0.19590606E+03</pdfrwt>
<pdfrwt beam="2">  1       21 0.33849081E-01 0.19590606E+03</pdfrwt>
<totfact> 0.68736084E+04</totfact>
</mgrwt>
</event>
<event>
12    1  0.1050690E-001  0.1811870E+03  0.7546771E-02  0.1166944E+00
         21   -1    0    0  503  502  0.00000000000E+00  0.00000000000E+00  0.13220248088E+03  0.13220248088E+03  0.00000000000E+00 0. -1.
         21   -1    0    0  501  503 -0.00000000000E+00 -0.00000000000E+00 -0.24673570319E+03  0.24673570319E+03  0.00000000000E+00 0. -1.
          6    2    1    2  501    0 -0.45879002790E+02 -0.21121093445E+01 -0.59675056695E+02  0.19076121640E+03  0.17526946508E+03 0.  0.
         24    2    3    3    0    0 -0.88586535391E+02 -0.20078092999E+02 -0.73040498873E+02  0.14231088148E+03  0.81650281330E+02 0.  0.
         -6    2    1    2    0  502  0.45879002790E+02  0.21121093445E+01 -0.54858165619E+02  0.18817696767E+03  0.17404542201E+03 0.  0.
        -24    2    5    5    0    0 -0.42917646106E+01 -0.60764909688E+02 -0.26609829795E+02  0.10279146597E+03  0.78404138546E+02 0.  0.
          5    1    3    3  501    0  0.42707532601E+02  0.17965983654E+02  0.13365442178E+02  0.48450334923E+02  0.47000000000E+01 0. -1.
        -11    1    4    4    0    0  0.15570640694E+02  0.11220206019E+01 -0.12401890800E+02  0.19937669805E+02  0.00000000000E+00 0.  1.
         12    1    4    4    0    0 -0.10415717609E+03 -0.21200113600E+02 -0.60638608074E+02  0.12237321168E+03  0.00000000000E+00 0. -1.
         -5    1    5    5    0  502  0.50170767401E+02  0.62877019033E+02 -0.28248335824E+02  0.85385501702E+02  0.47000000000E+01 0.  1.
         13    1    6    6    0    0  0.20801094042E+02  0.10287564490E+02 -0.10807441516E+01  0.23231175269E+02  0.00000000000E+00 0. -1.
        -14    1    6    6    0    0 -0.25092858652E+02 -0.71052474179E+02 -0.25529085644E+02  0.79560290699E+02  0.00000000000E+00 0.  1.
<mgrwt>
<rscale>  2 0.18089032E+03</rscale>
<asrwt>0</asrwt>
<pdfrwt beam="1">  1       21 0.20338844E-01 0.18118700E+03</pdfrwt>
<pdfrwt beam="2">  1       21 0.37959338E-01 0.18118700E+03</pdfrwt>
<totfact> 0.15026927E+05</totfact>
</mgrwt>
</event>
<event>
12    1  0.1050690E-001  0.1750868E+03  0.7546771E-02  0.1173056E+00
         21   -1    0    0  503  502  0.00000000000E+00  0.00000000000E+00  0.14273101861E+03  0.14273101861E+03  0.00000000000E+00 0.  1.
         21   -1    0    0  501  503 -0.00000000000E+00 -0.00000000000E+00 -0.22785273125E+03  0.22785273125E+03  0.00000000000E+00 0.  1.
          6    2    1    2  501    0  0.25232244116E+02 -0.13921018968E+02 -0.90402434552E+02  0.19704815250E+03  0.17269890943E+03 0.  0.
         24    2    3    3    0    0  0.59696251472E+02 -0.13486768242E+02 -0.12080573926E+03  0.15084850625E+03  0.66450807692E+02 0.  0.
         -6    2    1    2    0  502 -0.25232244116E+02  0.13921018968E+02  0.52807219101E+01  0.17353559736E+03  0.17104460417E+03 0.  0.
        -24    2    5    5    0    0 -0.32905570278E+02 -0.33070361306E+02 -0.46824171388E+02  0.10279607757E+03  0.78728045734E+02 0.  0.
          5    1    3    3  501    0 -0.34464007357E+02 -0.43425072651E+00  0.30403304704E+02  0.46199646251E+02  0.47000000000E+01 0. -1.
        -13    1    4    4    0    0  0.15879755151E+02 -0.29811574390E+02 -0.18847949279E+02  0.38679992028E+02  0.00000000000E+00 0.  1.
         14    1    4    4    0    0  0.43816496322E+02  0.16324806148E+02 -0.10195778998E+03  0.11216851422E+03  0.00000000000E+00 0. -1.
         -5    1    5    5    0  502  0.76733261623E+01  0.46991380274E+02  0.52104893298E+02  0.70739519790E+02  0.47000000000E+01 0.  1.
         11    1    6    6    0    0 -0.74793398327E+01 -0.24057468283E+02  0.19067926804E+02  0.31595698079E+02  0.00000000000E+00 0. -1.
        -12    1    6    6    0    0 -0.25426230445E+02 -0.90128930234E+01 -0.65892098192E+02  0.71200379489E+02  0.00000000000E+00 0.  1.
<mgrwt>
<rscale>  2 0.17467745E+03</rscale>
<asrwt>0</asrwt>
<pdfrwt beam="1">  1       21 0.21958618E-01 0.17508676E+03</pdfrwt>
<pdfrwt beam="2">  1       21 0.35054266E-01 0.17508676E+03</pdfrwt>
<totfact> 0.15283676E+05</totfact>
</mgrwt>
</event>
<event>
12    1  0.1050690E-001  0.1931094E+03  0.7546771E-02  0.1156787E+00
         21   -1    0    0  503  502  0.00000000000E+00  0.00000000000E+00  0.21008445443E+03  0.21008445443E+03  0.00000000000E+00 0. -1.
         21   -1    0    0  501  503 -0.00000000000E+00 -0.00000000000E+00 -0.30129226179E+03  0.30129226179E+03  0.00000000000E+00 0.  1.
          6    2    1    2  501    0  0.36088175158E+02 -0.67340101913E+02  0.12088662933E+03  0.22782632682E+03  0.17735335443E+03 0.  0.
         24    2    3    3    0    0  0.92635330307E+02 -0.43398085735E+02  0.68756391532E+02  0.14713895118E+03  0.80360010650E+02 0.  0.
         -6    2    1    2    0  502 -0.36088175158E+02  0.67340101913E+02 -0.21209443670E+03  0.28355038941E+03  0.17198757962E+03 0.  0.
        -24    2    5    5    0    0 -0.61983367615E+02  0.81352439495E+02 -0.92371242177E+02  0.16017032658E+03  0.81620646060E+02 0.  0.
          5    1    3    3  501    0 -0.56547155150E+02 -0.23942016179E+02  0.52130237796E+02  0.80687375635E+02  0.47000000000E+01 0. -1.
        -13    1    4    4    0    0 -0.15173764698E+00  0.16466160354E+02 -0.10522812125E+01  0.16500447172E+02  0.00000000000E+00 0.  1.
         14    1    4    4    0    0  0.92787067954E+02 -0.59864246089E+02  0.69808672745E+02  0.13063850401E+03  0.00000000000E+00 0. -1.
         -5    1    5    5    0  502  0.25895192458E+02 -0.14012337581E+02 -0.11972319452E+03  0.12338006282E+03  0.47000000000E+01 0.  1.
         11    1    6    6    0    0 -0.43444185086E+02  0.44932939879E+02 -0.37889088820E+01  0.62615670039E+02  0.00000000000E+00 0. -1.
        -12    1    6    6    0    0 -0.18539182529E+02  0.36419499616E+02 -0.88582333295E+02  0.97554656542E+02  0.00000000000E+00 0.  1.
<mgrwt>
<rscale>  2 0.19186854E+03</rscale>
<asrwt>0</asrwt>
<pdfrwt beam="1">  1       21 0.32320685E-01 0.19310945E+03</pdfrwt>
<pdfrwt beam="2">  1       21 0.46352656E-01 0.19310945E+03</pdfrwt>
<totfact> 0.41056404E+04</totfact>
</mgrwt>
</event>
<event>
12    1  0.1050690E-001  0.1778908E+03  0.7546771E-02  0.1170128E+00
         21   -1    0    0  503  502  0.00000000000E+00  0.00000000000E+00  0.14126077055E+03  0.14126077055E+03  0.00000000000E+00 0. -1.
         21   -1    0    0  501  503 -0.00000000000E+00 -0.00000000000E+00 -0.22381794959E+03  0.22381794959E+03  0.00000000000E+00 0. -1.
          6    2    1    2  501    0 -0.32121166981E+01 -0.35798264080E+02 -0.28231824946E+02  0.18011708101E+03  0.17422196626E+03 0.  0.
         24    2    3    3    0    0  0.38989549499E+02  0.23231703574E+02 -0.49034308198E+02  0.10448407882E+03  0.80328465225E+02 0.  0.
         -6    2    1    2    0  502  0.32121166981E+01  0.35798264080E+02 -0.54325354097E+02  0.18496163913E+03  0.17311190152E+03 0.  0.
        -24    2    5    5    0    0  0.52589738032E+02  0.42662430614E+02 -0.73919822735E+02  0.13119083412E+03  0.84623467378E+02 0.  0.
          5    1    3    3  501    0 -0.42201666197E+02 -0.59029967654E+02  0.20802483252E+02  0.75633002191E+02  0.47000000000E+01 0. -1.
        -11    1    4    4    0    0 -0.13923062025E+02  0.49469992366E+01 -0.46115950649E+02  0.48425255413E+02  0.00000000000E+00 0.  1.
         12    1    4    4    0    0  0.52912611524E+02  0.18284704338E+02 -0.29183575494E+01  0.56058823407E+02  0.00000000000E+00 0. -1.
         -5    1    5    5    0  502 -0.49377621334E+02 -0.68641665343E+01  0.19594468638E+02  0.53770805016E+02  0.47000000000E+01 0.  1.
         13    1    6    6    0    0  0.18737213667E+02 -0.24998314998E+02 -0.31892599142E+02  0.44644560797E+02  0.00000000000E+00 0. -1.
        -14    1    6    6    0    0  0.33852524366E+02  0.67660745612E+02 -0.42027223593E+02  0.86546273321E+02  0.00000000000E+00 0.  1.
<mgrwt>
<rscale>  2 0.17761839E+03</rscale>
<asrwt>0</asrwt>
<pdfrwt beam="1">  1       21 0.21732426E-01 0.17789077E+03</pdfrwt>
<pdfrwt beam="2">  1       21 0.34433531E-01 0.17789077E+03</pdfrwt>
<totfact> 0.16130022E+05</totfact>
</mgrwt>
</event>
<event>
12    1  0.1050690E-001  0.2485262E+03  0.7546771E-02  0.1114338E+00
         21   -1    0    0  503  502  0.00000000000E+00  0.00000000000E+00  0.78517321029E+02  0.78517321029E+02  0.00000000000E+00 0.  1.
         21   -1    0    0  501  503 -0.00000000000E+00 -0.00000000000E+00 -0.84464176802E+03  0.84464176802E+03  0.00000000000E+00 0.  1.
          6    2    1    2  501    0 -0.13446213308E+02  0.17938114707E+03 -0.25966432999E+03  0.35900741714E+03  0.17059415204E+03 0.  0.
         24    2    3    3    0    0  0.28566273080E+02  0.88071942847E+02 -0.21793483945E+03  0.25007688804E+03  0.80437283700E+02 0.  0.
         -6    2    1    2    0  502  0.13446213308E+02 -0.17938114707E+03 -0.50646011699E+03  0.56415167191E+03  0.17148429151E+03 0.  0.
        -24    2    5    5    0    0 -0.56932242417E+02 -0.11611706886E+03 -0.34286306342E+03  0.37509729730E+03  0.80115218736E+02 0.  0.
          5    1    3    3  501    0 -0.42012486388E+02  0.91309204226E+02 -0.41729490544E+02  0.10893052910E+03  0.47000000000E+01 0. -1.
        -11    1    4    4    0    0  0.35960076258E+02  0.72345789208E+02 -0.89899042948E+02  0.12086719250E+03  0.00000000000E+00 0.  1.
         12    1    4    4    0    0 -0.73938031780E+01  0.15726153639E+02 -0.12803579650E+03  0.12920969553E+03  0.00000000000E+00 0. -1.
         -5    1    5    5    0  502  0.70378455726E+02 -0.63264078218E+02 -0.16359705357E+03  0.18905437461E+03  0.47000000000E+01 0.  1.
         11    1    6    6    0    0 -0.57907842497E+02 -0.37807260744E+02 -0.11547025225E+03  0.13459601162E+03  0.00000000000E+00 0. -1.
        -12    1    6    6    0    0  0.97560008002E+00 -0.78309808112E+02 -0.22739281117E+03  0.24050128568E+03  0.00000000000E+00 0.  1.
<mgrwt>
<rscale>  2 0.24837269E+03</rscale>
<asrwt>0</asrwt>
<pdfrwt beam="1">  1       21 0.12079589E-01 0.24852617E+03</pdfrwt>
<pdfrwt beam="2">  1       21 0.12994488E+00 0.24852617E+03</pdfrwt>
<totfact> 0.24307204E+04</totfact>
</mgrwt>
</event>
<event>
12    1  0.1050690E-001  0.2068010E+03  0.7546771E-02  0.1145478E+00
         21   -1    0    0  503  502  0.00000000000E+00  0.00000000000E+00  0.22328370131E+03  0.22328370131E+03  0.00000000000E+00 0. -1.
         21   -1    0    0  501  503 -0.00000000000E+00 -0.00000000000E+00 -0.25175871066E+03  0.25175871066E+03  0.00000000000E+00 0. -1.
          6    2    1    2  501    0 -0.38966915811E+02 -0.10673377547E+03 -0.13626086089E+03  0.24765638097E+03  0.17278929790E+03 0.  0.
         24    2    3    3    0    0 -0.24863898693E+00 -0.13516496670E+03 -0.11631643937E+03  0.19543275083E+03  0.79967593339E+02 0.  0.
         -6    2    1    2    0  502  0.38966915811E+02  0.10673377547E+03  0.10778585154E+03  0.22738603101E+03  0.16485174537E+03 0.  0.
        -24    2    5    5    0    0  0.87517506787E+02  0.70031770893E+02  0.63259332710E+02  0.15182878183E+03  0.80538642202E+02 0.  0.
          5    1    3    3  501    0 -0.38718276824E+02  0.28431191230E+02 -0.19944421518E+02  0.52223630137E+02  0.47000000000E+01 0. -1.
        -13    1    4    4    0    0  0.39721001126E+02 -0.60901660963E+02 -0.53280625736E+02  0.90142084052E+02  0.00000000000E+00 0.  1.
         14    1    4    4    0    0 -0.39969640113E+02 -0.74263305740E+02 -0.63035813635E+02  0.10529066678E+03  0.00000000000E+00 0. -1.
         -5    1    5    5    0  502 -0.48550590976E+02  0.36702004580E+02  0.44526518829E+02  0.75557249178E+02  0.47000000000E+01 0.  1.
         13    1    6    6    0    0  0.10042198180E+03  0.67451270069E+02  0.66814516519E+02  0.13819706177E+03  0.00000000000E+00 0. -1.
        -14    1    6    6    0    0 -0.12904475016E+02  0.25805008237E+01 -0.35551838089E+01  0.13631720062E+02  0.00000000000E+00 0.  1.
<mgrwt>
<rscale>  2 0.20513484E+03</rscale>
<asrwt>0</asrwt>
<pdfrwt beam="1">  1       21 0.34351339E-01 0.20680102E+03</pdfrwt>
<pdfrwt beam="2">  1       21 0.38732109E-01 0.20680102E+03</pdfrwt>
<totfact> 0.52136653E+04</totfact>
</mgrwt>
</event>
<event>
12    1  0.1050690E-001  0.1770600E+03  0.7546771E-02  0.1170753E+00
         21   -1    0    0  503  502  0.00000000000E+00  0.00000000000E+00  0.32358365458E+02  0.32358365458E+02  0.00000000000E+00 0. -1.
         21   -1    0    0  501  503 -0.00000000000E+00 -0.00000000000E+00 -0.12104352982E+04  0.12104352982E+04  0.00000000000E+00 0.  1.
          6    2    1    2  501    0 -0.25959042937E+02  0.22888445651E+02 -0.31009308646E+03  0.35693463880E+03  0.17334030474E+03 0.  0.
         24    2    3    3    0    0  0.29514014201E+02 -0.36833878930E+02 -0.19404037414E+03  0.21503912034E+03  0.79764307856E+02 0.  0.
         -6    2    1    2    0  502  0.25959042937E+02 -0.22888445651E+02 -0.86798384633E+03  0.88585902491E+03  0.17364475712E+03 0.  0.
        -24    2    5    5    0    0 -0.28180390112E+02 -0.63339182734E+02 -0.53544620059E+03  0.54649091183E+03  0.84520391223E+02 0.  0.
          5    1    3    3  501    0 -0.55473057137E+02  0.59722324582E+02 -0.11605271232E+03  0.14189551846E+03  0.47000000000E+01 0. -1.
        -11    1    4    4    0    0 -0.26677852851E+02 -0.14728661789E+02 -0.86428655705E+02  0.91643624098E+02  0.00000000000E+00 0.  1.
         12    1    4    4    0    0  0.56191867052E+02 -0.22105217141E+02 -0.10761171844E+03  0.12339549624E+03  0.00000000000E+00 0. -1.
         -5    1    5    5    0  502  0.54139433048E+02  0.40450737082E+02 -0.33253764574E+03  0.33936811308E+03  0.47000000000E+01 0.  1.
         13    1    6    6    0    0  0.75741145026E+01 -0.63311230200E+02 -0.22087920741E+03  0.22989846312E+03  0.00000000000E+00 0. -1.
        -14    1    6    6    0    0 -0.35754504614E+02 -0.27952533384E-01 -0.31456699318E+03  0.31659244871E+03  0.00000000000E+00 0.  1.
<mgrwt>
<rscale>  2 0.17698534E+03</rscale>
<asrwt>0</asrwt>
<pdfrwt beam="1">  1       21 0.49782096E-02 0.17706003E+03</pdfrwt>
<pdfrwt beam="2">  1       21 0.18622083E+00 0.17706003E+03</pdfrwt>
<totfact> 0.45227909E+04</totfact>
</mgrwt>
</event>
<event>
12    1  0.1050690E-001  0.1902504E+03  0.7546771E-02  0.1158397E+00
         21   -1    0    0  501  502  0.00000000000E+00  0.00000000000E+00  0.81862564869E+03  0.81862564869E+03  0.00000000000E+00 0.  1.
         21   -1    0    0  502  503 -0.00000000000E+00 -0.00000000000E+00 -0.78124303689E+02  0.78124303689E+02  0.00000000000E+00 0.  1.
         -6    2    1    2    0  503 -0.57174892530E+02 -0.54315631334E+02  0.66676854327E+03  0.69337976412E+03  0.17313593172E+03 0.  0.
        -24    2    3    3    0    0 -0.38488443291E+02 -0.95622555887E+02  0.58865777238E+03  0.60294289149E+03  0.79982022723E+02 0.  0.
          6    2    1    2  501    0  0.57174892530E+02  0.54315631334E+02  0.73732801729E+02  0.20337018826E+03  0.17234776261E+03 0.  0.
         24    2    5    5    0    0 -0.99058442782E-01  0.10939914993E+02 -0.20552116629E+02  0.84738430040E+02  0.81477116267E+02 0.  0.
          5    1    5    5  501    0  0.57273950973E+02  0.43375716340E+02  0.94284918358E+02  0.11863175822E+03  0.47000000000E+01 0. -1.
        -11    1    6    6    0    0  0.17035227660E+02  0.38021822402E+02  0.72773711609E+01  0.42294421514E+02  0.00000000000E+00 0.  1.
         12    1    6    6    0    0 -0.17134286103E+02 -0.27081907408E+02 -0.27829487790E+02  0.42444008526E+02  0.00000000000E+00 0. -1.
         -5    1    3    3    0  503 -0.18686449239E+02  0.41306924553E+02  0.78110770892E+02  0.90436872627E+02  0.47000000000E+01 0.  1.
         11    1    4    4    0    0 -0.30340427027E+01 -0.41269432707E+02  0.79107721026E+02  0.89277113624E+02  0.00000000000E+00 0. -1.
        -12    1    4    4    0    0 -0.35454400588E+02 -0.54353123180E+02  0.50955005135E+03  0.51366577787E+03  0.00000000000E+00 0.  1.
<mgrwt>
<rscale>  2 0.19007088E+03</rscale>
<asrwt>0</asrwt>
<pdfrwt beam="1">  1       21 0.12594240E+00 0.19025038E+03</pdfrwt>
<pdfrwt beam="2">  1       21 0.12019124E-01 0.19025038E+03</pdfrwt>
<totfact> 0.27432872E+04</totfact>
</mgrwt>
</event>
<event>
12    1  0.1050690E-001  0.2459806E+03  0.7546771E-02  0.1115884E+00
         21   -1    0    0  503  502  0.00000000000E+00  0.00000000000E+00  0.84836479012E+02  0.84836479012E+02  0.00000000000E+00 0.  1.
         21   -1    0    0  501  503 -0.00000000000E+00 -0.00000000000E+00 -0.86346813018E+03  0.86346813018E+03  0.00000000000E+00 0. -1.
          6    2    1    2  501    0  0.78858876996E+02  0.15541415111E+03 -0.58720188189E+03  0.63661272503E+03  0.17348611104E+03 0.  0.
         24    2    3    3    0    0  0.33084042163E+02  0.18354292454E+02 -0.13324893585E+03  0.16019262934E+03  0.80467171515E+02 0.  0.
         -6    2    1    2    0  502 -0.78858876996E+02 -0.15541415111E+03 -0.19142976928E+03  0.31169188416E+03  0.17359203104E+03 0.  0.
        -24    2    5    5    0    0 -0.96351355531E+02 -0.62351026917E+02 -0.15626644327E+03  0.21057175073E+03  0.82158545762E+02 0.  0.
          5    1    3    3  501    0  0.45774834833E+02  0.13705985866E+03 -0.45395294603E+03  0.47642009568E+03  0.47000000000E+01 0. -1.
        -13    1    4    4    0    0  0.50901401183E+02  0.23784101022E+02 -0.51059803793E+02  0.75919297068E+02  0.00000000000E+00 0.  1.
         14    1    4    4    0    0 -0.17817359020E+02 -0.54298085680E+01 -0.82189132061E+02  0.84273332273E+02  0.00000000000E+00 0. -1.
         -5    1    5    5    0  502  0.17492478535E+02 -0.93063124196E+02 -0.35163326009E+02  0.10112013344E+03  0.47000000000E+01 0.  1.
         11    1    6    6    0    0 -0.67945468600E+02 -0.62568776151E+02 -0.15700064732E+03  0.18215554263E+03  0.00000000000E+00 0. -1.
        -12    1    6    6    0    0 -0.28405886931E+02  0.21774923389E+00  0.73420404810E+00  0.28416208098E+02  0.00000000000E+00 0.  1.
<mgrwt>
<rscale>  2 0.24596195E+03</rscale>
<asrwt>0</asrwt>
<pdfrwt beam="1">  1       21 0.13051766E-01 0.24598064E+03</pdfrwt>
<pdfrwt beam="2">  1       21 0.13284125E+00 0.24598064E+03</pdfrwt>
<totfact> 0.20007388E+04</totfact>
</mgrwt>
</event>
<event>
12    1  0.1050690E-001  0.1765197E+03  0.7546771E-02  0.1171536E+00
         21   -1    0    0  503  502  0.00000000000E+00  0.00000000000E+00  0.22481466075E+03  0.22481466075E+03  0.00000000000E+00 0. -1.
         21   -1    0    0  501  503 -0.00000000000E+00 -0.00000000000E+00 -0.14545647737E+03  0.14545647737E+03  0.00000000000E+00 0. -1.
          6    2    1    2  501    0  0.48937970281E+01  0.34490707839E+02  0.82879781995E+02  0.19500833552E+03  0.17304806985E+03 0.  0.
         24    2    3    3    0    0  0.35676046748E+02  0.80836804914E+02  0.62078554304E+02  0.13542403653E+03  0.81722416910E+02 0.  0.
         -6    2    1    2    0  502 -0.48937970281E+01 -0.34490707839E+02 -0.35215986141E+01  0.17526280261E+03  0.17172970083E+03 0.  0.
        -24    2    5    5    0    0 -0.38884301318E+01 -0.23470399223E+02  0.67161184134E+02  0.10356479886E+03  0.75160251334E+02 0.  0.
          5    1    3    3  501    0 -0.30782249720E+02 -0.46346097076E+02  0.20801227692E+02  0.59584298984E+02  0.47000000000E+01 0. -1.
        -13    1    4    4    0    0  0.41901032857E+02  0.27630644948E+01  0.19929621831E+02  0.46481403875E+02  0.00000000000E+00 0.  1.
         14    1    4    4    0    0 -0.62249861095E+01  0.78073740420E+02  0.42148932473E+02  0.88942632656E+02  0.00000000000E+00 0. -1.
         -5    1    5    5    0  502 -0.10053668963E+01 -0.11020308616E+02 -0.70682782748E+02  0.71698003749E+02  0.47000000000E+01 0.  1.
         11    1    6    6    0    0  0.22890818104E+01 -0.22470150124E+02 -0.11021493397E+02  0.25132068335E+02  0.00000000000E+00 0. -1.
        -12    1    6    6    0    0 -0.61775119422E+01 -0.10002490992E+01  0.78182677530E+02  0.78432730527E+02  0.00000000000E+00 0.  1.
<mgrwt>
<rscale>  2 0.17619571E+03</rscale>
<asrwt>0</asrwt>
<pdfrwt beam="1">  1       21 0.34586871E-01 0.17651967E+03</pdfrwt>
<pdfrwt beam="2">  1       21 0.22377919E-01 0.17651967E+03</pdfrwt>
<totfact> 0.15139023E+05</totfact>
</mgrwt>
</event>
<event>
12    1  0.1050690E-001  0.2163378E+03  0.7546771E-02  0.1136742E+00
         21   -1    0    0  503  502  0.00000000000E+00  0.00000000000E+00  0.21117443338E+04  0.21117443338E+04  0.00000000000E+00 0.  1.
         21   -1    0    0  501  503 -0.00000000000E+00 -0.00000000000E+00 -0.31807903039E+02  0.31807903039E+02  0.00000000000E+00 0.  1.
          6    2    1    2  501    0  0.58771301575E+02 -0.11408343112E+03  0.44728981882E+03  0.49663480672E+03  0.17351903090E+03 0.  0.
         24    2    3    3    0    0  0.52087094824E+02 -0.57515988175E+02  0.41743664384E+03  0.43215336538E+03  0.80511025600E+02 0.  0.
         -6    2    1    2    0  502 -0.58771301575E+02  0.11408343112E+03  0.16326466120E+04  0.16469174301E+04  0.17416362130E+03 0.  0.
        -24    2    5    5    0    0 -0.95505780608E+02  0.47679342225E+02  0.85873342930E+03  0.86927829193E+03  0.82625494952E+02 0.  0.
          5    1    3    3  501    0  0.66842067515E+01 -0.56567442950E+02  0.29853174976E+02  0.64481441345E+02  0.47000000000E+01 0. -1.
        -11    1    4    4    0    0 -0.12182027087E+02  0.11370167893E+02  0.45021461917E+02  0.48006400979E+02  0.00000000000E+00 0.  1.
         12    1    4    4    0    0  0.64269121911E+02 -0.68886156067E+02  0.37241518192E+03  0.38414696440E+03  0.00000000000E+00 0. -1.
         -5    1    5    5    0  502  0.36734479033E+02  0.66404088899E+02  0.77391318267E+03  0.77763913822E+03  0.47000000000E+01 0.  1.
         13    1    6    6    0    0 -0.38237899060E+02  0.32257227331E+01  0.10033603119E+03  0.10742374675E+03  0.00000000000E+00 0. -1.
        -14    1    6    6    0    0 -0.57267881548E+02  0.44453619492E+02  0.75839739811E+03  0.76185454518E+03  0.00000000000E+00 0.  1.
<mgrwt>
<rscale>  2 0.21620808E+03</rscale>
<asrwt>0</asrwt>
<pdfrwt beam="1">  1       21 0.32488363E+00 0.21633784E+03</pdfrwt>
<pdfrwt beam="2">  1       21 0.48935252E-02 0.21633784E+03</pdfrwt>
<totfact> 0.66613062E+03</totfact>
</mgrwt>
</event>
<event>
12    1  0.1050690E-001  0.1876978E+03  0.7546771E-02  0.1160581E+00
         21   -1    0    0  503  502  0.00000000000E+00  0.00000000000E+00  0.30218542295E+03  0.30218542295E+03  0.00000000000E+00 0.  1.
         21   -1    0    0  501  503 -0.00000000000E+00 -0.00000000000E+00 -0.13176028633E+03  0.13176028633E+03  0.00000000000E+00 0.  1.
          6    2    1    2  501    0  0.60004831323E+01 -0.71535816213E+02  0.11378021752E+02  0.18792443466E+03  0.17329961040E+03 0.  0.
         24    2    3    3    0    0 -0.41381989351E+02 -0.71830207806E+02 -0.37044325496E+02  0.12001273406E+03  0.78477554048E+02 0.  0.
         -6    2    1    2    0  502 -0.60004831323E+01  0.71535816213E+02  0.15904711487E+03  0.24602127462E+03  0.17342751805E+03 0.  0.
        -24    2    5    5    0    0  0.23918610599E+02  0.86072558771E+02  0.17212968617E+03  0.20996974586E+03  0.80486520678E+02 0.  0.
          5    1    3    3  501    0  0.47382472483E+02  0.29439159304E+00  0.48422347248E+02  0.67911700597E+02  0.47000000000E+01 0. -1.
        -11    1    4    4    0    0 -0.20383621787E+02 -0.71563698356E+02  0.33503832183E+01  0.74485435001E+02  0.00000000000E+00 0.  1.
         12    1    4    4    0    0 -0.20998367564E+02 -0.26650945000E+00 -0.40394708714E+02  0.45527299061E+02  0.00000000000E+00 0. -1.
         -5    1    5    5    0  502 -0.29919093732E+02 -0.14536742558E+02 -0.13082571296E+02  0.36051528756E+02  0.47000000000E+01 0.  1.
         13    1    6    6    0    0 -0.88767899093E+01  0.20213297026E+01 -0.55734744025E+01  0.10674586164E+02  0.00000000000E+00 0. -1.
        -14    1    6    6    0    0  0.32795400509E+02  0.84051229069E+02  0.17770316057E+03  0.19929515970E+03  0.00000000000E+00 0.  1.
<mgrwt>
<rscale>  2 0.18766830E+03</rscale>
<asrwt>0</asrwt>
<pdfrwt beam="1">  1       21 0.46490065E-01 0.18769785E+03</pdfrwt>
<pdfrwt beam="2">  1       21 0.20270813E-01 0.18769785E+03</pdfrwt>
<totfact> 0.99936305E+04</totfact>
</mgrwt>
</event>
<event>
12    1  0.1050690E-001  0.2586138E+03  0.7546771E-02  0.1109270E+00
         21   -1    0    0  503  502  0.00000000000E+00  0.00000000000E+00  0.14410397153E+03  0.14410397153E+03  0.00000000000E+00 0. -1.
         21   -1    0    0  501  503 -0.00000000000E+00 -0.00000000000E+00 -0.22810144582E+04  0.22810144582E+04  0.00000000000E+00 0.  1.
          6    2    1    2  501    0  0.16140442210E+03  0.83433234508E+02 -0.21585206243E+04  0.21739577650E+04  0.18403419957E+03 0.  0.
         24    2    3    3    0    0  0.57318771215E+02  0.10190714452E+03 -0.15273652529E+04  0.15339934684E+04  0.81368531158E+02 0.  0.
         -6    2    1    2    0  502 -0.16140442210E+03 -0.83433234508E+02  0.21610137635E+02  0.25116066467E+03  0.17205286785E+03 0.  0.
        -24    2    5    5    0    0 -0.11274988138E+03 -0.68861796801E+02  0.79469979053E+02  0.17402803617E+03  0.80720486833E+02 0.  0.
          5    1    3    3  501    0  0.10408565089E+03 -0.18473910011E+02 -0.63115537141E+03  0.63996429661E+03  0.47000000000E+01 0. -1.
        -13    1    4    4    0    0  0.23105111156E+02 -0.93357653275E+01 -0.35157360752E+03  0.35245567690E+03  0.00000000000E+00 0.  1.
         14    1    4    4    0    0  0.34213660059E+02  0.11124290985E+03 -0.11757916454E+04  0.11815377915E+04  0.00000000000E+00 0. -1.
         -5    1    5    5    0  502 -0.48654540727E+02 -0.14571437707E+02 -0.57859841418E+02  0.77132628499E+02  0.47000000000E+01 0.  1.
         13    1    6    6    0    0 -0.69167051725E+02  0.40910193952E+01  0.43049245717E+02  0.81572391413E+02  0.00000000000E+00 0. -1.
        -14    1    6    6    0    0 -0.43582829653E+02 -0.72952816196E+02  0.36420733336E+02  0.92455644761E+02  0.00000000000E+00 0.  1.
<mgrwt>
<rscale>  2 0.25649166E+03</rscale>
<asrwt>0</asrwt>
<pdfrwt beam="1">  1       21 0.22169844E-01 0.25861376E+03</pdfrwt>
<pdfrwt beam="2">  1       21 0.35092527E+00 0.25861376E+03</pdfrwt>
<totfact> 0.29995910E+02</totfact>
</mgrwt>
</event>
<event>
12    1  0.1050690E-001  0.2207123E+03  0.7546771E-02  0.1133743E+00
         21   -1    0    0  503  502  0.00000000000E+00  0.00000000000E+00  0.14914276720E+03  0.14914276720E+03  0.00000000000E+00 0. -1.
         21   -1    0    0  501  503 -0.00000000000E+00 -0.00000000000E+00 -0.41555653852E+03  0.41555653852E+03  0.00000000000E+00 0.  1.
          6    2    1    2  501    0  0.86042925721E+02 -0.10641911221E+03 -0.26656519854E+03  0.34607939178E+03  0.17316329817E+03 0.  0.
         24    2    3    3    0    0  0.55634634989E+02 -0.11395246915E+03 -0.27480119825E+03  0.31334810242E+03  0.81184708499E+02 0.  0.
         -6    2    1    2    0  502 -0.86042925721E+02  0.10641911221E+03  0.15142722065E+00  0.21861991394E+03  0.17048821465E+03 0.  0.
        -24    2    5    5    0    0 -0.68096322069E+01  0.34183924071E+01  0.27524374281E+02  0.85734883518E+02  0.80838249454E+02 0.  0.
          5    1    3    3  501    0  0.30408290732E+02  0.75333569417E+01  0.82359997115E+01  0.32731289362E+02  0.47000000000E+01 0. -1.
        -13    1    4    4    0    0  0.47938010523E+02 -0.55701411899E+02 -0.22375408081E+03  0.23551345783E+03  0.00000000000E+00 0.  1.
         14    1    4    4    0    0  0.76966244659E+01 -0.58251057251E+02 -0.51047117437E+02  0.77834644585E+02  0.00000000000E+00 0. -1.
         -5    1    5    5    0  502 -0.79233293514E+02  0.10300071980E+03 -0.27372947060E+02  0.13288503043E+03  0.47000000000E+01 0.  1.
         11    1    6    6    0    0 -0.41386716888E+02 -0.11722513451E+02  0.19071701744E+02  0.47053240737E+02  0.00000000000E+00 0. -1.
        -12    1    6    6    0    0  0.34577084681E+02  0.15140905858E+02  0.84526725369E+01  0.38681642782E+02  0.00000000000E+00 0.  1.
<mgrwt>
<rscale>  2 0.22018736E+03</rscale>
<asrwt>0</asrwt>
<pdfrwt beam="1">  1       21 0.22945041E-01 0.22071235E+03</pdfrwt>
<pdfrwt beam="2">  1       21 0.63931775E-01 0.22071235E+03</pdfrwt>
<totfact> 0.39717363E+04</totfact>
</mgrwt>
</event>
<event>
12    1  0.1050690E-001  0.2328659E+03  0.7546771E-02  0.1124673E+00
         21   -1    0    0  503  502  0.00000000000E+00  0.00000000000E+00  0.64796119161E+03  0.64796119161E+03  0.00000000000E+00 0. -1.
         21   -1    0    0  501  503 -0.00000000000E+00 -0.00000000000E+00 -0.23971141935E+03  0.23971141935E+03  0.00000000000E+00 0.  1.
          6    2    1    2  501    0 -0.54142437615E+02 -0.14685360754E+03 -0.15400134522E+03  0.27918260767E+03  0.17242136902E+03 0.  0.
         24    2    3    3    0    0 -0.51929971004E+02 -0.74797074397E+02 -0.14699205595E+02  0.12226156038E+03  0.80252715058E+02 0.  0.
         -6    2    1    2    0  502  0.54142437615E+02  0.14685360754E+03  0.56225111748E+03  0.60849000330E+03  0.17215219839E+03 0.  0.
        -24    2    5    5    0    0  0.58248391868E+02  0.15328186632E+03  0.56893543785E+03  0.59731183216E+03  0.78776181029E+02 0.  0.
          5    1    3    3  501    0 -0.22124666110E+01 -0.72056533141E+02 -0.13930213963E+03  0.15692104729E+03  0.47000000000E+01 0. -1.
        -13    1    4    4    0    0  0.91840232123E+01  0.12867577699E+00 -0.23442770956E+02  0.25177894072E+02  0.00000000000E+00 0.  1.
         14    1    4    4    0    0 -0.61113994217E+02 -0.74925750174E+02  0.87435653611E+01  0.97083666306E+02  0.00000000000E+00 0. -1.
         -5    1    5    5    0  502 -0.41059542529E+01 -0.64282587813E+01 -0.66843203683E+01  0.11178171142E+02  0.47000000000E+01 0.  1.
         11    1    6    6    0    0  0.15190234393E+02  0.11069192992E+03  0.45223080849E+03  0.46582845633E+03  0.00000000000E+00 0. -1.
        -12    1    6    6    0    0  0.43058157476E+02  0.42589936398E+02  0.11670462936E+03  0.13148337583E+03  0.00000000000E+00 0.  1.
<mgrwt>
<rscale>  2 0.23281605E+03</rscale>
<asrwt>0</asrwt>
<pdfrwt beam="1">  1       21 0.99686337E-01 0.23286587E+03</pdfrwt>
<pdfrwt beam="2">  1       21 0.36878680E-01 0.23286587E+03</pdfrwt>
<totfact> 0.56958748E+03</totfact>
</mgrwt>
</event>
<event>
12    1  0.1050690E-001  0.2208631E+03  0.7546771E-02  0.1133286E+00
         21   -1    0    0  503  502  0.00000000000E+00  0.00000000000E+00  0.10350920139E+04  0.10350920139E+04  0.00000000000E+00 0. -1.
         21   -1    0    0  501  503 -0.00000000000E+00 -0.00000000000E+00 -0.47264439829E+02  0.47264439829E+02  0.00000000000E+00 0. -1.
          6    2    1    2  501    0 -0.13680783785E+03 -0.11506162878E+02  0.45997829255E+03  0.51025537691E+03  0.17300792977E+03 0.  0.
         24    2    3    3    0    0 -0.31332287810E+02 -0.47464160623E+02  0.29020331618E+03  0.30712068794E+03  0.82889042933E+02 0.  0.
         -6    2    1    2    0  502  0.13680783785E+03  0.11506162878E+02  0.52784928152E+03  0.57210107683E+03  0.17270206084E+03 0.  0.
        -24    2    5    5    0    0  0.15395862035E+03 -0.28632554534E+02  0.40392888249E+03  0.44063388977E+03  0.80477343055E+02 0.  0.
          5    1    3    3  501    0 -0.10547555004E+03  0.35957997745E+02  0.16977497637E+03  0.20313468897E+03  0.47000000000E+01 0. -1.
        -13    1    4    4    0    0 -0.23727857166E+02 -0.20657844096E+01  0.23052750801E+03  0.23175463452E+03  0.00000000000E+00 0.  1.
         14    1    4    4    0    0 -0.76044306440E+01 -0.45398376213E+02  0.59675808164E+02  0.75366053421E+02  0.00000000000E+00 0. -1.
         -5    1    5    5    0  502 -0.17150782496E+02  0.40138717412E+02  0.12392039904E+03  0.13146718706E+03  0.47000000000E+01 0.  1.
         11    1    6    6    0    0  0.90436939740E+02 -0.56437889650E+02  0.23659371714E+03  0.25950079470E+03  0.00000000000E+00 0. -1.
        -12    1    6    6    0    0  0.63521680608E+02  0.27805335116E+02  0.16733516535E+03  0.18113309507E+03  0.00000000000E+00 0.  1.
<mgrwt>
<rscale>  2 0.22080322E+03</rscale>
<asrwt>0</asrwt>
<pdfrwt beam="1">  1       21 0.15924491E+00 0.22086313E+03</pdfrwt>
<pdfrwt beam="2">  1       21 0.72714530E-02 0.22086313E+03</pdfrwt>
<totfact> 0.35498639E+04</totfact>
</mgrwt>
</event>
<event>
12    1  0.1050690E-001  0.1986667E+03  0.7546771E-02  0.1151111E+00
         21   -1    0    0  503  502  0.00000000000E+00  0.00000000000E+00  0.14438777181E+04  0.14438777181E+04  0.00000000000E+00 0.  1.
         21   -1    0    0  501  503 -0.00000000000E+00 -0.00000000000E+00 -0.59325474786E+02  0.59325474786E+02  0.00000000000E+00 0.  1.
          6    2    1    2  501    0 -0.69591726596E+02  0.64431221185E+02  0.13810035720E+03  0.24101826966E+03  0.17327350340E+03 0.  0.
         24    2    3    3    0    0 -0.86583749985E+02  0.95077581011E+02  0.14036899518E+03  0.20558996251E+03  0.77635595606E+02 0.  0.
         -6    2    1    2    0  502  0.69591726596E+02 -0.64431221185E+02  0.12464518861E+04  0.12621849232E+04  0.17456828273E+03 0.  0.
        -24    2    5    5    0    0  0.74255667381E+02 -0.38024701516E+02  0.12150448641E+04  0.12206211451E+04  0.81376752696E+02 0.  0.
          5    1    3    3  501    0  0.16992023389E+02 -0.30646359826E+02 -0.22686379816E+01  0.35428307153E+02  0.47000000000E+01 0. -1.
        -13    1    4    4    0    0  0.20152333322E+01  0.38686684386E+02  0.13801962557E+02  0.41124383091E+02  0.00000000000E+00 0.  1.
         14    1    4    4    0    0 -0.88598983317E+02  0.56390896625E+02  0.12656703262E+03  0.16446557942E+03  0.00000000000E+00 0. -1.
         -5    1    5    5    0  502 -0.46639407855E+01 -0.26406519669E+02  0.31407022002E+02  0.41563778170E+02  0.47000000000E+01 0.  1.
         11    1    6    6    0    0  0.46069771289E+02  0.17833148343E+02  0.37335598254E+03  0.37661005656E+03  0.00000000000E+00 0. -1.
        -12    1    6    6    0    0  0.28185896092E+02 -0.55857849859E+02  0.84168888158E+03  0.84401108850E+03  0.00000000000E+00 0.  1.
<mgrwt>
<rscale>  2 0.19838195E+03</rscale>
<asrwt>0</asrwt>
<pdfrwt beam="1">  1       21 0.22213501E+00 0.19866675E+03</pdfrwt>
<pdfrwt beam="2">  1       21 0.91269972E-02 0.19866675E+03</pdfrwt>
<totfact> 0.92535567E+03</totfact>
</mgrwt>
</event>
<event>
12    1  0.1050690E-001  0.2065398E+03  0.7546771E-02  0.1144979E+00
         21   -1    0    0  501  502  0.00000000000E+00  0.00000000000E+00  0.28477318846E+02  0.28477318846E+02  0.00000000000E+00 0.  1.
         21   -1    0    0  502  503 -0.00000000000E+00 -0.00000000000E+00 -0.17266815149E+04  0.17266815149E+04  0.00000000000E+00 0.  1.
         -6    2    1    2    0  503 -0.68221121414E+02  0.81450115951E+02 -0.11784218767E+04  0.11958446712E+04  0.17343043397E+03 0.  0.
        -24    2    3    3    0    0 -0.11098128761E+03  0.37610538292E+02 -0.81977893338E+03  0.83198042295E+03  0.80140662396E+02 0.  0.
          6    2    1    2  501    0  0.68221121414E+02 -0.81450115951E+02 -0.51978231942E+03  0.55931416258E+03  0.17711699547E+03 0.  0.
         24    2    5    5    0    0  0.83812337351E+02 -0.20893858641E+02 -0.17439728783E+03  0.20828274467E+03  0.74203952077E+02 0.  0.
          5    1    5    5  501    0 -0.15591215937E+02 -0.60556257311E+02 -0.34538503158E+03  0.35103141791E+03  0.47000000000E+01 0. -1.
        -13    1    6    6    0    0  0.77449650187E+02 -0.21462541787E+02 -0.18163981217E+03  0.19862555319E+03  0.00000000000E+00 0.  1.
         14    1    6    6    0    0  0.63626871633E+01  0.56868314589E+00  0.72425243415E+01  0.96571914807E+01  0.00000000000E+00 0. -1.
         -5    1    3    3    0  503  0.42760166197E+02  0.43839577659E+02 -0.35864294328E+03  0.36386424824E+03  0.47000000000E+01 0.  1.
         13    1    4    4    0    0 -0.16175081621E+02 -0.23967774605E+02 -0.16639172300E+03  0.16888544333E+03  0.00000000000E+00 0. -1.
        -14    1    4    4    0    0 -0.94806205990E+02  0.61578312898E+02 -0.65338721038E+03  0.66309497962E+03  0.00000000000E+00 0.  1.
<mgrwt>
<rscale>  2 0.20574707E+03</rscale>
<asrwt>0</asrwt>
<pdfrwt beam="1">  1       21 0.43811245E-02 0.20653976E+03</pdfrwt>
<pdfrwt beam="2">  1       21 0.26564340E+00 0.20653976E+03</pdfrwt>
<totfact> 0.17892686E+04</totfact>
</mgrwt>
</event>
<event>
12    1  0.1050690E-001  0.2091300E+03  0.7546771E-02  0.1143060E+00
         21   -1    0    0  503  502  0.00000000000E+00  0.00000000000E+00  0.10170647969E+04  0.10170647969E+04  0.00000000000E+00 0. -1.
         21   -1    0    0  501  503 -0.00000000000E+00 -0.00000000000E+00 -0.88933456430E+02  0.88933456430E+02  0.00000000000E+00 0. -1.
          6    2    1    2  501    0  0.34208273937E+02  0.11076020524E+03  0.61014956569E+02  0.21401945105E+03  0.16924382243E+03 0.  0.
         24    2    3    3    0    0  0.17795529645E+02  0.51164559289E+02  0.10149522020E+03  0.13998053604E+03  0.79741944698E+02 0.  0.
         -6    2    1    2    0  502 -0.34208273937E+02 -0.11076020524E+03  0.86711638386E+03  0.89197880224E+03  0.17406128638E+03 0.  0.
        -24    2    5    5    0    0 -0.46559801729E+02 -0.82780115491E+02  0.84485312028E+03  0.85385809177E+03  0.79224260093E+02 0.  0.
          5    1    3    3  501    0  0.16412744292E+02  0.59595645952E+02 -0.40480263633E+02  0.74038915007E+02  0.47000000000E+01 0. -1.
        -13    1    4    4    0    0  0.26666130072E+02 -0.11217009742E+02  0.13947375487E+02  0.32115931927E+02  0.00000000000E+00 0.  1.
         14    1    4    4    0    0 -0.88706004265E+01  0.62381569031E+02  0.87547844715E+02  0.10786460412E+03  0.00000000000E+00 0. -1.
         -5    1    5    5    0  502  0.12351527792E+02 -0.27980089749E+02  0.22263263584E+02  0.38120710468E+02  0.47000000000E+01 0.  1.
         13    1    6    6    0    0 -0.27054353136E+01 -0.19400946273E+02  0.50481286604E+03  0.50519278084E+03  0.00000000000E+00 0. -1.
        -14    1    6    6    0    0 -0.43854366415E+02 -0.63379169218E+02  0.34004025424E+03  0.34866531093E+03  0.00000000000E+00 0.  1.
<mgrwt>
<rscale>  2 0.20812472E+03</rscale>
<asrwt>0</asrwt>
<pdfrwt beam="1">  1       21 0.15647150E+00 0.20913001E+03</pdfrwt>
<pdfrwt beam="2">  1       21 0.13682071E-01 0.20913001E+03</pdfrwt>
<totfact> 0.12238345E+04</totfact>
</mgrwt>
</event>
<event>
12    1  0.1050690E-001  0.1841655E+03  0.7546771E-02  0.1164058E+00
         21   -1    0    0  501  502  0.00000000000E+00  0.00000000000E+00  0.73279000005E+02  0.73279000005E+02  0.00000000000E+00 0.  1.
         21   -1    0    0  502  503 -0.00000000000E+00 -0.00000000000E+00 -0.54897707893E+03  0.54897707893E+03  0.00000000000E+00 0.  1.
         -6    2    1    2    0  503  0.27168860652E+02 -0.56051017212E+02 -0.36332343451E+03  0.40733381297E+03  0.17331201229E+03 0.  0.
        -24    2    3    3    0    0  0.32708961165E+02 -0.10112012461E+03 -0.22532484931E+03  0.26198039308E+03  0.81038774064E+02 0.  0.
          6    2    1    2  501    0 -0.27168860652E+02  0.56051017212E+02 -0.11237464442E+03  0.21492226597E+03  0.17228945464E+03 0.  0.
         24    2    5    5    0    0 -0.75143824373E+02  0.22242075822E+01 -0.66399579592E+02  0.12927929098E+03  0.81564020655E+02 0.  0.
          5    1    5    5  501    0  0.47974963722E+02  0.53826809629E+02 -0.45975064823E+02  0.85642974986E+02  0.47000000000E+01 0. -1.
        -11    1    6    6    0    0 -0.25220406273E+02 -0.35552753089E+02 -0.46147625337E+02  0.63479685483E+02  0.00000000000E+00 0.  1.
         12    1    6    6    0    0 -0.49923418100E+02  0.37776960671E+02 -0.20251954255E+02  0.65799605496E+02  0.00000000000E+00 0. -1.
         -5    1    3    3    0  503 -0.55401005133E+01  0.45069107398E+02 -0.13799858520E+03  0.14535341989E+03  0.47000000000E+01 0.  1.
         11    1    4    4    0    0 -0.10382373473E+02 -0.71977704381E+02 -0.82498299695E+02  0.10997523839E+03  0.00000000000E+00 0. -1.
        -12    1    4    4    0    0  0.43091334638E+02 -0.29142420229E+02 -0.14282654961E+03  0.15200515469E+03  0.00000000000E+00 0.  1.
<mgrwt>
<rscale>  2 0.18392450E+03</rscale>
<asrwt>0</asrwt>
<pdfrwt beam="1">  1       21 0.11273692E-01 0.18416546E+03</pdfrwt>
<pdfrwt beam="2">  1       21 0.84458011E-01 0.18416546E+03</pdfrwt>
<totfact> 0.80051461E+04</totfact>
</mgrwt>
</event>
<event>
12    1  0.1050690E-001  0.1912631E+03  0.7546771E-02  0.1157528E+00
         21   -1    0    0  503  502  0.00000000000E+00  0.00000000000E+00  0.93358434351E+02  0.93358434351E+02  0.00000000000E+00 0. -1.
         21   -1    0    0  501  503 -0.00000000000E+00 -0.00000000000E+00 -0.49539842435E+03  0.49539842435E+03  0.00000000000E+00 0. -1.
          6    2    1    2  501    0 -0.59814346359E+01  0.81096694934E+02 -0.33716894683E+03  0.38763961602E+03  0.17311591986E+03 0.  0.
         24    2    3    3    0    0  0.64889782059E+01  0.51854331785E+02 -0.34197970131E+03  0.35514561107E+03  0.80295145497E+02 0.  0.
         -6    2    1    2    0  502  0.59814346359E+01 -0.81096694934E+02 -0.64871043165E+02  0.20111724268E+03  0.17212623732E+03 0.  0.
        -24    2    5    5    0    0  0.59186256119E+02 -0.51369947253E+02  0.49469934902E+00  0.11162309287E+03  0.79483241877E+02 0.  0.
          5    1    3    3  501    0 -0.12470412842E+02  0.29242363149E+02  0.48107544789E+01  0.32494004949E+02  0.47000000000E+01 0. -1.
        -11    1    4    4    0    0  0.12281182483E+02 -0.16095434915E+02 -0.15108002419E+03  0.15243052246E+03  0.00000000000E+00 0.  1.
         12    1    4    4    0    0 -0.57922042770E+01  0.67949766701E+02 -0.19089967712E+03  0.20271508861E+03  0.00000000000E+00 0. -1.
         -5    1    5    5    0  502 -0.53204821483E+02 -0.29726747681E+02 -0.65365742514E+02  0.89494149815E+02  0.47000000000E+01 0.  1.
         13    1    6    6    0    0  0.49858198424E+02 -0.22232637715E+02 -0.34935224925E+02  0.64812036462E+02  0.00000000000E+00 0. -1.
        -14    1    6    6    0    0  0.93280576952E+01 -0.29137309538E+02  0.35429924274E+02  0.46811056403E+02  0.00000000000E+00 0.  1.
<mgrwt>
<rscale>  2 0.19103888E+03</rscale>
<asrwt>0</asrwt>
<pdfrwt beam="1">  1       21 0.14362836E-01 0.19126310E+03</pdfrwt>
<pdfrwt beam="2">  1       21 0.76215141E-01 0.19126310E+03</pdfrwt>
<totfact> 0.65150797E+04</totfact>
</mgrwt>
</event>
<event>
12    1  0.1050690E-001  0.1787711E+03  0.7546771E-02  0.1169564E+00
         21   -1    0    0  501  502  0.00000000000E+00  0.00000000000E+00  0.17603154744E+04  0.17603154744E+04  0.00000000000E+00 0.  1.
         21   -1    0    0  502  503 -0.00000000000E+00 -0.00000000000E+00 -0.21493506223E+02  0.21493506223E+02  0.00000000000E+00 0.  1.
         -6    2    1    2    0  503 -0.37829945882E+02  0.13017822849E+02  0.51095696486E+03  0.54132810466E+03  0.17423698931E+03 0.  0.
        -24    2    3    3    0    0  0.16471232887E+02 -0.48724617858E+02  0.29225344469E+03  0.30763157766E+03  0.81115483973E+02 0.  0.
          6    2    1    2  501    0  0.37829945882E+02 -0.13017822849E+02  0.12278650033E+04  0.12404808759E+04  0.17187137263E+03 0.  0.
         24    2    5    5    0    0  0.60479611214E+02  0.45276163060E+02  0.66134603711E+03  0.67050102964E+03  0.80531581622E+02 0.  0.
          5    1    5    5  501    0 -0.22649665332E+02 -0.58293985909E+02  0.56651896616E+03  0.56997984627E+03  0.47000000000E+01 0. -1.
        -11    1    6    6    0    0  0.23180102334E+02  0.46099755299E+02  0.16798227634E+03  0.17572862530E+03  0.00000000000E+00 0.  1.
         12    1    6    6    0    0  0.37299508880E+02 -0.82359223826E+00  0.49336376076E+03  0.49477240435E+03  0.00000000000E+00 0. -1.
         -5    1    3    3    0  503 -0.54301178769E+02  0.61742440707E+02  0.21870352017E+03  0.23369652700E+03  0.47000000000E+01 0.  1.
         13    1    4    4    0    0  0.46586111685E+02 -0.21817750494E+02  0.11741156645E+03  0.12818641103E+03  0.00000000000E+00 0. -1.
        -14    1    4    4    0    0 -0.30114878797E+02 -0.26906867364E+02  0.17484187825E+03  0.17944516662E+03  0.00000000000E+00 0.  1.
<mgrwt>
<rscale>  2 0.17819206E+03</rscale>
<asrwt>0</asrwt>
<pdfrwt beam="1">  1       21 0.27081765E+00 0.17877107E+03</pdfrwt>
<pdfrwt beam="2">  1       21 0.33066947E-02 0.17877107E+03</pdfrwt>
<totfact> 0.27418864E+04</totfact>
</mgrwt>
</event>
<event>
12    1  0.1050690E-001  0.1980631E+03  0.7546771E-02  0.1152887E+00
         21   -1    0    0  503  502  0.00000000000E+00  0.00000000000E+00  0.10736622443E+04  0.10736622443E+04  0.00000000000E+00 0. -1.
         21   -1    0    0  501  503 -0.00000000000E+00 -0.00000000000E+00 -0.44265757799E+02  0.44265757799E+02  0.00000000000E+00 0. -1.
          6    2    1    2  501    0  0.60316194017E+02  0.31013025194E+02  0.25553053861E+03  0.31911794958E+03  0.17871921718E+03 0.  0.
         24    2    3    3    0    0  0.75739788276E+02  0.46123526554E+01  0.68868975270E+02  0.12991035988E+03  0.79849712116E+02 0.  0.
         -6    2    1    2    0  502 -0.60316194017E+02 -0.31013025194E+02  0.77386594790E+03  0.79881005253E+03  0.18608907466E+03 0.  0.
        -24    2    5    5    0    0 -0.63821191274E+02  0.19363033379E+02  0.70815241469E+03  0.71580167506E+03  0.80275301742E+02 0.  0.
          5    1    3    3  501    0 -0.15423594258E+02  0.26400672539E+02  0.18666156334E+03  0.18920758970E+03  0.47000000000E+01 0. -1.
        -13    1    4    4    0    0 -0.10192129873E+02 -0.42414174648E+01  0.35711260658E+02  0.37378647263E+02  0.00000000000E+00 0.  1.
         14    1    4    4    0    0  0.85931918148E+02  0.88537701202E+01  0.33157714612E+02  0.92531712620E+02  0.00000000000E+00 0. -1.
         -5    1    5    5    0  502  0.35049972563E+01 -0.50376058573E+02  0.65713533211E+02  0.83008377469E+02  0.47000000000E+01 0.  1.
         13    1    6    6    0    0 -0.16415195700E+02  0.45673054461E+02  0.27246899839E+03  0.27675773094E+03  0.00000000000E+00 0. -1.
        -14    1    6    6    0    0 -0.47405995574E+02 -0.26310021082E+02  0.43568341630E+03  0.43904394412E+03  0.00000000000E+00 0.  1.
<mgrwt>
<rscale>  2 0.19631314E+03</rscale>
<asrwt>0</asrwt>
<pdfrwt beam="1">  1       21 0.16517879E+00 0.19806311E+03</pdfrwt>
<pdfrwt beam="2">  1       21 0.68101174E-02 0.19806311E+03</pdfrwt>
<totfact> 0.36495780E+04</totfact>
</mgrwt>
</event>
<event>
12    1  0.1050690E-001  0.1823678E+03  0.7546771E-02  0.1165541E+00
         21   -1    0    0  503  502  0.00000000000E+00  0.00000000000E+00  0.44422191217E+03  0.44422191217E+03  0.00000000000E+00 0. -1.
         21   -1    0    0  501  503 -0.00000000000E+00 -0.00000000000E+00 -0.12524774804E+03  0.12524774804E+03  0.00000000000E+00 0. -1.
          6    2    1    2  501    0 -0.51874465946E+02 -0.21116582895E+02 -0.21118567586E+02  0.18358653322E+03  0.17355446117E+03 0.  0.
         24    2    3    3    0    0 -0.30621811521E+02 -0.50688806078E+02 -0.70161196756E+02  0.12232103575E+03  0.80825688088E+02 0.  0.
         -6    2    1    2    0  502  0.51874465946E+02  0.21116582895E+02  0.34009273171E+03  0.38588312698E+03  0.17351037789E+03 0.  0.
        -24    2    5    5    0    0 -0.30646947891E+02 -0.17799716781E+02  0.18336305271E+03  0.20447049125E+03  0.83247266395E+02 0.  0.
          5    1    3    3  501    0 -0.21252654425E+02  0.29572223183E+02  0.49042629171E+02  0.61265497468E+02  0.47000000000E+01 0. -1.
        -11    1    4    4    0    0  0.21159551745E+02 -0.18738036461E+02  0.15117403808E+01  0.28304169294E+02  0.00000000000E+00 0.  1.
         12    1    4    4    0    0 -0.51781363266E+02 -0.31950769616E+02 -0.71672937137E+02  0.94016866458E+02  0.00000000000E+00 0. -1.
         -5    1    5    5    0  502  0.82521413837E+02  0.38916299676E+02  0.15672967900E+03  0.18141263573E+03  0.47000000000E+01 0.  1.
         11    1    6    6    0    0 -0.95544369612E+01 -0.50584605813E+02  0.10252390125E+03  0.11472244741E+03  0.00000000000E+00 0. -1.
        -12    1    6    6    0    0 -0.21092510930E+02  0.32784889032E+02  0.80839151457E+02  0.89748043848E+02  0.00000000000E+00 0.  1.
<mgrwt>
<rscale>  2 0.18235733E+03</rscale>
<asrwt>0</asrwt>
<pdfrwt beam="1">  1       21 0.68341832E-01 0.18236782E+03</pdfrwt>
<pdfrwt beam="2">  1       21 0.19268885E-01 0.18236782E+03</pdfrwt>
<totfact> 0.48568628E+04</totfact>
</mgrwt>
</event>
<event>
12    1  0.1050690E-001  0.2434420E+03  0.7546771E-02  0.1117676E+00
         21   -1    0    0  503  502  0.00000000000E+00  0.00000000000E+00  0.15410418245E+04  0.15410418245E+04  0.00000000000E+00 0. -1.
         21   -1    0    0  501  503 -0.00000000000E+00 -0.00000000000E+00 -0.48456591648E+02  0.48456591648E+02  0.00000000000E+00 0. -1.
          6    2    1    2  501    0  0.12456699752E+03  0.11954133180E+03  0.38143158022E+03  0.45198953465E+03  0.17028629470E+03 0.  0.
         24    2    3    3    0    0  0.12247722800E+03  0.14639066304E+03  0.28848593232E+03  0.35510693978E+03  0.80286411847E+02 0.  0.
         -6    2    1    2    0  502 -0.12456699752E+03 -0.11954133180E+03  0.11111536526E+04  0.11375088814E+04  0.17163026789E+03 0.  0.
        -24    2    5    5    0    0 -0.81152218137E+02 -0.12315204472E+03  0.55478558481E+03  0.57941803119E+03  0.78651771243E+02 0.  0.
          5    1    3    3  501    0  0.20897695157E+01 -0.26849331243E+02  0.92945647901E+02  0.96882594869E+02  0.47000000000E+01 0. -1.
        -13    1    4    4    0    0  0.23160739514E+01 -0.97316051937E+01  0.15748076524E+02  0.18656640973E+02  0.00000000000E+00 0.  1.
         14    1    4    4    0    0  0.12016115405E+03  0.15612226824E+03  0.27273785580E+03  0.33645029881E+03  0.00000000000E+00 0. -1.
         -5    1    5    5    0  502 -0.43414779381E+02  0.36107129205E+01  0.55636806777E+03  0.55809085026E+03  0.47000000000E+01 0.  1.
         13    1    6    6    0    0 -0.57213135667E+01  0.60568329592E+01  0.10647950543E+03  0.10680497990E+03  0.00000000000E+00 0. -1.
        -14    1    6    6    0    0 -0.75430904570E+02 -0.12920887768E+03  0.44830607938E+03  0.47261305128E+03  0.00000000000E+00 0.  1.
<mgrwt>
<rscale>  2 0.24320526E+03</rscale>
<asrwt>0</asrwt>
<pdfrwt beam="1">  1       21 0.23708332E+00 0.24344202E+03</pdfrwt>
<pdfrwt beam="2">  1       21 0.74548614E-02 0.24344202E+03</pdfrwt>
<totfact> 0.10310359E+04</totfact>
</mgrwt>
</event>
<event>
12    1  0.1050690E-001  0.3144065E+03  0.7546771E-02  0.1078261E+00
         21   -1    0    0  503  502  0.00000000000E+00  0.00000000000E+00  0.18819057070E+03  0.18819057070E+03  0.00000000000E+00 0. -1.
         21   -1    0    0  501  503 -0.00000000000E+00 -0.00000000000E+00 -0.52566428406E+03  0.52566428406E+03  0.00000000000E+00 0. -1.
          6    2    1    2  501    0  0.26246342932E+03 -0.23148716688E+00 -0.17977229891E+03  0.36217333328E+03  0.17310210447E+03 0.  0.
         24    2    3    3    0    0  0.89353609383E+02 -0.69998178592E+01 -0.14040055233E+03  0.18445151558E+03  0.79227404006E+02 0.  0.
         -6    2    1    2    0  502 -0.26246342932E+03  0.23148716688E+00 -0.15770141445E+03  0.35168152148E+03  0.17298280584E+03 0.  0.
        -24    2    5    5    0    0 -0.20512960079E+03 -0.28466299746E+02 -0.50329539242E+02  0.22653544502E+03  0.76790376943E+02 0.  0.
          5    1    3    3  501    0  0.17310981994E+03  0.67683306923E+01 -0.39371746577E+02  0.17772181770E+03  0.47000000000E+01 0. -1.
        -13    1    4    4    0    0  0.35411155016E+01 -0.67537708577E+01  0.92225524685E+01  0.11966970955E+02  0.00000000000E+00 0.  1.
         14    1    4    4    0    0  0.85812493881E+02 -0.24604700149E+00 -0.14962310480E+03  0.17248454463E+03  0.00000000000E+00 0. -1.
         -5    1    5    5    0  502 -0.57333828531E+02  0.28697786913E+02 -0.10737187521E+03  0.12514607646E+03  0.47000000000E+01 0.  1.
         13    1    6    6    0    0 -0.16033238811E+03  0.77689545254E+01 -0.52469080565E+02  0.16887816835E+03  0.00000000000E+00 0. -1.
        -14    1    6    6    0    0 -0.44797212679E+02 -0.36235254272E+02  0.21395413225E+01  0.57657276670E+02  0.00000000000E+00 0.  1.
<mgrwt>
<rscale>  2 0.31439008E+03</rscale>
<asrwt>0</asrwt>
<pdfrwt beam="1">  1       21 0.28952396E-01 0.31440649E+03</pdfrwt>
<pdfrwt beam="2">  1       21 0.80871428E-01 0.31440649E+03</pdfrwt>
<totfact> 0.14388922E+04</totfact>
</mgrwt>
</event>
<event>
12    1  0.1050690E-001  0.2057853E+03  0.7546771E-02  0.1144959E+00
         21   -1    0    0  503  502  0.00000000000E+00  0.00000000000E+00  0.58683694084E+03  0.58683694084E+03  0.00000000000E+00 0. -1.
         21   -1    0    0  501  503 -0.00000000000E+00 -0.00000000000E+00 -0.13636935330E+03  0.13636935330E+03  0.00000000000E+00 0. -1.
          6    2    1    2  501    0 -0.62538497404E+02  0.92161157225E+02 -0.22909566607E+02  0.20705664946E+03  0.17304006843E+03 0.  0.
         24    2    3    3    0    0 -0.37208372794E+02  0.13082319071E+03 -0.86746549549E+01  0.15846559312E+03  0.80851248183E+02 0.  0.
         -6    2    1    2    0  502  0.62538497404E+02 -0.92161157225E+02  0.47337715414E+03  0.51614964468E+03  0.17297335947E+03 0.  0.
        -24    2    5    5    0    0  0.28130567996E+02  0.17813349590E+02  0.16372312730E+03  0.18571658929E+03  0.81097132171E+02 0.  0.
          5    1    3    3  501    0 -0.25330124609E+02 -0.38662033483E+02 -0.14234911652E+02  0.48591056332E+02  0.47000000000E+01 0. -1.
        -13    1    4    4    0    0  0.13158429375E+02  0.10985163650E+02  0.18969218445E+02  0.25566566693E+02  0.00000000000E+00 0.  1.
         14    1    4    4    0    0 -0.50366802170E+02  0.11983802706E+03 -0.27643873400E+02  0.13289902643E+03  0.00000000000E+00 0. -1.
         -5    1    5    5    0  502  0.34407929407E+02 -0.10997450682E+03  0.30965402684E+03  0.33043305539E+03  0.47000000000E+01 0.  1.
         13    1    6    6    0    0 -0.24127200776E+02 -0.94152516350E+01  0.73742238710E+02  0.78158086918E+02  0.00000000000E+00 0. -1.
        -14    1    6    6    0    0  0.52257768773E+02  0.27228601225E+02  0.89980888588E+02  0.10755850237E+03  0.00000000000E+00 0.  1.
<mgrwt>
<rscale>  2 0.20577132E+03</rscale>
<asrwt>0</asrwt>
<pdfrwt beam="1">  1       21 0.90282604E-01 0.20578534E+03</pdfrwt>
<pdfrwt beam="2">  1       21 0.20979901E-01 0.20578534E+03</pdfrwt>
<totfact> 0.21839771E+04</totfact>
</mgrwt>
</event>
<event>
12    1  0.1050690E-001  0.2091259E+03  0.7546771E-02  0.1142570E+00
         21   -1    0    0  503  502  0.00000000000E+00  0.00000000000E+00  0.58004716517E+03  0.58004716517E+03  0.00000000000E+00 0.  1.
         21   -1    0    0  501  503 -0.00000000000E+00 -0.00000000000E+00 -0.77344101162E+02  0.77344101162E+02  0.00000000000E+00 0.  1.
          6    2    1    2  501    0  0.81344672375E+02  0.79355723042E+02  0.30960081319E+03  0.37274743015E+03  0.17370577611E+03 0.  0.
         24    2    3    3    0    0 -0.23385063387E+02  0.54645208489E+02  0.15408938634E+03  0.18357866697E+03  0.80153777107E+02 0.  0.
         -6    2    1    2    0  502 -0.81344672375E+02 -0.79355723042E+02  0.19310225082E+03  0.28464383618E+03  0.17555440097E+03 0.  0.
        -24    2    5    5    0    0 -0.13345699071E+02  0.18390665462E+02  0.11998048698E+03  0.14483289532E+03  0.77877635118E+02 0.  0.
          5    1    3    3  501    0  0.10472973576E+03  0.24710514552E+02  0.15551142685E+03  0.18916876318E+03  0.47000000000E+01 0. -1.
        -11    1    4    4    0    0 -0.30849304839E+02  0.29292996639E+02  0.15110883871E+03  0.15698293028E+03  0.00000000000E+00 0.  1.
         12    1    4    4    0    0  0.74642414515E+01  0.25352211850E+02  0.29805476241E+01  0.26595736694E+02  0.00000000000E+00 0. -1.
         -5    1    5    5    0  502 -0.67998973305E+02 -0.97746388504E+02  0.73121763837E+02  0.13981094085E+03  0.47000000000E+01 0.  1.
         13    1    6    6    0    0 -0.24440027922E+02  0.39055068590E+02  0.38489370866E+02  0.60033699012E+02  0.00000000000E+00 0. -1.
        -14    1    6    6    0    0  0.11094328852E+02 -0.20664403128E+02  0.81491116113E+02  0.84799196309E+02  0.00000000000E+00 0.  1.
<mgrwt>
<rscale>  2 0.20873744E+03</rscale>
<asrwt>0</asrwt>
<pdfrwt beam="1">  1       21 0.89238023E-01 0.20912588E+03</pdfrwt>
<pdfrwt beam="2">  1       21 0.11899093E-01 0.20912588E+03</pdfrwt>
<totfact> 0.63334938E+04</totfact>
</mgrwt>
</event>
<event>
12    1  0.1050690E-001  0.1957349E+03  0.7546771E-02  0.1153529E+00
         21   -1    0    0  501  502  0.00000000000E+00  0.00000000000E+00  0.19331145366E+03  0.19331145366E+03  0.00000000000E+00 0.  1.
         21   -1    0    0  502  503 -0.00000000000E+00 -0.00000000000E+00 -0.21723299367E+03  0.21723299367E+03  0.00000000000E+00 0.  1.
         -6    2    1    2    0  503 -0.58467536525E+02  0.69815864613E+02 -0.73755038640E+02  0.20856537462E+03  0.17253116236E+03 0.  0.
        -24    2    3    3    0    0 -0.94334948405E+02  0.12049733774E+02 -0.28776433817E+02  0.12690411086E+03  0.78944864526E+02 0.  0.
          6    2    1    2  501    0  0.58467536525E+02 -0.69815864613E+02  0.49833498629E+02  0.20197907271E+03  0.17326124912E+03 0.  0.
         24    2    5    5    0    0  0.16064952966E+02  0.14469764866E+02 -0.13761661595E+02  0.88099834770E+02  0.84289624198E+02 0.  0.
          5    1    5    5  501    0  0.42402583559E+02 -0.84285629479E+02  0.63595160223E+02  0.11387923794E+03  0.47000000000E+01 0. -1.
        -13    1    6    6    0    0  0.34929039494E+02  0.60847830267E+01  0.25546929755E+02  0.43700206000E+02  0.00000000000E+00 0.  1.
         14    1    6    6    0    0 -0.18864086528E+02  0.83849818389E+01 -0.39308591350E+02  0.44399628770E+02  0.00000000000E+00 0. -1.
         -5    1    3    3    0  503  0.35867411880E+02  0.57766130839E+02 -0.44978604823E+02  0.81661263760E+02  0.47000000000E+01 0.  1.
         13    1    4    4    0    0 -0.26125055873E+02 -0.23034610581E+02  0.15736586345E+02  0.38219785175E+02  0.00000000000E+00 0. -1.
        -14    1    4    4    0    0 -0.68209892532E+02  0.35084344355E+02 -0.44513020162E+02  0.88684325684E+02  0.00000000000E+00 0.  1.
<mgrwt>
<rscale>  2 0.19557325E+03</rscale>
<asrwt>0</asrwt>
<pdfrwt beam="1">  1       21 0.29740224E-01 0.19573494E+03</pdfrwt>
<pdfrwt beam="2">  1       21 0.33420460E-01 0.19573494E+03</pdfrwt>
<totfact> 0.93339305E+04</totfact>
</mgrwt>
</event>
<event>
12    1  0.1050690E-001  0.2600036E+03  0.7546771E-02  0.1107142E+00
         21   -1    0    0  501  502  0.00000000000E+00  0.00000000000E+00  0.21205611307E+03  0.21205611307E+03  0.00000000000E+00 0.  1.
         21   -1    0    0  502  503 -0.00000000000E+00 -0.00000000000E+00 -0.32500716689E+03  0.32500716689E+03  0.00000000000E+00 0.  1.
         -6    2    1    2    0  503  0.67426720151E+01 -0.19384979386E+03 -0.93641612258E+02  0.27635232656E+03  0.17314343950E+03 0.  0.
        -24    2    3    3    0    0 -0.69176579426E+01 -0.20921100391E+03 -0.11019905808E+03  0.24954168687E+03  0.79436282243E+02 0.  0.
          6    2    1    2  501    0 -0.67426720151E+01  0.19384979386E+03 -0.19309441557E+02  0.26071095340E+03  0.17313041466E+03 0.  0.
         24    2    5    5    0    0  0.23426144912E+02  0.92674158936E+02  0.52511518309E+02  0.13293377667E+03  0.76004246088E+02 0.  0.
          5    1    5    5  501    0 -0.30168816927E+02  0.10117563493E+03 -0.71820959867E+02  0.12777717673E+03  0.47000000000E+01 0. -1.
        -13    1    6    6    0    0 -0.22091355290E+02  0.63998451226E+02  0.22577331602E+02  0.71369220538E+02  0.00000000000E+00 0.  1.
         14    1    6    6    0    0  0.45517500202E+02  0.28675707710E+02  0.29934186708E+02  0.61564556128E+02  0.00000000000E+00 0. -1.
         -5    1    3    3    0  503  0.13660329958E+02  0.15361210046E+02  0.16557445821E+02  0.26810639693E+02  0.47000000000E+01 0.  1.
         11    1    4    4    0    0  0.12004423589E+02 -0.36262640897E+01  0.45518154036E+01  0.13340727133E+02  0.00000000000E+00 0. -1.
        -12    1    4    4    0    0 -0.18922081532E+02 -0.20558473982E+03 -0.11475087348E+03  0.23620095974E+03  0.00000000000E+00 0.  1.
<mgrwt>
<rscale>  2 0.26000140E+03</rscale>
<asrwt>0</asrwt>
<pdfrwt beam="1">  1       21 0.32624018E-01 0.26000357E+03</pdfrwt>
<pdfrwt beam="2">  1       21 0.50001102E-01 0.26000357E+03</pdfrwt>
<totfact> 0.33360653E+04</totfact>
</mgrwt>
</event>
<event>
12    1  0.1050690E-001  0.1761883E+03  0.7546771E-02  0.1171684E+00
         21   -1    0    0  503  502  0.00000000000E+00  0.00000000000E+00  0.93137862924E+02  0.93137862924E+02  0.00000000000E+00 0.  1.
         21   -1    0    0  501  503 -0.00000000000E+00 -0.00000000000E+00 -0.43424928158E+03  0.43424928158E+03  0.00000000000E+00 0.  1.
          6    2    1    2  501    0  0.23311369352E+02  0.23600338701E+02 -0.29857294125E+03  0.34668158004E+03  0.17303733921E+03 0.  0.
         24    2    3    3    0    0  0.44872929321E+02  0.74780724497E+02 -0.23741830414E+03  0.26393913386E+03  0.75436587284E+02 0.  0.
         -6    2    1    2    0  502 -0.23311369352E+02 -0.23600338701E+02 -0.42538477403E+02  0.18070556447E+03  0.17246617941E+03 0.  0.
        -24    2    5    5    0    0  0.16561758887E+02 -0.71403170195E+02 -0.27838591863E+01  0.10669545216E+03  0.77482030613E+02 0.  0.
          5    1    3    3  501    0 -0.21561559969E+02 -0.51180385796E+02 -0.61154637117E+02  0.82742446178E+02  0.47000000000E+01 0. -1.
        -11    1    4    4    0    0  0.32948782030E+02 -0.44711374619E+01 -0.93119378691E+02  0.98877864030E+02  0.00000000000E+00 0.  1.
         12    1    4    4    0    0  0.11924147290E+02  0.79251861959E+02 -0.14429892545E+03  0.16506126983E+03  0.00000000000E+00 0. -1.
         -5    1    5    5    0  502 -0.39873128239E+02  0.47802831494E+02 -0.39754618217E+02  0.74010112309E+02  0.47000000000E+01 0.  1.
         11    1    6    6    0    0  0.11742481531E+02 -0.19051843131E+02 -0.37517182363E+02  0.43685209987E+02  0.00000000000E+00 0. -1.
        -12    1    6    6    0    0  0.48192773568E+01 -0.52351327065E+02  0.34733323176E+02  0.63010242172E+02  0.00000000000E+00 0.  1.
<mgrwt>
<rscale>  2 0.17604790E+03</rscale>
<asrwt>0</asrwt>
<pdfrwt beam="1">  1       21 0.14328902E-01 0.17618830E+03</pdfrwt>
<pdfrwt beam="2">  1       21 0.66807580E-01 0.17618830E+03</pdfrwt>
<totfact> 0.88104468E+04</totfact>
</mgrwt>
</event>
<event>
12    1  0.1050690E-001  0.1846130E+03  0.7546771E-02  0.1163690E+00
         21   -1    0    0  503  502  0.00000000000E+00  0.00000000000E+00  0.75436739537E+03  0.75436739537E+03  0.00000000000E+00 0. -1.
         21   -1    0    0  501  503 -0.00000000000E+00 -0.00000000000E+00 -0.15879661107E+03  0.15879661107E+03  0.00000000000E+00 0.  1.
          6    2    1    2  501    0  0.27967556201E+02  0.58829038427E+02 -0.89184234452E+02  0.20395925082E+03  0.17147159636E+03 0.  0.
         24    2    3    3    0    0  0.14692103086E+02  0.10619419302E+03 -0.62647323283E+02  0.14787009697E+03  0.80298281044E+02 0.  0.
         -6    2    1    2    0  502 -0.27967556201E+02 -0.58829038427E+02  0.68475501875E+03  0.70920475562E+03  0.17273942725E+03 0.  0.
        -24    2    5    5    0    0 -0.97724396284E+01 -0.57027259877E+02  0.18995187222E+03  0.21404159817E+03  0.79902960170E+02 0.  0.
          5    1    3    3  501    0  0.13275453115E+02 -0.47365154595E+02 -0.26536911169E+02  0.56089153850E+02  0.47000000000E+01 0. -1.
        -13    1    4    4    0    0 -0.21925648137E+02  0.15758774870E+02 -0.39072935963E+02  0.47494919269E+02  0.00000000000E+00 0.  1.
         14    1    4    4    0    0  0.36617751223E+02  0.90435418152E+02 -0.23574387320E+02  0.10037517770E+03  0.00000000000E+00 0. -1.
         -5    1    5    5    0  502 -0.18195116573E+02 -0.18017785499E+01  0.49480314653E+03  0.49516315745E+03  0.47000000000E+01 0.  1.
         13    1    6    6    0    0  0.11936217824E+02 -0.36372701384E+02  0.17751966012E+03  0.18160032057E+03  0.00000000000E+00 0. -1.
        -14    1    6    6    0    0 -0.21708657452E+02 -0.20654558493E+02  0.12432212099E+02  0.32441277604E+02  0.00000000000E+00 0.  1.
<mgrwt>
<rscale>  2 0.18431582E+03</rscale>
<asrwt>0</asrwt>
<pdfrwt beam="1">  1       21 0.11605652E+00 0.18461297E+03</pdfrwt>
<pdfrwt beam="2">  1       21 0.24430248E-01 0.18461297E+03</pdfrwt>
<totfact> 0.91277982E+03</totfact>
</mgrwt>
</event>
<event>
12    1  0.1050690E-001  0.2757425E+03  0.7546771E-02  0.1098349E+00
         21   -1    0    0  501  502  0.00000000000E+00  0.00000000000E+00  0.53822684757E+03  0.53822684757E+03  0.00000000000E+00 0.  1.
         21   -1    0    0  502  503 -0.00000000000E+00 -0.00000000000E+00 -0.15241666455E+03  0.15241666455E+03  0.00000000000E+00 0.  1.
         -6    2    1    2    0  503 -0.16631606287E+03 -0.13130076441E+03  0.95578355188E+02  0.29183756293E+03  0.17644550902E+03 0.  0.
        -24    2    3    3    0    0 -0.49354950411E+02 -0.42499669454E+02 -0.23589883330E+02  0.10265855943E+03  0.75763871303E+02 0.  0.
          6    2    1    2  501    0  0.16631606287E+03  0.13130076441E+03  0.29023182783E+03  0.39880594918E+03  0.17294723968E+03 0.  0.
         24    2    5    5    0    0  0.15033984757E+03  0.12914644920E+03  0.30759160325E+03  0.37465367533E+03  0.80448163071E+02 0.  0.
          5    1    5    5  501    0  0.15976215306E+02  0.21543152139E+01 -0.17359775421E+02  0.24152273851E+02  0.47000000000E+01 0. -1.
        -11    1    6    6    0    0  0.83175690391E+02  0.26714079454E+02  0.16480525535E+03  0.18652777194E+03  0.00000000000E+00 0.  1.
         12    1    6    6    0    0  0.67164157177E+02  0.10243236974E+03  0.14278634790E+03  0.18812590339E+03  0.00000000000E+00 0. -1.
         -5    1    3    3    0  503 -0.11696111246E+03 -0.88801094957E+02  0.11916823852E+03  0.18917900350E+03  0.47000000000E+01 0.  1.
         13    1    4    4    0    0  0.12518124497E+02 -0.30462372604E+02 -0.21998277749E+02  0.39605350769E+02  0.00000000000E+00 0. -1.
        -14    1    4    4    0    0 -0.61873074908E+02 -0.12037296849E+02 -0.15916055810E+01  0.63053208660E+02  0.00000000000E+00 0.  1.
<mgrwt>
<rscale>  2 0.27518451E+03</rscale>
<asrwt>0</asrwt>
<pdfrwt beam="1">  1       21 0.82804129E-01 0.27574253E+03</pdfrwt>
<pdfrwt beam="2">  1       21 0.23448718E-01 0.27574253E+03</pdfrwt>
<totfact> 0.20841936E+04</totfact>
</mgrwt>
</event>
<event>
12    1  0.1050690E-001  0.1952711E+03  0.7546771E-02  0.1154517E+00
         21   -1    0    0  501  502  0.00000000000E+00  0.00000000000E+00  0.96746760059E+03  0.96746760059E+03  0.00000000000E+00 0.  1.
         21   -1    0    0  502  503 -0.00000000000E+00 -0.00000000000E+00 -0.62131183517E+02  0.62131183517E+02  0.00000000000E+00 0. -1.
         -6    2    1    2    0  503  0.18256087535E+02  0.82838531161E+02  0.13445619587E+03  0.23437106173E+03  0.17220864958E+03 0.  0.
        -24    2    3    3    0    0 -0.56353713273E+02  0.57107938702E+02  0.82799007698E+02  0.13992932913E+03  0.79293655569E+02 0.  0.
          6    2    1    2  501    0 -0.18256087535E+02 -0.82838531161E+02  0.77088022120E+03  0.79522772238E+03  0.17588435982E+03 0.  0.
         24    2    5    5    0    0  0.51486525225E+02 -0.35902423256E+02  0.54883266595E+03  0.55775301415E+03  0.77014825181E+02 0.  0.
          5    1    5    5  501    0 -0.69742612760E+02 -0.46936107905E+02  0.22204755525E+03  0.23747470823E+03  0.47000000000E+01 0. -1.
        -13    1    6    6    0    0  0.14798203346E+02 -0.55368859961E+02  0.28995633159E+03  0.29556618837E+03  0.00000000000E+00 0.  1.
         14    1    6    6    0    0  0.36688321879E+02  0.19466436705E+02  0.25887633436E+03  0.26218682578E+03  0.00000000000E+00 0. -1.
         -5    1    3    3    0  503  0.74609800808E+02  0.25730592459E+02  0.51657188177E+02  0.94441732593E+02  0.47000000000E+01 0.  1.
         11    1    4    4    0    0 -0.45953658136E+02  0.76842891621E+02  0.58547622628E+02  0.10697846888E+03  0.00000000000E+00 0. -1.
        -12    1    4    4    0    0 -0.10400055137E+02 -0.19734952919E+02  0.24251385070E+02  0.32950860252E+02  0.00000000000E+00 0.  1.
<mgrwt>
<rscale>  2 0.19443980E+03</rscale>
<asrwt>0</asrwt>
<pdfrwt beam="1">  1       21 0.14884116E+00 0.19527113E+03</pdfrwt>
<pdfrwt beam="2">  1       21 0.95586443E-02 0.19527113E+03</pdfrwt>
<totfact> 0.26761349E+04</totfact>
</mgrwt>
</event>
<event>
12    1  0.1050690E-001  0.1956350E+03  0.7546771E-02  0.1153588E+00
         21   -1    0    0  501  502  0.00000000000E+00  0.00000000000E+00  0.13809194948E+03  0.13809194948E+03  0.00000000000E+00 0. -1.
         21   -1    0    0  502  503 -0.00000000000E+00 -0.00000000000E+00 -0.28016613295E+03  0.28016613295E+03  0.00000000000E+00 0. -1.
         -6    2    1    2    0  503 -0.85697876765E+02  0.27495134514E+02 -0.95318968487E+02  0.21762066490E+03  0.17370359678E+03 0.  0.
        -24    2    3    3    0    0 -0.11020277260E+03 -0.12953221921E+02 -0.73227019963E+02  0.16521166140E+03  0.98082921878E+02 0.  0.
          6    2    1    2  501    0  0.85697876765E+02 -0.27495134514E+02 -0.46755214978E+02  0.20063741753E+03  0.17311618838E+03 0.  0.
         24    2    5    5    0    0  0.11869963831E+02  0.29085491907E+02 -0.51115592124E+02  0.10740099276E+03  0.89080343549E+02 0.  0.
          5    1    5    5  501    0  0.73827912933E+02 -0.56580626421E+02  0.43603771464E+01  0.93236424766E+02  0.47000000000E+01 0. -1.
        -13    1    6    6    0    0  0.36180266363E+02  0.66167794105E+01 -0.62394953472E+02  0.72428748868E+02  0.00000000000E+00 0.  1.
         14    1    6    6    0    0 -0.24310302531E+02  0.22468712497E+02  0.11279361348E+02  0.34972243892E+02  0.00000000000E+00 0. -1.
         -5    1    3    3    0  503  0.24504895836E+02  0.40448356435E+02 -0.22091948524E+02  0.52409003499E+02  0.47000000000E+01 0.  1.
         11    1    4    4    0    0 -0.41914260863E+02 -0.22176180917E+01 -0.85272566488E+02  0.95042799249E+02  0.00000000000E+00 0. -1.
        -12    1    4    4    0    0 -0.68288511738E+02 -0.10735603829E+02  0.12045546525E+02  0.70168862155E+02  0.00000000000E+00 0.  1.
<mgrwt>
<rscale>  2 0.19550451E+03</rscale>
<asrwt>0</asrwt>
<pdfrwt beam="1">  1       21 0.21244916E-01 0.19563499E+03</pdfrwt>
<pdfrwt beam="2">  1       21 0.43102481E-01 0.19563499E+03</pdfrwt>
<totfact> 0.10657049E+05</totfact>
</mgrwt>
</event>
<event>
12    1  0.1050690E-001  0.1796807E+03  0.7546771E-02  0.1168249E+00
         21   -1    0    0  503  502  0.00000000000E+00  0.00000000000E+00  0.78127637744E+02  0.78127637744E+02  0.00000000000E+00 0.  1.
         21   -1    0    0  501  503 -0.00000000000E+00 -0.00000000000E+00 -0.42259702954E+03  0.42259702954E+03  0.00000000000E+00 0.  1.
          6    2    1    2  501    0 -0.46008065986E+02  0.23870012966E+02 -0.21224508796E+03  0.27808837192E+03  0.17204256910E+03 0.  0.
         24    2    3    3    0    0 -0.60694542678E+02 -0.20927743339E+02 -0.60957594396E+02  0.11955595481E+03  0.80349238102E+02 0.  0.
         -6    2    1    2    0  502  0.46008065986E+02 -0.23870012966E+02 -0.13222430384E+03  0.22263629536E+03  0.17145592388E+03 0.  0.
        -24    2    5    5    0    0  0.55765892406E+01  0.16452569145E+02 -0.28398098834E+01  0.81133460706E+02  0.79200937790E+02 0.  0.
          5    1    3    3  501    0  0.14686476692E+02  0.44797756305E+02 -0.15128749356E+03  0.15853241711E+03  0.47000000000E+01 0. -1.
        -11    1    4    4    0    0 -0.44934382337E+02  0.62039901840E+00 -0.76457414294E+02  0.88686074506E+02  0.00000000000E+00 0.  1.
         12    1    4    4    0    0 -0.15760160341E+02 -0.21548142358E+02  0.15499819897E+02  0.30869880302E+02  0.00000000000E+00 0. -1.
         -5    1    5    5    0  502  0.40431476745E+02 -0.40322582111E+02 -0.12938449395E+03  0.14150283465E+03  0.47000000000E+01 0.  1.
         13    1    6    6    0    0 -0.34740187919E+02  0.17554019275E+02 -0.99612638214E+01  0.40177742922E+02  0.00000000000E+00 0. -1.
        -14    1    6    6    0    0  0.40316777160E+02 -0.11014501305E+01  0.71214539380E+01  0.40955717783E+02  0.00000000000E+00 0.  1.
<mgrwt>
<rscale>  2 0.17954016E+03</rscale>
<asrwt>0</asrwt>
<pdfrwt beam="1">  1       21 0.12019637E-01 0.17968073E+03</pdfrwt>
<pdfrwt beam="2">  1       21 0.65014928E-01 0.17968073E+03</pdfrwt>
<totfact> 0.12804532E+05</totfact>
</mgrwt>
</event>
<event>
12    1  0.1050690E-001  0.1815213E+03  0.7546771E-02  0.1166612E+00
         21   -1    0    0  503  502  0.00000000000E+00  0.00000000000E+00  0.78958692472E+03  0.78958692472E+03  0.00000000000E+00 0. -1.
         21   -1    0    0  501  503 -0.00000000000E+00 -0.00000000000E+00 -0.60040772840E+02  0.60040772840E+02  0.00000000000E+00 0.  1.
          6    2    1    2  501    0  0.46601247276E+01 -0.55099328150E+02  0.12771578897E+03  0.22101831851E+03  0.17169776248E+03 0.  0.
         24    2    3    3    0    0 -0.53035844064E+02  0.56709758301E+01  0.77566115490E+02  0.12324851534E+03  0.79553337704E+02 0.  0.
         -6    2    1    2    0  502 -0.46601247276E+01  0.55099328150E+02  0.60183036291E+03  0.62860937905E+03  0.17289393566E+03 0.  0.
        -24    2    5    5    0    0 -0.21923626321E+02 -0.12478536519E+02  0.24301348980E+03  0.26304620433E+03  0.97475074381E+02 0.  0.
          5    1    3    3  501    0  0.57695968792E+02 -0.60770303980E+02  0.50149673480E+02  0.97769803164E+02  0.47000000000E+01 0. -1.
        -11    1    4    4    0    0 -0.11933054191E+02 -0.20933920859E+02 -0.73809223034E+01  0.25201286454E+02  0.00000000000E+00 0.  1.
         12    1    4    4    0    0 -0.41102789873E+02  0.26604896689E+02  0.84947037794E+02  0.98047228891E+02  0.00000000000E+00 0. -1.
         -5    1    5    5    0  502  0.17263501593E+02  0.67577864668E+02  0.35881687311E+03  0.36556317472E+03  0.47000000000E+01 0.  1.
         11    1    6    6    0    0 -0.15667409961E+02  0.35739525752E+02  0.46980543834E+02  0.61073340622E+02  0.00000000000E+00 0. -1.
        -12    1    6    6    0    0 -0.62562163601E+01 -0.48218062270E+02  0.19603294597E+03  0.20197286371E+03  0.00000000000E+00 0.  1.
<mgrwt>
<rscale>  2 0.18123584E+03</rscale>
<asrwt>0</asrwt>
<pdfrwt beam="1">  1       21 0.12147490E+00 0.18152125E+03</pdfrwt>
<pdfrwt beam="2">  1       21 0.92370425E-02 0.18152125E+03</pdfrwt>
<totfact> 0.48091583E+04</totfact>
</mgrwt>
</event>
<event>
12    1  0.1050690E-001  0.1744377E+03  0.7546771E-02  0.1173480E+00
         21   -1    0    0  503  502  0.00000000000E+00  0.00000000000E+00  0.10411231088E+03  0.10411231088E+03  0.00000000000E+00 0. -1.
         21   -1    0    0  501  503 -0.00000000000E+00 -0.00000000000E+00 -0.30985811959E+03  0.30985811959E+03  0.00000000000E+00 0. -1.
          6    2    1    2  501    0 -0.17216692649E+02 -0.80528767567E+00 -0.15406338023E+03  0.23273171465E+03  0.17358416656E+03 0.  0.
         24    2    3    3    0    0 -0.38238487990E+01  0.58915797938E+02 -0.50259940732E+02  0.11213643951E+03  0.81011273028E+02 0.  0.
         -6    2    1    2    0  502  0.17216692649E+02  0.80528767567E+00 -0.51682428483E+02  0.18123871583E+03  0.17285640199E+03 0.  0.
        -24    2    5    5    0    0 -0.19617704690E+01  0.60511702001E+02 -0.29315412124E+01  0.10166856836E+03  0.81623460078E+02 0.  0.
          5    1    3    3  501    0 -0.13392843850E+02 -0.59721085613E+02 -0.10380343950E+03  0.12059527514E+03  0.47000000000E+01 0. -1.
        -13    1    4    4    0    0 -0.12697240736E+02  0.34982190763E+01  0.18920756757E+02  0.23053253464E+02  0.00000000000E+00 0.  1.
         14    1    4    4    0    0  0.88733919375E+01  0.55417578861E+02 -0.69180697489E+02  0.89083186047E+02  0.00000000000E+00 0. -1.
         -5    1    5    5    0  502  0.19178463118E+02 -0.59706414325E+02 -0.48750887270E+02  0.79570147473E+02  0.47000000000E+01 0.  1.
         11    1    6    6    0    0  0.35002972317E+02  0.63548883488E+01  0.36880365855E+01  0.35765825739E+02  0.00000000000E+00 0. -1.
        -12    1    6    6    0    0 -0.36964742786E+02  0.54156813652E+02 -0.66195777980E+01  0.65902742617E+02  0.00000000000E+00 0.  1.
<mgrwt>
<rscale>  2 0.17425641E+03</rscale>
<asrwt>0</asrwt>
<pdfrwt beam="1">  1       21 0.16017279E-01 0.17443774E+03</pdfrwt>
<pdfrwt beam="2">  1       21 0.47670480E-01 0.17443774E+03</pdfrwt>
<totfact> 0.14730354E+05</totfact>
</mgrwt>
</event>
<event>
12    1  0.1050690E-001  0.2324275E+03  0.7546771E-02  0.1125357E+00
         21   -1    0    0  501  502  0.00000000000E+00  0.00000000000E+00  0.87004826152E+02  0.87004826152E+02  0.00000000000E+00 0.  1.
         21   -1    0    0  502  503 -0.00000000000E+00 -0.00000000000E+00 -0.68700424365E+03  0.68700424365E+03  0.00000000000E+00 0. -1.
         -6    2    1    2    0  503  0.16543736176E+01  0.15271227601E+03 -0.17297662053E+03  0.28782907218E+03  0.17204908411E+03 0.  0.
        -24    2    3    3    0    0 -0.48227493727E+02  0.15137881804E+03 -0.12034741354E+03  0.21515237558E+03  0.81028433709E+02 0.  0.
          6    2    1    2  501    0 -0.16543736176E+01 -0.15271227601E+03 -0.42702279697E+03  0.48617999762E+03  0.17521057264E+03 0.  0.
         24    2    5    5    0    0 -0.54098724585E+02 -0.10625414981E+03 -0.36501860103E+03  0.39250301137E+03  0.81261420669E+02 0.  0.
          5    1    5    5  501    0  0.52444350968E+02 -0.46458126204E+02 -0.62004195938E+02  0.93676986249E+02  0.47000000000E+01 0. -1.
        -11    1    6    6    0    0  0.92911753491E+01 -0.28770027706E+02 -0.29017856182E+02  0.41905565394E+02  0.00000000000E+00 0.  1.
         12    1    6    6    0    0 -0.63389899934E+02 -0.77484122100E+02 -0.33600074485E+03  0.35059744598E+03  0.00000000000E+00 0. -1.
         -5    1    3    3    0  503  0.49881867345E+02  0.13334579712E+01 -0.52629206994E+02  0.72676696601E+02  0.47000000000E+01 0.  1.
         13    1    4    4    0    0  0.19047879821E+02  0.70427149459E+02 -0.53325622202E+02  0.90368285864E+02  0.00000000000E+00 0. -1.
        -14    1    4    4    0    0 -0.67275373548E+02  0.80951668579E+02 -0.67021791336E+02  0.12478408971E+03  0.00000000000E+00 0.  1.
<mgrwt>
<rscale>  2 0.23183171E+03</rscale>
<asrwt>0</asrwt>
<pdfrwt beam="1">  1       21 0.13385358E-01 0.23242745E+03</pdfrwt>
<pdfrwt beam="2">  1       21 0.10569296E+00 0.23242745E+03</pdfrwt>
<totfact> 0.33952602E+04</totfact>
</mgrwt>
</event>
<event>
12    1  0.1050690E-001  0.1995949E+03  0.7546771E-02  0.1150195E+00
         21   -1    0    0  503  502  0.00000000000E+00  0.00000000000E+00  0.96848952523E+03  0.96848952523E+03  0.00000000000E+00 0. -1.
         21   -1    0    0  501  503 -0.00000000000E+00 -0.00000000000E+00 -0.41039720024E+02  0.41039720024E+02  0.00000000000E+00 0.  1.
          6    2    1    2  501    0 -0.10576675006E+02  0.97537773125E+02  0.47445449007E+03  0.51472825724E+03  0.17381781384E+03 0.  0.
         24    2    3    3    0    0  0.24423923286E+02  0.41576340980E+01  0.12290772612E+03  0.14928043676E+03  0.81021760719E+02 0.  0.
         -6    2    1    2    0  502  0.10576675006E+02 -0.97537773125E+02  0.45299531513E+03  0.49480098801E+03  0.17319866907E+03 0.  0.
        -24    2    5    5    0    0  0.10209590864E+02 -0.19650515862E+02  0.93574971865E+02  0.12700806700E+03  0.82972255626E+02 0.  0.
          5    1    3    3  501    0 -0.35000598292E+02  0.93380139028E+02  0.35154676395E+03  0.36544782048E+03  0.47000000000E+01 0. -1.
        -13    1    4    4    0    0  0.41214983435E+02 -0.24955536516E+02  0.52471589204E+02  0.71237078379E+02  0.00000000000E+00 0.  1.
         14    1    4    4    0    0 -0.16791060150E+02  0.29113170614E+02  0.70436136915E+02  0.78043358383E+02  0.00000000000E+00 0. -1.
         -5    1    5    5    0  502  0.36708414196E+00 -0.77887257264E+02  0.35942034327E+03  0.36779292101E+03  0.47000000000E+01 0.  1.
         13    1    6    6    0    0 -0.11746006316E+02 -0.29644656763E+01  0.98287832444E+02  0.99031584496E+02  0.00000000000E+00 0. -1.
        -14    1    6    6    0    0  0.21955597181E+02 -0.16686050186E+02 -0.47128605792E+01  0.27976482502E+02  0.00000000000E+00 0.  1.
<mgrwt>
<rscale>  2 0.19946000E+03</rscale>
<asrwt>0</asrwt>
<pdfrwt beam="1">  1       21 0.14899837E+00 0.19959488E+03</pdfrwt>
<pdfrwt beam="2">  1       21 0.63138038E-02 0.19959488E+03</pdfrwt>
<totfact> 0.54752190E+04</totfact>
</mgrwt>
</event>
<event>
12    1  0.1050690E-001  0.2144688E+03  0.7546771E-02  0.1139179E+00
         21   -1    0    0  503  502  0.00000000000E+00  0.00000000000E+00  0.13948698810E+04  0.13948698810E+04  0.00000000000E+00 0. -1.
         21   -1    0    0  501  503 -0.00000000000E+00 -0.00000000000E+00 -0.42025297016E+02  0.42025297016E+02  0.00000000000E+00 0. -1.
          6    2    1    2  501    0  0.11624240167E+03  0.21779488573E+02  0.33442520491E+03  0.39728718040E+03  0.17891406865E+03 0.  0.
         24    2    3    3    0    0  0.85599060630E+02  0.45416594962E+02  0.10387754725E+03  0.16346665179E+03  0.80876048027E+02 0.  0.
         -6    2    1    2    0  502 -0.11624240167E+03 -0.21779488573E+02  0.10184193791E+04  0.10396079976E+04  0.17210495336E+03 0.  0.
        -24    2    5    5    0    0 -0.11359578286E+03 -0.70385177394E+02  0.68512066461E+03  0.70274060436E+03  0.81215496434E+02 0.  0.
          5    1    3    3  501    0  0.30643341038E+02 -0.23637106389E+02  0.23054765766E+03  0.23382052861E+03  0.47000000000E+01 0. -1.
        -13    1    4    4    0    0  0.43136990516E+02  0.23459477451E+02 -0.15681892486E-01  0.49103434492E+02  0.00000000000E+00 0.  1.
         14    1    4    4    0    0  0.42462070114E+02  0.21957117512E+02  0.10389322914E+03  0.11436321729E+03  0.00000000000E+00 0. -1.
         -5    1    5    5    0  502 -0.26466188060E+01  0.48605688820E+02  0.33329871445E+03  0.33686739325E+03  0.47000000000E+01 0.  1.
         11    1    6    6    0    0 -0.95697182058E+02 -0.18457177184E+02  0.50925981032E+03  0.51850185385E+03  0.00000000000E+00 0. -1.
        -12    1    6    6    0    0 -0.17898600804E+02 -0.51928000210E+02  0.17586085429E+03  0.18423875051E+03  0.00000000000E+00 0.  1.
<mgrwt>
<rscale>  2 0.21304306E+03</rscale>
<asrwt>0</asrwt>
<pdfrwt beam="1">  1       21 0.21459533E+00 0.21446885E+03</pdfrwt>
<pdfrwt beam="2">  1       21 0.64654314E-02 0.21446885E+03</pdfrwt>
<totfact> 0.18525513E+04</totfact>
</mgrwt>
</event>
<event>
12    1  0.1050690E-001  0.1780576E+03  0.7546771E-02  0.1170516E+00
         21   -1    0    0  503  502  0.00000000000E+00  0.00000000000E+00  0.14695005172E+03  0.14695005172E+03  0.00000000000E+00 0.  1.
         21   -1    0    0  501  503 -0.00000000000E+00 -0.00000000000E+00 -0.27380506912E+03  0.27380506912E+03  0.00000000000E+00 0.  1.
          6    2    1    2  501    0  0.14825833324E+02  0.13476522461E+02 -0.16402828211E+03  0.24209461142E+03  0.17692682542E+03 0.  0.
         24    2    3    3    0    0  0.65624897827E+01  0.79011727916E+02 -0.11021318600E+03  0.15676407427E+03  0.78371609611E+02 0.  0.
         -6    2    1    2    0  502 -0.14825833324E+02 -0.13476522461E+02  0.37173264716E+02  0.17866050943E+03  0.17359811067E+03 0.  0.
        -24    2    5    5    0    0 -0.19280357146E+01 -0.23430712756E+02 -0.44988263154E+02  0.94767448037E+02  0.80026306699E+02 0.  0.
          5    1    3    3  501    0  0.82633435414E+01 -0.65535205454E+02 -0.53815096108E+02  0.85330537146E+02  0.47000000000E+01 0. -1.
        -13    1    4    4    0    0  0.31221125734E+02  0.10926583247E+02 -0.60424913817E+02  0.68886276741E+02  0.00000000000E+00 0.  1.
         14    1    4    4    0    0 -0.24658635951E+02  0.68085144669E+02 -0.49788272188E+02  0.87877797532E+02  0.00000000000E+00 0. -1.
         -5    1    5    5    0  502 -0.12897797609E+02  0.99541902942E+01  0.82161527870E+02  0.83893061391E+02  0.47000000000E+01 0.  1.
         13    1    6    6    0    0  0.10097986648E+02  0.10806431884E+02  0.17250297869E+02  0.22722699685E+02  0.00000000000E+00 0. -1.
        -14    1    6    6    0    0 -0.12026022362E+02 -0.34237144640E+02 -0.62238561023E+02  0.72044748352E+02  0.00000000000E+00 0.  1.
<mgrwt>
<rscale>  2 0.17722503E+03</rscale>
<asrwt>0</asrwt>
<pdfrwt beam="1">  1       21 0.22607701E-01 0.17805764E+03</pdfrwt>
<pdfrwt beam="2">  1       21 0.42123856E-01 0.17805764E+03</pdfrwt>
<totfact> 0.99995352E+04</totfact>
</mgrwt>
</event>
<event>
12    1  0.1050690E-001  0.1807492E+03  0.7546771E-02  0.1167099E+00
         21   -1    0    0  501  502  0.00000000000E+00  0.00000000000E+00  0.17524661735E+03  0.17524661735E+03  0.00000000000E+00 0.  1.
         21   -1    0    0  502  503 -0.00000000000E+00 -0.00000000000E+00 -0.71806739510E+03  0.71806739510E+03  0.00000000000E+00 0.  1.
         -6    2    1    2    0  503  0.41102728298E+02 -0.32820041127E+02 -0.65578320151E+03  0.68023664228E+03  0.17292684220E+03 0.  0.
        -24    2    3    3    0    0  0.37058733662E+01  0.23503130195E+02 -0.16374556381E+03  0.18355369382E+03  0.79455762662E+02 0.  0.
          6    2    1    2  501    0 -0.41102728298E+02  0.32820041127E+02  0.11296242375E+03  0.21307737017E+03  0.17284347580E+03 0.  0.
         24    2    5    5    0    0  0.14546923739E+01  0.13317703543E+02  0.13654656605E+03  0.16044869934E+03  0.83182588696E+02 0.  0.
          5    1    5    5  501    0 -0.42557420672E+02  0.19502337583E+02 -0.23584142298E+02  0.52628670831E+02  0.47000000000E+01 0. -1.
        -11    1    6    6    0    0 -0.14913564088E+02  0.45630958802E+02  0.75853139177E+02  0.89768020575E+02  0.00000000000E+00 0.  1.
         12    1    6    6    0    0  0.16368256461E+02 -0.32313255259E+02  0.60693426875E+02  0.70680678766E+02  0.00000000000E+00 0. -1.
         -5    1    3    3    0  503  0.37396854932E+02 -0.56323171322E+02 -0.49203763770E+03  0.49668294847E+03  0.47000000000E+01 0.  1.
         13    1    4    4    0    0  0.62991297522E+01 -0.20136648602E+02 -0.93312275136E+01  0.23070228856E+02  0.00000000000E+00 0. -1.
        -14    1    4    4    0    0 -0.25932563861E+01  0.43639778797E+02 -0.15441433630E+03  0.16048346496E+03  0.00000000000E+00 0.  1.
<mgrwt>
<rscale>  2 0.18072928E+03</rscale>
<asrwt>0</asrwt>
<pdfrwt beam="1">  1       21 0.26961018E-01 0.18074922E+03</pdfrwt>
<pdfrwt beam="2">  1       21 0.11047191E+00 0.18074922E+03</pdfrwt>
<totfact> 0.85461324E+03</totfact>
</mgrwt>
</event>
<event>
12    1  0.1050690E-001  0.2432317E+03  0.7546771E-02  0.1117678E+00
         21   -1    0    0  503  502  0.00000000000E+00  0.00000000000E+00  0.32120471006E+03  0.32120471006E+03  0.00000000000E+00 0.  1.
         21   -1    0    0  501  503 -0.00000000000E+00 -0.00000000000E+00 -0.18496729779E+03  0.18496729779E+03  0.00000000000E+00 0. -1.
          6    2    1    2  501    0  0.16316089833E+03 -0.51781006550E+02  0.50742926909E+02  0.24835233846E+03  0.17263049558E+03 0.  0.
         24    2    3    3    0    0  0.11500773416E+02 -0.25621003526E+02  0.58691713857E+00  0.86417615305E+02  0.81724880866E+02 0.  0.
         -6    2    1    2    0  502 -0.16316089833E+03  0.51781006550E+02  0.85494485370E+02  0.25781966939E+03  0.17279734811E+03 0.  0.
        -24    2    5    5    0    0 -0.13418564544E+03 -0.21752597069E+01  0.11111175231E+03  0.19126759719E+03  0.78911045094E+02 0.  0.
          5    1    3    3  501    0  0.15166012491E+03 -0.26160003024E+02  0.50156009770E+02  0.16193472315E+03  0.47000000000E+01 0. -1.
        -13    1    4    4    0    0  0.25535891519E+02 -0.35207692507E+02 -0.29014951374E+02  0.52283178658E+02  0.00000000000E+00 0.  1.
         14    1    4    4    0    0 -0.14035118104E+02  0.95866889809E+01  0.29601868513E+02  0.34134436648E+02  0.00000000000E+00 0. -1.
         -5    1    5    5    0  502 -0.28975252893E+02  0.53956266256E+02 -0.25617266940E+02  0.66552072199E+02  0.47000000000E+01 0.  1.
         11    1    6    6    0    0 -0.10006017114E+03 -0.16416757310E+02  0.36092588949E+02  0.10763002715E+03  0.00000000000E+00 0. -1.
        -12    1    6    6    0    0 -0.34125474301E+02  0.14241497603E+02  0.75019163361E+02  0.83637570037E+02  0.00000000000E+00 0.  1.
<mgrwt>
<rscale>  2 0.24320210E+03</rscale>
<asrwt>0</asrwt>
<pdfrwt beam="1">  1       21 0.49416109E-01 0.24323173E+03</pdfrwt>
<pdfrwt beam="2">  1       21 0.28456507E-01 0.24323173E+03</pdfrwt>
<totfact> 0.45041539E+04</totfact>
</mgrwt>
</event>
<event>
12    1  0.1050690E-001  0.2040657E+03  0.7546771E-02  0.1146587E+00
         21   -1    0    0  503  502  0.00000000000E+00  0.00000000000E+00  0.20556703389E+03  0.20556703389E+03  0.00000000000E+00 0.  1.
         21   -1    0    0  501  503 -0.00000000000E+00 -0.00000000000E+00 -0.24142235514E+03  0.24142235514E+03  0.00000000000E+00 0.  1.
          6    2    1    2  501    0 -0.82190444180E+00 -0.10964070592E+03 -0.10890789560E+03  0.23130875672E+03  0.17210767353E+03 0.  0.
         24    2    3    3    0    0  0.57699118647E+02 -0.35998960156E+02 -0.44897761101E+02  0.11743512421E+03  0.84558181280E+02 0.  0.
         -6    2    1    2    0  502  0.82190444180E+00  0.10964070592E+03  0.73052574349E+02  0.21568063231E+03  0.17076210532E+03 0.  0.
        -24    2    5    5    0    0 -0.13055103077E+02  0.43688130825E+02  0.10612293243E+03  0.14046060783E+03  0.79925071612E+02 0.  0.
          5    1    3    3  501    0 -0.58521023089E+02 -0.73641745762E+02 -0.64010134500E+02  0.11387363251E+03  0.47000000000E+01 0. -1.
        -11    1    4    4    0    0  0.22033432096E+02 -0.61034343553E+02 -0.28579460383E+02  0.70904504643E+02  0.00000000000E+00 0.  1.
         12    1    4    4    0    0  0.35665686550E+02  0.25035383397E+02 -0.16318300718E+02  0.46530619567E+02  0.00000000000E+00 0. -1.
         -5    1    5    5    0  502  0.13877007519E+02  0.65952575093E+02 -0.33070358085E+02  0.75220024481E+02  0.47000000000E+01 0.  1.
         13    1    6    6    0    0  0.40211027286E+01  0.51886888724E+02  0.10948276287E+03  0.12122249731E+03  0.00000000000E+00 0. -1.
        -14    1    6    6    0    0 -0.17076205806E+02 -0.81987578991E+01 -0.33598304351E+01  0.19238110520E+02  0.00000000000E+00 0.  1.
<mgrwt>
<rscale>  2 0.20378172E+03</rscale>
<asrwt>0</asrwt>
<pdfrwt beam="1">  1       21 0.31625698E-01 0.20406570E+03</pdfrwt>
<pdfrwt beam="2">  1       21 0.37141900E-01 0.20406570E+03</pdfrwt>
<totfact> 0.66851367E+04</totfact>
</mgrwt>
</event>
<event>
12    1  0.1050690E-001  0.1964632E+03  0.7546771E-02  0.1153241E+00
         21   -1    0    0  501  502  0.00000000000E+00  0.00000000000E+00  0.38918915647E+03  0.38918915647E+03  0.00000000000E+00 0. -1.
         21   -1    0    0  502  503 -0.00000000000E+00 -0.00000000000E+00 -0.98371475197E+02  0.98371475197E+02  0.00000000000E+00 0.  1.
         -6    2    1    2    0  503 -0.40055306656E+02 -0.81936414022E+02  0.16007980051E+03  0.25342319712E+03  0.17401083521E+03 0.  0.
        -24    2    3    3    0    0 -0.34830259682E+02  0.23598132013E+02  0.73458714142E+02  0.11671129520E+03  0.80345036681E+02 0.  0.
          6    2    1    2  501    0  0.40055306656E+02  0.81936414022E+02  0.13073788075E+03  0.23413743455E+03  0.17149326884E+03 0.  0.
         24    2    5    5    0    0 -0.83694206489E+01  0.15266782644E+02  0.33733988456E+01  0.82369205938E+02  0.80437456529E+02 0.  0.
          5    1    5    5  501    0  0.48424727305E+02  0.66669631378E+02  0.12736448191E+03  0.15176822861E+03  0.47000000000E+01 0. -1.
        -11    1    6    6    0    0 -0.12765919328E+02  0.27079955329E+02 -0.32594186590E+02  0.44256905409E+02  0.00000000000E+00 0.  1.
         12    1    6    6    0    0  0.43964986788E+01 -0.11813172686E+02  0.35967585436E+02  0.38112300529E+02  0.00000000000E+00 0. -1.
         -5    1    3    3    0  503 -0.52250469741E+01 -0.10553454603E+03  0.86621086373E+02  0.13671190192E+03  0.47000000000E+01 0.  1.
         13    1    4    4    0    0 -0.49999584542E+02  0.41440020898E+02  0.41416185220E+02  0.77022945831E+02  0.00000000000E+00 0. -1.
        -14    1    4    4    0    0  0.15169324860E+02 -0.17841888885E+02  0.32042528923E+02  0.39688349367E+02  0.00000000000E+00 0.  1.
<mgrwt>
<rscale>  2 0.19590420E+03</rscale>
<asrwt>0</asrwt>
<pdfrwt beam="1">  1       21 0.59875254E-01 0.19646316E+03</pdfrwt>
<pdfrwt beam="2">  1       21 0.15134073E-01 0.19646316E+03</pdfrwt>
<totfact> 0.10030872E+05</totfact>
</mgrwt>
</event>
<event>
12    1  0.1050690E-001  0.1938869E+03  0.7546771E-02  0.1158005E+00
         21   -1    0    0  503  502  0.00000000000E+00  0.00000000000E+00  0.59190995254E+02  0.59190995254E+02  0.00000000000E+00 0.  1.
         21   -1    0    0  501  503 -0.00000000000E+00 -0.00000000000E+00 -0.85261060345E+03  0.85261060345E+03  0.00000000000E+00 0.  1.
          6    2    1    2  501    0 -0.28658164442E+02 -0.30977052809E+02 -0.65801718523E+03  0.68598742002E+03  0.18923862232E+03 0.  0.
         24    2    3    3    0    0  0.17015503062E+02 -0.87894523682E+02 -0.39215457549E+03  0.41025077093E+03  0.80656737678E+02 0.  0.
         -6    2    1    2    0  502  0.28658164442E+02  0.30977052809E+02 -0.13540242297E+03  0.22581417868E+03  0.17571954632E+03 0.  0.
        -24    2    5    5    0    0  0.55997838483E+02 -0.29255411382E+02 -0.41300811635E+02  0.11069419443E+03  0.80967960510E+02 0.  0.
          5    1    3    3  501    0 -0.45673667504E+02  0.56917470873E+02 -0.26586260974E+03  0.27573664909E+03  0.47000000000E+01 0. -1.
        -13    1    4    4    0    0  0.46539034237E+02 -0.69482569143E+02 -0.30884727470E+03  0.31996929261E+03  0.00000000000E+00 0.  1.
         14    1    4    4    0    0 -0.29523531176E+02 -0.18411954539E+02 -0.83307300792E+02  0.90281478324E+02  0.00000000000E+00 0. -1.
         -5    1    5    5    0  502 -0.27339674040E+02  0.60232464191E+02 -0.94101611331E+02  0.11511998425E+03  0.47000000000E+01 0.  1.
         13    1    6    6    0    0  0.33372722116E+02  0.22381868008E+02 -0.36205207911E+02  0.54087925425E+02  0.00000000000E+00 0. -1.
        -14    1    6    6    0    0  0.22625116366E+02 -0.51637279390E+02 -0.50956037245E+01  0.56606269006E+02  0.00000000000E+00 0.  1.
<mgrwt>
<rscale>  2 0.19050676E+03</rscale>
<asrwt>0</asrwt>
<pdfrwt beam="1">  1       21 0.91063081E-02 0.19388689E+03</pdfrwt>
<pdfrwt beam="2">  1       21 0.13117085E+00 0.19388689E+03</pdfrwt>
<totfact> 0.40409605E+04</totfact>
</mgrwt>
</event>
<event>
12    1  0.1050690E-001  0.1795751E+03  0.7546771E-02  0.1170903E+00
         21   -1    0    0  503  502  0.00000000000E+00  0.00000000000E+00  0.53208218288E+03  0.53208218288E+03  0.00000000000E+00 0.  1.
         21   -1    0    0  501  503 -0.00000000000E+00 -0.00000000000E+00 -0.19644245896E+03  0.19644245896E+03  0.00000000000E+00 0.  1.
          6    2    1    2  501    0  0.16908884170E+02  0.46050052303E+02 -0.13749048377E+03  0.22616549788E+03  0.17274455599E+03 0.  0.
         24    2    3    3    0    0 -0.47369687855E+02  0.26026648657E+01 -0.43490930470E+02  0.10419248317E+03  0.81938704677E+02 0.  0.
         -6    2    1    2    0  502 -0.16908884170E+02 -0.46050052303E+02  0.47313020769E+03  0.50235914396E+03  0.16157350777E+03 0.  0.
        -24    2    5    5    0    0 -0.42675411166E+02  0.20824132182E+01  0.40366115325E+03  0.41387927238E+03  0.80797266659E+02 0.  0.
          5    1    3    3  501    0  0.64278572024E+02  0.43447387437E+02 -0.93999553300E+02  0.12197301471E+03  0.47000000000E+01 0. -1.
        -13    1    4    4    0    0 -0.22637379639E+02  0.24320533664E+02 -0.59073224567E+02  0.67775992618E+02  0.00000000000E+00 0.  1.
         14    1    4    4    0    0 -0.24732308215E+02 -0.21717868798E+02  0.15582294097E+02  0.36416490552E+02  0.00000000000E+00 0. -1.
         -5    1    5    5    0  502  0.25766526997E+02 -0.48132465521E+02  0.69469054439E+02  0.88479871582E+02  0.47000000000E+01 0.  1.
         13    1    6    6    0    0 -0.85265333823E+01 -0.35342488196E+02  0.10924528277E+03  0.11513611532E+03  0.00000000000E+00 0. -1.
        -14    1    6    6    0    0 -0.34148877784E+02  0.37424901415E+02  0.29441587048E+03  0.29874315706E+03  0.00000000000E+00 0.  1.
<mgrwt>
<rscale>  2 0.17683326E+03</rscale>
<asrwt>0</asrwt>
<pdfrwt beam="1">  1       21 0.81858797E-01 0.17957505E+03</pdfrwt>
<pdfrwt beam="2">  1       21 0.30221917E-01 0.17957505E+03</pdfrwt>
<totfact> 0.13832802E+04</totfact>
</mgrwt>
</event>
<event>
12    1  0.1050690E-001  0.1810883E+03  0.7546771E-02  0.1166809E+00
         21   -1    0    0  503  502  0.00000000000E+00  0.00000000000E+00  0.44876118117E+03  0.44876118117E+03  0.00000000000E+00 0.  1.
         21   -1    0    0  501  503 -0.00000000000E+00 -0.00000000000E+00 -0.73577636994E+02  0.73577636994E+02  0.00000000000E+00 0. -1.
          6    2    1    2  501    0  0.10653052832E+02  0.51711607038E+02  0.21119816688E+03  0.27820430644E+03  0.17322064713E+03 0.  0.
         24    2    3    3    0    0 -0.16424435539E+02 -0.21352468707E+02  0.47874290104E+02  0.97184063748E+02  0.80169224712E+02 0.  0.
         -6    2    1    2    0  502 -0.10653052832E+02 -0.51711607038E+02  0.16398537730E+03  0.24413451172E+03  0.17298230548E+03 0.  0.
        -24    2    5    5    0    0 -0.19573692912E+02 -0.10072948452E+03  0.12228242491E+03  0.17899192680E+03  0.80966412244E+02 0.  0.
          5    1    3    3  501    0  0.27077488371E+02  0.73064075745E+02  0.16332387678E+03  0.18102024270E+03  0.47000000000E+01 0. -1.
        -11    1    4    4    0    0 -0.23202031789E+02 -0.40742423548E+01  0.66706047512E+02  0.70743413153E+02  0.00000000000E+00 0.  1.
         12    1    4    4    0    0  0.67775962502E+01 -0.17278226352E+02 -0.18831757408E+02  0.26440650595E+02  0.00000000000E+00 0. -1.
         -5    1    5    5    0  502  0.89206400802E+01  0.49017877482E+02  0.41702952385E+02  0.65142584919E+02  0.47000000000E+01 0.  1.
         13    1    6    6    0    0 -0.74001532487E+01 -0.20227331862E+02 -0.99332473560E+01  0.23718697802E+02  0.00000000000E+00 0. -1.
        -14    1    6    6    0    0 -0.12173539664E+02 -0.80502152658E+02  0.13221567227E+03  0.15527322900E+03  0.00000000000E+00 0.  1.
<mgrwt>
<rscale>  2 0.18103127E+03</rscale>
<asrwt>0</asrwt>
<pdfrwt beam="1">  1       21 0.69040180E-01 0.18108829E+03</pdfrwt>
<pdfrwt beam="2">  1       21 0.11319637E-01 0.18108829E+03</pdfrwt>
<totfact> 0.12491597E+05</totfact>
</mgrwt>
</event>
<event>
12    1  0.1050690E-001  0.2248549E+03  0.7546771E-02  0.1130496E+00
         21   -1    0    0  503  502  0.00000000000E+00  0.00000000000E+00  0.23261720234E+03  0.23261720234E+03  0.00000000000E+00 0. -1.
         21   -1    0    0  501  503 -0.00000000000E+00 -0.00000000000E+00 -0.75023125951E+03  0.75023125951E+03  0.00000000000E+00 0. -1.
          6    2    1    2  501    0  0.13709164820E+03 -0.41617656311E+02 -0.67351265513E+03  0.71005564107E+03  0.17330195458E+03 0.  0.
         24    2    3    3    0    0  0.96565184986E+02 -0.92193939170E+02 -0.53797286095E+03  0.55974436266E+03  0.77938405423E+02 0.  0.
         -6    2    1    2    0  502 -0.13709164820E+03  0.41617656311E+02  0.15589859796E+03  0.27279282079E+03  0.17200407235E+03 0.  0.
        -24    2    5    5    0    0 -0.74792376681E+02  0.91451795481E+02  0.10281362040E+03  0.17685145588E+03  0.82149049903E+02 0.  0.
          5    1    3    3  501    0  0.40526463215E+02  0.50576282859E+02 -0.13553979419E+03  0.15031127841E+03  0.47000000000E+01 0. -1.
        -13    1    4    4    0    0  0.14726964376E+01 -0.10189195021E+02 -0.37407875537E+01  0.10953630517E+02  0.00000000000E+00 0.  1.
         14    1    4    4    0    0  0.95092488549E+02 -0.82004744149E+02 -0.53423207339E+03  0.54879073214E+03  0.00000000000E+00 0. -1.
         -5    1    5    5    0  502 -0.62299271520E+02 -0.49834139170E+02  0.53084977553E+02  0.95941364909E+02  0.47000000000E+01 0.  1.
         13    1    6    6    0    0 -0.35517937508E+02  0.24888289153E+02  0.88072452023E+02  0.98171827054E+02  0.00000000000E+00 0. -1.
        -14    1    6    6    0    0 -0.39274439173E+02  0.66563506328E+02  0.14741168382E+02  0.78679628827E+02  0.00000000000E+00 0.  1.
<mgrwt>
<rscale>  2 0.22460477E+03</rscale>
<asrwt>0</asrwt>
<pdfrwt beam="1">  1       21 0.35787262E-01 0.22485488E+03</pdfrwt>
<pdfrwt beam="2">  1       21 0.11542019E+00 0.22485488E+03</pdfrwt>
<totfact> 0.42656256E+03</totfact>
</mgrwt>
</event>
<event>
12    1  0.1050690E-001  0.2132801E+03  0.7546771E-02  0.1139394E+00
         21   -1    0    0  503  502  0.00000000000E+00  0.00000000000E+00  0.59425546682E+02  0.59425546682E+02  0.00000000000E+00 0. -1.
         21   -1    0    0  501  503 -0.00000000000E+00 -0.00000000000E+00 -0.80386923953E+03  0.80386923953E+03  0.00000000000E+00 0. -1.
          6    2    1    2  501    0 -0.74397377434E+02 -0.10045335912E+03 -0.27096756886E+03  0.34483594983E+03  0.17280787537E+03 0.  0.
         24    2    3    3    0    0  0.90966942916E+01 -0.10271909962E+03 -0.12782677441E+03  0.17904158735E+03  0.71289848303E+02 0.  0.
         -6    2    1    2    0  502  0.74397377434E+02  0.10045335912E+03 -0.47347612399E+03  0.51845883639E+03  0.17027647493E+03 0.  0.
        -24    2    5    5    0    0  0.10938922638E+03  0.75037952374E+02 -0.43245949911E+03  0.45866898851E+03  0.75890220095E+02 0.  0.
          5    1    3    3  501    0 -0.83494071725E+02  0.22657404942E+01 -0.14314079445E+03  0.16579436248E+03  0.47000000000E+01 0. -1.
        -13    1    4    4    0    0 -0.16453318244E+01 -0.69896261229E+02 -0.12643410048E+03  0.14447759763E+03  0.00000000000E+00 0.  1.
         14    1    4    4    0    0  0.10742026116E+02 -0.32822838386E+02 -0.13926739258E+01  0.34563989721E+02  0.00000000000E+00 0. -1.
         -5    1    5    5    0  502 -0.34991848946E+02  0.25415406747E+02 -0.41016624877E+02  0.59789847877E+02  0.47000000000E+01 0.  1.
         11    1    6    6    0    0  0.98560512263E+02  0.43779897438E+02 -0.39115640675E+03  0.40575138760E+03  0.00000000000E+00 0. -1.
        -12    1    6    6    0    0  0.10828714116E+02  0.31258054936E+02 -0.41303092368E+02  0.52917600919E+02  0.00000000000E+00 0.  1.
<mgrwt>
<rscale>  2 0.21276681E+03</rscale>
<asrwt>0</asrwt>
<pdfrwt beam="1">  1       21 0.91423914E-02 0.21328012E+03</pdfrwt>
<pdfrwt beam="2">  1       21 0.12367220E+00 0.21328012E+03</pdfrwt>
<totfact> 0.46045246E+04</totfact>
</mgrwt>
</event>
<event>
12    1  0.1050690E-001  0.1875603E+03  0.7546771E-02  0.1160770E+00
         21   -1    0    0  501  502  0.00000000000E+00  0.00000000000E+00  0.98759205407E+03  0.98759205407E+03  0.00000000000E+00 0. -1.
         21   -1    0    0  502  503 -0.00000000000E+00 -0.00000000000E+00 -0.35552394907E+02  0.35552394907E+02  0.00000000000E+00 0.  1.
         -6    2    1    2    0  503 -0.22326742064E+02  0.68845563746E+02  0.48292663805E+03  0.51807046532E+03  0.17303373728E+03 0.  0.
        -24    2    3    3    0    0  0.54413971890E+02  0.55338468942E+02  0.27274808561E+03  0.29386365745E+03  0.77078560465E+02 0.  0.
          6    2    1    2  501    0  0.22326742064E+02 -0.68845563746E+02  0.46911302111E+03  0.50507398366E+03  0.17261085521E+03 0.  0.
         24    2    5    5    0    0  0.79281609286E+02 -0.28710152510E+02  0.31701105747E+03  0.33770670646E+03  0.80249377555E+02 0.  0.
          5    1    5    5  501    0 -0.56954867223E+02 -0.40135411236E+02  0.15210196364E+03  0.16736727721E+03  0.47000000000E+01 0. -1.
        -13    1    6    6    0    0 -0.14389375092E+02 -0.34129788523E+01  0.17716287113E+02  0.23077464532E+02  0.00000000000E+00 0.  1.
         14    1    6    6    0    0  0.93670984378E+02 -0.25297173657E+02  0.29929477036E+03  0.31462924192E+03  0.00000000000E+00 0. -1.
         -5    1    3    3    0  503 -0.76740713954E+02  0.13507094803E+02  0.21017855244E+03  0.22420680787E+03  0.47000000000E+01 0.  1.
         13    1    4    4    0    0  0.58408413574E+02  0.49589345064E+02  0.12967611577E+03  0.15062051959E+03  0.00000000000E+00 0. -1.
        -14    1    4    4    0    0 -0.39944416841E+01  0.57491238781E+01  0.14307196984E+03  0.14324313786E+03  0.00000000000E+00 0.  1.
<mgrwt>
<rscale>  2 0.18746272E+03</rscale>
<asrwt>0</asrwt>
<pdfrwt beam="1">  1       21 0.15193722E+00 0.18756031E+03</pdfrwt>
<pdfrwt beam="2">  1       21 0.54696000E-02 0.18756031E+03</pdfrwt>
<totfact> 0.66908923E+04</totfact>
</mgrwt>
</event>
<event>
12    1  0.1050690E-001  0.2312702E+03  0.7546771E-02  0.1127389E+00
         21   -1    0    0  501  502  0.00000000000E+00  0.00000000000E+00  0.14564241457E+03  0.14564241457E+03  0.00000000000E+00 0. -1.
         21   -1    0    0  502  503 -0.00000000000E+00 -0.00000000000E+00 -0.35406484816E+03  0.35406484816E+03  0.00000000000E+00 0.  1.
         -6    2    1    2    0  503 -0.97962088443E+02 -0.11312571837E+03 -0.11702168595E+03  0.25103076572E+03  0.16409866369E+03 0.  0.
        -24    2    3    3    0    0 -0.68510381597E+02 -0.84310956900E+02 -0.10185302234E+02  0.13642798914E+03  0.81895335635E+02 0.  0.
          6    2    1    2  501    0  0.97962088443E+02  0.11312571837E+03 -0.91400747639E+02  0.24867649701E+03  0.17632896689E+03 0.  0.
         24    2    5    5    0    0  0.10179063883E+03  0.55599250630E+02 -0.16418280337E+01  0.14189304353E+03  0.81721046110E+02 0.  0.
          5    1    5    5  501    0 -0.38285503890E+01  0.57526467744E+02 -0.89758919605E+02  0.10678345348E+03  0.47000000000E+01 0. -1.
        -13    1    6    6    0    0  0.26793333505E+02  0.13001151672E+02 -0.38010814072E+02  0.48288038390E+02  0.00000000000E+00 0.  1.
         14    1    6    6    0    0  0.74997305326E+02  0.42598098959E+02  0.36368986038E+02  0.93605005136E+02  0.00000000000E+00 0. -1.
         -5    1    3    3    0  503 -0.29451706846E+02 -0.28814761474E+02 -0.10683638372E+03  0.11460277658E+03  0.47000000000E+01 0.  1.
         11    1    4    4    0    0  0.12879750413E+00  0.14615234593E+02 -0.64172198144E+01  0.15962530537E+02  0.00000000000E+00 0. -1.
        -12    1    4    4    0    0 -0.68639179101E+02 -0.98926191492E+02 -0.37680824201E+01  0.12046545860E+03  0.00000000000E+00 0.  1.
<mgrwt>
<rscale>  2 0.22893924E+03</rscale>
<asrwt>0</asrwt>
<pdfrwt beam="1">  1       21 0.22406526E-01 0.23127020E+03</pdfrwt>
<pdfrwt beam="2">  1       21 0.54471514E-01 0.23127020E+03</pdfrwt>
<totfact> 0.58349085E+04</totfact>
</mgrwt>
</event>
<event>
12    1  0.1050690E-001  0.2454791E+03  0.7546771E-02  0.1116298E+00
         21   -1    0    0  503  502  0.00000000000E+00  0.00000000000E+00  0.11462745211E+03  0.11462745211E+03  0.00000000000E+00 0. -1.
         21   -1    0    0  501  503 -0.00000000000E+00 -0.00000000000E+00 -0.54276402886E+03  0.54276402886E+03  0.00000000000E+00 0.  1.
          6    2    1    2  501    0 -0.13720448100E+03 -0.10636099104E+03 -0.27487794317E+03  0.36853473752E+03  0.17355759592E+03 0.  0.
         24    2    3    3    0    0 -0.10935013792E+03 -0.10468963554E+03 -0.11351898972E+03  0.20471331122E+03  0.78125580400E+02 0.  0.
         -6    2    1    2    0  502  0.13720448100E+03  0.10636099104E+03 -0.15325863358E+03  0.28885674344E+03  0.17266232781E+03 0.  0.
        -24    2    5    5    0    0  0.31686742523E+01  0.33107095391E+02 -0.33494976165E+02  0.94699193100E+02  0.82096915190E+02 0.  0.
          5    1    3    3  501    0 -0.27854343077E+02 -0.16713555004E+01 -0.16135895345E+03  0.16382142630E+03  0.47000000000E+01 0. -1.
        -11    1    4    4    0    0 -0.79089012456E+02 -0.66175443988E+02 -0.11657141465E+03  0.15563790024E+03  0.00000000000E+00 0.  1.
         12    1    4    4    0    0 -0.30261125464E+02 -0.38514191548E+02  0.30524249308E+01  0.49075410981E+02  0.00000000000E+00 0. -1.
         -5    1    5    5    0  502  0.13403580674E+03  0.73253895645E+02 -0.11976365742E+03  0.19415755034E+03  0.47000000000E+01 0.  1.
         11    1    6    6    0    0  0.88621811691E+00  0.40133608609E+01  0.27117476031E+02  0.27427175469E+02  0.00000000000E+00 0. -1.
        -12    1    6    6    0    0  0.22824561354E+01  0.29093734530E+02 -0.60612452196E+02  0.67272017631E+02  0.00000000000E+00 0.  1.
<mgrwt>
<rscale>  2 0.24532087E+03</rscale>
<asrwt>0</asrwt>
<pdfrwt beam="1">  1       21 0.17634993E-01 0.24547906E+03</pdfrwt>
<pdfrwt beam="2">  1       21 0.83502157E-01 0.24547906E+03</pdfrwt>
<totfact> 0.35442130E+04</totfact>
</mgrwt>
</event>
<event>
12    1  0.1050690E-001  0.1904112E+03  0.7546771E-02  0.1158508E+00
         21   -1    0    0  503  502  0.00000000000E+00  0.00000000000E+00  0.22293559527E+03  0.22293559527E+03  0.00000000000E+00 0.  1.
         21   -1    0    0  501  503 -0.00000000000E+00 -0.00000000000E+00 -0.21883086150E+03  0.21883086150E+03  0.00000000000E+00 0.  1.
          6    2    1    2  501    0  0.65458929484E+02  0.35694753357E+02 -0.11143004747E+03  0.22061974231E+03  0.17520681594E+03 0.  0.
         24    2    3    3    0    0  0.82966809026E+02  0.21009774252E+02 -0.14048235352E+03  0.18335983163E+03  0.80997741871E+02 0.  0.
         -6    2    1    2    0  502 -0.65458929484E+02 -0.35694753357E+02  0.11553478124E+03  0.22114671445E+03  0.17320102993E+03 0.  0.
        -24    2    5    5    0    0 -0.33957586031E+02 -0.23461921072E+02  0.14688740010E+03  0.17481040542E+03  0.85318170086E+02 0.  0.
          5    1    3    3  501    0 -0.17507879541E+02  0.14684979105E+02  0.29052306056E+02  0.37259910688E+02  0.47000000000E+01 0. -1.
        -13    1    4    4    0    0  0.45887253718E+00  0.27704177080E+02 -0.11284418750E+02  0.29917722143E+02  0.00000000000E+00 0.  1.
         14    1    4    4    0    0  0.82507936488E+02 -0.66944028282E+01 -0.12919793477E+03  0.15344210948E+03  0.00000000000E+00 0. -1.
         -5    1    5    5    0  502 -0.31501343453E+02 -0.12232832285E+02 -0.31352618859E+02  0.46336309029E+02  0.47000000000E+01 0.  1.
         11    1    6    6    0    0 -0.40662588982E+02  0.16578877600E+02  0.36191761986E+02  0.56904735838E+02  0.00000000000E+00 0. -1.
        -12    1    6    6    0    0  0.67050029510E+01 -0.40040798672E+02  0.11069563811E+03  0.11790566958E+03  0.00000000000E+00 0.  1.
<mgrwt>
<rscale>  2 0.18994849E+03</rscale>
<asrwt>0</asrwt>
<pdfrwt beam="1">  1       21 0.34297784E-01 0.19041117E+03</pdfrwt>
<pdfrwt beam="2">  1       21 0.33666286E-01 0.19041117E+03</pdfrwt>
<totfact> 0.69689507E+04</totfact>
</mgrwt>
</event>
<event>
12    1  0.1050690E-001  0.6906316E+03  0.7546771E-02  0.9733491E-01
         21   -1    0    0  503  502  0.00000000000E+00  0.00000000000E+00  0.47171240116E+03  0.47171240116E+03  0.00000000000E+00 0.  1.
         21   -1    0    0  501  503 -0.00000000000E+00 -0.00000000000E+00 -0.18255039895E+04  0.18255039895E+04  0.00000000000E+00 0. -1.
          6    2    1    2  501    0  0.24091110681E+03 -0.62343399514E+03 -0.14441562395E+04  0.16006980408E+04  0.17302851214E+03 0.  0.
         24    2    3    3    0    0  0.10349105874E+03 -0.27137608777E+03 -0.77088604414E+03  0.82859449480E+03  0.89152473460E+02 0.  0.
         -6    2    1    2    0  502 -0.24091110681E+03  0.62343399514E+03  0.90364651137E+02  0.69651834990E+03  0.17396532384E+03 0.  0.
        -24    2    5    5    0    0 -0.81962574784E+02  0.26215722193E+03 -0.19234163066E+02  0.28686052589E+03  0.80465741873E+02 0.  0.
          5    1    3    3  501    0  0.13742004807E+03 -0.35205790737E+03 -0.67327019533E+03  0.77210354595E+03  0.47000000000E+01 0. -1.
        -11    1    4    4    0    0  0.44725540086E+02 -0.12179899475E+03 -0.22703665208E+03  0.26149762991E+03  0.00000000000E+00 0.  1.
         12    1    4    4    0    0  0.58765518652E+02 -0.14957709302E+03 -0.54384939205E+03  0.56709686490E+03  0.00000000000E+00 0. -1.
         -5    1    5    5    0  502 -0.15894853202E+03  0.36127677321E+03  0.10959881420E+03  0.40965782401E+03  0.47000000000E+01 0.  1.
         11    1    6    6    0    0 -0.82960513596E+02  0.25618290602E+03 -0.27457480334E+01  0.26929475911E+03  0.00000000000E+00 0. -1.
        -12    1    6    6    0    0  0.99793881235E+00  0.59743159069E+01 -0.16488415033E+02  0.17565766785E+02  0.00000000000E+00 0.  1.
<mgrwt>
<rscale>  2 0.69057277E+03</rscale>
<asrwt>0</asrwt>
<pdfrwt beam="1">  1       21 0.72571138E-01 0.69063163E+03</pdfrwt>
<pdfrwt beam="2">  1       21 0.28084677E+00 0.69063163E+03</pdfrwt>
<totfact> 0.51109872E+01</totfact>
</mgrwt>
</event>
<event>
12    1  0.1050690E-001  0.1790148E+03  0.7546771E-02  0.1168765E+00
         21   -1    0    0  501  502  0.00000000000E+00  0.00000000000E+00  0.47968443055E+03  0.47968443055E+03  0.00000000000E+00 0.  1.
         21   -1    0    0  502  503 -0.00000000000E+00 -0.00000000000E+00 -0.72858319275E+02  0.72858319275E+02  0.00000000000E+00 0.  1.
         -6    2    1    2    0  503 -0.42604534681E+02 -0.23163321852E+02  0.12375364888E+03  0.21762644652E+03  0.17232126612E+03 0.  0.
        -24    2    3    3    0    0 -0.15477832034E+02 -0.51646544270E+02  0.95980508526E+01  0.96792914265E+02  0.79811132382E+02 0.  0.
          6    2    1    2  501    0  0.42604534681E+02  0.23163321852E+02  0.28307246240E+03  0.33491630331E+03  0.17229981253E+03 0.  0.
         24    2    5    5    0    0  0.51448935141E+02  0.69373788568E+02  0.22026599438E+03  0.25630095443E+03  0.98556356959E+02 0.  0.
          5    1    5    5  501    0 -0.88444004596E+01 -0.46210466716E+02  0.62806468018E+02  0.78615348873E+02  0.47000000000E+01 0. -1.
        -11    1    6    6    0    0  0.68839250712E+02  0.24895426117E+02  0.81507896701E+02  0.10955437876E+03  0.00000000000E+00 0.  1.
         12    1    6    6    0    0 -0.17390315571E+02  0.44478362451E+02  0.13875809768E+03  0.14674657568E+03  0.00000000000E+00 0. -1.
         -5    1    3    3    0  503 -0.27126702647E+02  0.28483222418E+02  0.11415559803E+03  0.12083353225E+03  0.47000000000E+01 0.  1.
         11    1    4    4    0    0  0.11864960903E+02  0.60128173537E+01 -0.21904280652E+02  0.25626720052E+02  0.00000000000E+00 0. -1.
        -12    1    4    4    0    0 -0.27342792938E+02 -0.57659361624E+02  0.31502331504E+02  0.71166194213E+02  0.00000000000E+00 0.  1.
<mgrwt>
<rscale>  2 0.17900965E+03</rscale>
<asrwt>0</asrwt>
<pdfrwt beam="1">  1       21 0.73797603E-01 0.17901482E+03</pdfrwt>
<pdfrwt beam="2">  1       21 0.11208972E-01 0.17901482E+03</pdfrwt>
<totfact> 0.10980628E+05</totfact>
</mgrwt>
</event>
<event>
12    1  0.1050690E-001  0.2257148E+03  0.7546771E-02  0.1130374E+00
         21   -1    0    0  501  502  0.00000000000E+00  0.00000000000E+00  0.24691881880E+03  0.24691881880E+03  0.00000000000E+00 0. -1.
         21   -1    0    0  502  503 -0.00000000000E+00 -0.00000000000E+00 -0.25316725016E+03  0.25316725016E+03  0.00000000000E+00 0.  1.
         -6    2    1    2    0  503  0.20647792979E+02 -0.13455019622E+03 -0.11453442909E+03  0.25311124966E+03  0.18004744542E+03 0.  0.
        -24    2    3    3    0    0  0.31113211163E+00 -0.48640045714E+02  0.16806284588E+02  0.94786877551E+02  0.79599937839E+02 0.  0.
          6    2    1    2  501    0 -0.20647792979E+02  0.13455019622E+03  0.10828599774E+03  0.24697481930E+03  0.17533002425E+03 0.  0.
         24    2    5    5    0    0 -0.27570968637E+02  0.15244405508E+03  0.44530063409E+02  0.18022881037E+03  0.80623503393E+02 0.  0.
          5    1    5    5  501    0  0.69231756580E+01 -0.17893858855E+02  0.63755934327E+02  0.66746008928E+02  0.47000000000E+01 0. -1.
        -13    1    6    6    0    0 -0.51876424810E+01 -0.87026640025E+01 -0.32907310047E+01  0.10652553956E+02  0.00000000000E+00 0.  1.
         14    1    6    6    0    0 -0.22383326156E+02  0.16114671908E+03  0.47820794413E+02  0.16957625641E+03  0.00000000000E+00 0. -1.
         -5    1    3    3    0  503  0.20336660868E+02 -0.85910150510E+02 -0.13134071368E+03  0.15832437211E+03  0.47000000000E+01 0.  1.
         13    1    4    4    0    0 -0.12992737576E+02 -0.63025097257E+02  0.30167708091E+02  0.71070843005E+02  0.00000000000E+00 0. -1.
        -14    1    4    4    0    0  0.13303869688E+02  0.14385051543E+02 -0.13361423503E+02  0.23716034546E+02  0.00000000000E+00 0.  1.
<mgrwt>
<rscale>  2 0.22477273E+03</rscale>
<asrwt>0</asrwt>
<pdfrwt beam="1">  1       21 0.37987510E-01 0.22571480E+03</pdfrwt>
<pdfrwt beam="2">  1       21 0.38948808E-01 0.22571480E+03</pdfrwt>
<totfact> 0.41795825E+04</totfact>
</mgrwt>
</event>
<event>
12    1  0.1050690E-001  0.1760378E+03  0.7546771E-02  0.1171761E+00
         21   -1    0    0  503  502  0.00000000000E+00  0.00000000000E+00  0.18307877130E+03  0.18307877130E+03  0.00000000000E+00 0.  1.
         21   -1    0    0  501  503 -0.00000000000E+00 -0.00000000000E+00 -0.44826923778E+03  0.44826923778E+03  0.00000000000E+00 0.  1.
          6    2    1    2  501    0  0.23648563957E+02 -0.62947541169E+01 -0.38171430489E+03  0.42023873254E+03  0.17405718386E+03 0.  0.
         24    2    3    3    0    0  0.17926979869E+02  0.64919192000E+02 -0.23841819312E+03  0.26005125395E+03  0.79041392781E+02 0.  0.
         -6    2    1    2    0  502 -0.23648563957E+02  0.62947541169E+01  0.11652383842E+03  0.21110927654E+03  0.17432854963E+03 0.  0.
        -24    2    5    5    0    0 -0.62554431931E+02 -0.22675456894E+02  0.25742500708E+02  0.10807393811E+03  0.81179224293E+02 0.  0.
          5    1    3    3  501    0  0.57215840882E+01 -0.71213946117E+02 -0.14329611177E+03  0.16018747859E+03  0.47000000000E+01 0. -1.
        -11    1    4    4    0    0  0.35129870554E+02  0.49670426261E+02 -0.22574880348E+03  0.23380286851E+03  0.00000000000E+00 0.  1.
         12    1    4    4    0    0 -0.17202890685E+02  0.15248765739E+02 -0.12669389643E+02  0.26248385444E+02  0.00000000000E+00 0. -1.
         -5    1    5    5    0  502  0.38905867974E+02  0.28970211011E+02  0.90781337709E+02  0.10303533843E+03  0.47000000000E+01 0.  1.
         13    1    6    6    0    0 -0.15135094635E+02 -0.23757515679E+02  0.48019070806E+02  0.55671552897E+02  0.00000000000E+00 0. -1.
        -14    1    6    6    0    0 -0.47419337296E+02  0.10820587854E+01 -0.22276570099E+02  0.52402385215E+02  0.00000000000E+00 0.  1.
<mgrwt>
<rscale>  2 0.17597062E+03</rscale>
<asrwt>0</asrwt>
<pdfrwt beam="1">  1       21 0.28165965E-01 0.17603784E+03</pdfrwt>
<pdfrwt beam="2">  1       21 0.68964498E-01 0.17603784E+03</pdfrwt>
<totfact> 0.23288196E+04</totfact>
</mgrwt>
</event>
<event>
12    1  0.1050690E-001  0.2201151E+03  0.7546771E-02  0.1134191E+00
         21   -1    0    0  501  502  0.00000000000E+00  0.00000000000E+00  0.50619450753E+03  0.50619450753E+03  0.00000000000E+00 0. -1.
         21   -1    0    0  502  503 -0.00000000000E+00 -0.00000000000E+00 -0.16019859371E+03  0.16019859371E+03  0.00000000000E+00 0. -1.
         -6    2    1    2    0  503  0.85494679238E+02 -0.10793147491E+03 -0.39392863223E+02  0.22361225248E+03  0.17173263618E+03 0.  0.
        -24    2    3    3    0    0  0.11673049290E+03 -0.55915300618E+02 -0.63615870236E+02  0.15811261498E+03  0.64808111024E+02 0.  0.
          6    2    1    2  501    0 -0.85494679238E+02  0.10793147491E+03  0.38538877705E+03  0.44278084876E+03  0.16903202981E+03 0.  0.
         24    2    5    5    0    0 -0.10393954965E+03  0.13276006395E+03  0.34142354524E+03  0.38882064411E+03  0.78630728621E+02 0.  0.
          5    1    5    5  501    0  0.18444870413E+02 -0.24828589033E+02  0.43965231811E+02  0.53960204652E+02  0.47000000000E+01 0. -1.
        -13    1    6    6    0    0  0.11922759843E+02  0.15260580293E+02  0.22134483556E+02  0.29410421204E+02  0.00000000000E+00 0.  1.
         14    1    6    6    0    0 -0.11586230949E+03  0.11749948365E+03  0.31928906168E+03  0.35941022290E+03  0.00000000000E+00 0. -1.
         -5    1    3    3    0  503 -0.31235813660E+02 -0.52016174295E+02  0.24223007013E+02  0.65499637496E+02  0.47000000000E+01 0.  1.
         11    1    4    4    0    0  0.80986875674E+02 -0.53966535799E+02 -0.16133672281E+02  0.98648651277E+02  0.00000000000E+00 0. -1.
        -12    1    4    4    0    0  0.35743617224E+02 -0.19487648190E+01 -0.47482197955E+02  0.59463963702E+02  0.00000000000E+00 0.  1.
<mgrwt>
<rscale>  2 0.21958806E+03</rscale>
<asrwt>0</asrwt>
<pdfrwt beam="1">  1       21 0.77876077E-01 0.22011506E+03</pdfrwt>
<pdfrwt beam="2">  1       21 0.24645938E-01 0.22011506E+03</pdfrwt>
<totfact> 0.22388378E+04</totfact>
</mgrwt>
</event>
<event>
12    1  0.1050690E-001  0.1819263E+03  0.7546771E-02  0.1166163E+00
         21   -1    0    0  501  502  0.00000000000E+00  0.00000000000E+00  0.14558643699E+03  0.14558643699E+03  0.00000000000E+00 0. -1.
         21   -1    0    0  502  503 -0.00000000000E+00 -0.00000000000E+00 -0.28019239481E+03  0.28019239481E+03  0.00000000000E+00 0. -1.
         -6    2    1    2    0  503 -0.28935584098E+02  0.48627829827E+02 -0.16059169952E+03  0.24200601273E+03  0.17197465622E+03 0.  0.
        -24    2    3    3    0    0 -0.81709627128E+02  0.11881025279E+02 -0.85915004593E+02  0.14334433816E+03  0.79678035510E+02 0.  0.
          6    2    1    2  501    0  0.28935584098E+02 -0.48627829827E+02  0.25985741691E+02  0.18377281907E+03  0.17290244764E+03 0.  0.
         24    2    5    5    0    0  0.32995975728E+02 -0.97809123552E+02  0.32931612444E+02  0.13371663511E+03  0.78359991974E+02 0.  0.
          5    1    5    5  501    0 -0.40603916299E+01  0.49181293725E+02 -0.69458707536E+01  0.50056183966E+02  0.47000000000E+01 0. -1.
        -13    1    6    6    0    0  0.36523414852E+02 -0.64615934342E+02 -0.14588909831E+02  0.75644002362E+02  0.00000000000E+00 0.  1.
         14    1    6    6    0    0 -0.35274391241E+01 -0.33193189210E+02  0.47520522275E+02  0.58072632746E+02  0.00000000000E+00 0. -1.
         -5    1    3    3    0  503  0.52774043029E+02  0.36746804548E+02 -0.74676694926E+02  0.98661674561E+02  0.47000000000E+01 0.  1.
         13    1    4    4    0    0 -0.20998910449E+02  0.62319321395E+01 -0.79000079741E+02  0.81980508765E+02  0.00000000000E+00 0. -1.
        -14    1    4    4    0    0 -0.60710716678E+02  0.56490931391E+01 -0.69149248514E+01  0.61363829400E+02  0.00000000000E+00 0.  1.
<mgrwt>
<rscale>  2 0.18170555E+03</rscale>
<asrwt>0</asrwt>
<pdfrwt beam="1">  1       21 0.22397914E-01 0.18192633E+03</pdfrwt>
<pdfrwt beam="2">  1       21 0.43106522E-01 0.18192633E+03</pdfrwt>
<totfact> 0.96959622E+04</totfact>
</mgrwt>
</event>
<event>
12    1  0.1050690E-001  0.1895662E+03  0.7546771E-02  0.1159208E+00
         21   -1    0    0  501  502  0.00000000000E+00  0.00000000000E+00  0.28425693363E+03  0.28425693363E+03  0.00000000000E+00 0. -1.
         21   -1    0    0  502  503 -0.00000000000E+00 -0.00000000000E+00 -0.13560597039E+03  0.13560597039E+03  0.00000000000E+00 0. -1.
         -6    2    1    2    0  503  0.77121491819E+02  0.28913000831E+01  0.13225899199E+03  0.23114451404E+03  0.17314520291E+03 0.  0.
        -24    2    3    3    0    0  0.46220847197E+02 -0.28290953895E+02  0.15418368465E+03  0.18184983938E+03  0.79749675137E+02 0.  0.
          6    2    1    2  501    0 -0.77121491819E+02 -0.28913000831E+01  0.16391971250E+02  0.18871838998E+03  0.17143468108E+03 0.  0.
         24    2    5    5    0    0  0.12126623843E+01  0.46371290794E+02  0.21311804798E+02  0.95931875133E+02  0.81221699581E+02 0.  0.
          5    1    5    5  501    0 -0.78334154203E+02 -0.49262590877E+02 -0.49198335485E+01  0.92786514843E+02  0.47000000000E+01 0. -1.
        -11    1    6    6    0    0 -0.12399334004E+02  0.42174235820E+02  0.48365248110E+02  0.65357531131E+02  0.00000000000E+00 0.  1.
         12    1    6    6    0    0  0.13611996388E+02  0.41970549739E+01 -0.27053443312E+02  0.30574344002E+02  0.00000000000E+00 0. -1.
         -5    1    3    3    0  503  0.30900644622E+02  0.31182253978E+02 -0.21924692658E+02  0.49294674655E+02  0.47000000000E+01 0.  1.
         13    1    4    4    0    0  0.20856839596E+02  0.26913896977E+02  0.40164025767E+02  0.52654672862E+02  0.00000000000E+00 0. -1.
        -14    1    4    4    0    0  0.25364007601E+02 -0.55204850871E+02  0.11401965888E+03  0.12919516652E+03  0.00000000000E+00 0.  1.
<mgrwt>
<rscale>  2 0.18917473E+03</rscale>
<asrwt>0</asrwt>
<pdfrwt beam="1">  1       21 0.43731836E-01 0.18956620E+03</pdfrwt>
<pdfrwt beam="2">  1       21 0.20862457E-01 0.18956620E+03</pdfrwt>
<totfact> 0.10729454E+05</totfact>
</mgrwt>
</event>
<event>
12    1  0.1050690E-001  0.2574296E+03  0.7546771E-02  0.1108756E+00
         21   -1    0    0  501  502  0.00000000000E+00  0.00000000000E+00  0.49830115459E+03  0.49830115459E+03  0.00000000000E+00 0.  1.
         21   -1    0    0  502  503 -0.00000000000E+00 -0.00000000000E+00 -0.16155331654E+03  0.16155331654E+03  0.00000000000E+00 0.  1.
         -6    2    1    2    0  503  0.16768841051E+03  0.89188360325E+02  0.30768425274E+03  0.40117279269E+03  0.17377008825E+03 0.  0.
        -24    2    3    3    0    0  0.37405052463E+02  0.48277394013E+02  0.21102798593E+03  0.23380498078E+03  0.80013208088E+02 0.  0.
          6    2    1    2  501    0 -0.16768841051E+03 -0.89188360325E+02  0.29063585314E+02  0.25868167845E+03  0.17319801423E+03 0.  0.
         24    2    5    5    0    0 -0.98871516651E+02  0.13785365805E+02 -0.99183317049E+01  0.12875464889E+03  0.80707949996E+02 0.  0.
          5    1    5    5  501    0 -0.68816893861E+02 -0.10297372613E+03  0.38981917018E+02  0.12992702955E+03  0.47000000000E+01 0. -1.
        -13    1    6    6    0    0 -0.81941689682E+02 -0.25207666397E+02 -0.38894628763E+01  0.85819548324E+02  0.00000000000E+00 0.  1.
         14    1    6    6    0    0 -0.16929826969E+02  0.38993032202E+02 -0.60288688286E+01  0.42935100569E+02  0.00000000000E+00 0. -1.
         -5    1    3    3    0  503  0.13028335805E+03  0.40910966312E+02  0.96656266814E+02  0.16736781191E+03  0.47000000000E+01 0.  1.
         13    1    4    4    0    0 -0.77927316204E+01  0.32450618435E+02  0.24963749219E+02  0.41676829030E+02  0.00000000000E+00 0. -1.
        -14    1    4    4    0    0  0.45197784084E+02  0.15826775577E+02  0.18606423671E+03  0.19212815175E+03  0.00000000000E+00 0.  1.
<mgrwt>
<rscale>  2 0.25733311E+03</rscale>
<asrwt>0</asrwt>
<pdfrwt beam="1">  1       21 0.76661715E-01 0.25742962E+03</pdfrwt>
<pdfrwt beam="2">  1       21 0.24854357E-01 0.25742962E+03</pdfrwt>
<totfact> 0.22403732E+04</totfact>
</mgrwt>
</event>
<event>
12    1  0.1050690E-001  0.1842909E+03  0.7546771E-02  0.1163721E+00
         21   -1    0    0  501  502  0.00000000000E+00  0.00000000000E+00  0.23731792335E+02  0.23731792335E+02  0.00000000000E+00 0. -1.
         21   -1    0    0  502  503 -0.00000000000E+00 -0.00000000000E+00 -0.15157828946E+04  0.15157828946E+04  0.00000000000E+00 0. -1.
         -6    2    1    2    0  503 -0.71631962621E+01 -0.60399622776E+02 -0.92813673577E+03  0.94625037193E+03  0.17393257396E+03 0.  0.
        -24    2    3    3    0    0 -0.65428437210E+02 -0.42399808640E+02 -0.74005701047E+03  0.74847548809E+03  0.80327786912E+02 0.  0.
          6    2    1    2  501    0  0.71631962621E+01  0.60399622776E+02 -0.56391436648E+03  0.59326431499E+03  0.17396467717E+03 0.  0.
         24    2    5    5    0    0 -0.62381681155E+02  0.54015566028E+02 -0.42014631414E+03  0.43336250440E+03  0.66865382811E+02 0.  0.
          5    1    5    5  501    0  0.69544877417E+02  0.63840567483E+01 -0.14376805234E+03  0.15990181059E+03  0.47000000000E+01 0. -1.
        -13    1    6    6    0    0 -0.11093118768E+02  0.20130712046E+01 -0.58969902791E+01  0.12723373531E+02  0.00000000000E+00 0.  1.
         14    1    6    6    0    0 -0.51288562387E+02  0.52002494823E+02 -0.41424932386E+03  0.42063913087E+03  0.00000000000E+00 0. -1.
         -5    1    3    3    0  503  0.58265240948E+02 -0.17999814136E+02 -0.18807972530E+03  0.19777488384E+03  0.47000000000E+01 0.  1.
         13    1    4    4    0    0 -0.54879386503E+02 -0.30255769133E+02 -0.23650652224E+03  0.24466812970E+03  0.00000000000E+00 0. -1.
        -14    1    4    4    0    0 -0.10549050706E+02 -0.12144039507E+02 -0.50355048824E+03  0.50380735839E+03  0.00000000000E+00 0.  1.
<mgrwt>
<rscale>  2 0.18428332E+03</rscale>
<asrwt>0</asrwt>
<pdfrwt beam="1">  1       21 0.36510433E-02 0.18429090E+03</pdfrwt>
<pdfrwt beam="2">  1       21 0.23319747E+00 0.18429090E+03</pdfrwt>
<totfact> 0.38437493E+04</totfact>
</mgrwt>
</event>
<event>
12    1  0.1050690E-001  0.1885589E+03  0.7546771E-02  0.1160440E+00
         21   -1    0    0  503  502  0.00000000000E+00  0.00000000000E+00  0.38523380806E+03  0.38523380806E+03  0.00000000000E+00 0.  1.
         21   -1    0    0  501  503 -0.00000000000E+00 -0.00000000000E+00 -0.90895036047E+02  0.90895036047E+02  0.00000000000E+00 0.  1.
          6    2    1    2  501    0 -0.35962537318E+02  0.57560605910E+02  0.15267070483E+03  0.24261657954E+03  0.17592024646E+03 0.  0.
         24    2    3    3    0    0  0.41504574674E+02  0.11973431572E+01  0.88740536685E+02  0.12734677766E+03  0.81352661782E+02 0.  0.
         -6    2    1    2    0  502  0.35962537318E+02 -0.57560605910E+02  0.14166806719E+03  0.23351226457E+03  0.17277618180E+03 0.  0.
        -24    2    5    5    0    0  0.62314697501E+02 -0.23513024999E+01  0.13621646253E+03  0.17191426523E+03  0.84326388371E+02 0.  0.
          5    1    3    3  501    0 -0.77467111992E+02  0.56363262753E+02  0.63930168141E+02  0.11526980189E+03  0.47000000000E+01 0. -1.
        -11    1    4    4    0    0 -0.18765250805E+02  0.13765683198E+02  0.56784610338E+01  0.23955658860E+02  0.00000000000E+00 0.  1.
         12    1    4    4    0    0  0.60269825479E+02 -0.12568340041E+02  0.83062075651E+02  0.10339111880E+03  0.00000000000E+00 0. -1.
         -5    1    5    5    0  502 -0.26352160183E+02 -0.55209303410E+02  0.54516046575E+01  0.61597999340E+02  0.47000000000E+01 0.  1.
         13    1    6    6    0    0  0.22025900289E+02 -0.23604209866E+02  0.45655908320E+01  0.32605883312E+02  0.00000000000E+00 0. -1.
        -14    1    6    6    0    0  0.40288797212E+02  0.21252907366E+02  0.13165087170E+03  0.13930838192E+03  0.00000000000E+00 0.  1.
<mgrwt>
<rscale>  2 0.18782213E+03</rscale>
<asrwt>0</asrwt>
<pdfrwt beam="1">  1       21 0.59266739E-01 0.18855890E+03</pdfrwt>
<pdfrwt beam="2">  1       21 0.13983852E-01 0.18855890E+03</pdfrwt>
<totfact> 0.11871833E+05</totfact>
</mgrwt>
</event>
<event>
12    1  0.1050690E-001  0.1759069E+03  0.7546771E-02  0.1172140E+00
         21   -1    0    0  501  502  0.00000000000E+00  0.00000000000E+00  0.25205859589E+03  0.25205859589E+03  0.00000000000E+00 0.  1.
         21   -1    0    0  502  503 -0.00000000000E+00 -0.00000000000E+00 -0.12209246660E+03  0.12209246660E+03  0.00000000000E+00 0.  1.
         -6    2    1    2    0  503  0.22660230907E+02 -0.24294918122E+02  0.72945247887E+02  0.19043171334E+03  0.17274113334E+03 0.  0.
        -24    2    3    3    0    0  0.37757096001E+02  0.28976575456E+02 -0.82744087419E+01  0.92021906990E+02  0.78321933725E+02 0.  0.
          6    2    1    2  501    0 -0.22660230907E+02  0.24294918122E+02  0.57020881403E+02  0.18371934916E+03  0.17145754351E+03 0.  0.
         24    2    5    5    0    0  0.42724399232E+02  0.46051758043E+02  0.50093785872E+02  0.11430332367E+03  0.81300207320E+02 0.  0.
          5    1    5    5  501    0 -0.65384630139E+02 -0.21756839921E+02  0.69270955310E+01  0.69416025486E+02  0.47000000000E+01 0. -1.
        -11    1    6    6    0    0 -0.65408443079E+01  0.28185008031E+02  0.54509356905E+02  0.61712618744E+02  0.00000000000E+00 0.  1.
         12    1    6    6    0    0  0.49265243540E+02  0.17866750012E+02 -0.44155710333E+01  0.52590704926E+02  0.00000000000E+00 0. -1.
         -5    1    3    3    0  503 -0.15096865094E+02 -0.53271493578E+02  0.81219656628E+02  0.98409806353E+02  0.47000000000E+01 0.  1.
         13    1    4    4    0    0  0.40007159105E+02 -0.16005482143E+02 -0.16680374341E+02  0.46205877617E+02  0.00000000000E+00 0. -1.
        -14    1    4    4    0    0 -0.22500631037E+01  0.44982057599E+02  0.84059655988E+01  0.45816029372E+02  0.00000000000E+00 0.  1.
<mgrwt>
<rscale>  2 0.17559094E+03</rscale>
<asrwt>0</asrwt>
<pdfrwt beam="1">  1       21 0.38778245E-01 0.17590687E+03</pdfrwt>
<pdfrwt beam="2">  1       21 0.18783456E-01 0.17590687E+03</pdfrwt>
<totfact> 0.16722900E+05</totfact>
</mgrwt>
</event>
<event>
12    1  0.1050690E-001  0.2121216E+03  0.7546771E-02  0.1139905E+00
         21   -1    0    0  503  502  0.00000000000E+00  0.00000000000E+00  0.33024333240E+03  0.33024333240E+03  0.00000000000E+00 0. -1.
         21   -1    0    0  501  503 -0.00000000000E+00 -0.00000000000E+00 -0.24847051063E+03  0.24847051063E+03  0.00000000000E+00 0.  1.
          6    2    1    2  501    0  0.12148699835E+03 -0.15782476084E+02 -0.15359976577E+03  0.26186084454E+03  0.17311856209E+03 0.  0.
         24    2    3    3    0    0  0.14145771965E+03 -0.35549410528E+02 -0.86022279025E+02  0.18852348625E+03  0.82868723544E+02 0.  0.
         -6    2    1    2    0  502 -0.12148699835E+03  0.15782476084E+02  0.23537258754E+03  0.31685299848E+03  0.17316867605E+03 0.  0.
        -24    2    5    5    0    0 -0.43824105740E+02 -0.52644196624E+02  0.10641840646E+03  0.15142928421E+03  0.83150389058E+02 0.  0.
          5    1    3    3  501    0 -0.19970721301E+02  0.19766934444E+02 -0.67577486745E+02  0.73337358292E+02  0.47000000000E+01 0. -1.
        -11    1    4    4    0    0  0.11756175993E+03 -0.40300738478E+02 -0.10080955977E+03  0.16002338660E+03  0.00000000000E+00 0.  1.
         12    1    4    4    0    0  0.23895959715E+02  0.47513279504E+01  0.14787280740E+02  0.28500099644E+02  0.00000000000E+00 0. -1.
         -5    1    5    5    0  502 -0.77662892605E+02  0.68426672708E+02  0.12895418108E+03  0.16542371428E+03  0.47000000000E+01 0.  1.
         11    1    6    6    0    0 -0.25359818822E+01 -0.34414728051E+02  0.10006854902E+03  0.10585140157E+03  0.00000000000E+00 0. -1.
        -12    1    6    6    0    0 -0.41288123857E+02 -0.18229468572E+02  0.63498574327E+01  0.45577882635E+02  0.00000000000E+00 0.  1.
<mgrwt>
<rscale>  2 0.21211136E+03</rscale>
<asrwt>0</asrwt>
<pdfrwt beam="1">  1       21 0.50806666E-01 0.21212159E+03</pdfrwt>
<pdfrwt beam="2">  1       21 0.38226232E-01 0.21212159E+03</pdfrwt>
<totfact> 0.24052505E+04</totfact>
</mgrwt>
</event>
<event>
12    1  0.1050690E-001  0.1876603E+03  0.7546771E-02  0.1160672E+00
         21   -1    0    0  501  502  0.00000000000E+00  0.00000000000E+00  0.39271754017E+03  0.39271754017E+03  0.00000000000E+00 0. -1.
         21   -1    0    0  502  503 -0.00000000000E+00 -0.00000000000E+00 -0.91752297189E+02  0.91752297189E+02  0.00000000000E+00 0.  1.
         -6    2    1    2    0  503 -0.38789065092E+02  0.60121084374E+02  0.18828688392E+03  0.26557990138E+03  0.17309418536E+03 0.  0.
        -24    2    3    3    0    0  0.39352114979E+02  0.31153359588E+02  0.59898612913E+02  0.11244332432E+03  0.80848850263E+02 0.  0.
          6    2    1    2  501    0  0.38789065092E+02 -0.60121084374E+02  0.11267835906E+03  0.21888993597E+03  0.17348560492E+03 0.  0.
         24    2    5    5    0    0  0.51589211216E+02  0.15624906029E+02  0.21022543310E+02  0.99206280599E+02  0.80587557233E+02 0.  0.
          5    1    5    5  501    0 -0.12800146124E+02 -0.75745990403E+02  0.91655815750E+02  0.11968365537E+03  0.47000000000E+01 0. -1.
        -13    1    6    6    0    0  0.31612292718E+02  0.48468424209E+02  0.70068131099E+01  0.58289112415E+02  0.00000000000E+00 0.  1.
         14    1    6    6    0    0  0.19976918498E+02 -0.32843518181E+02  0.14015730200E+02  0.40917168184E+02  0.00000000000E+00 0. -1.
         -5    1    3    3    0  503 -0.78141180071E+02  0.28967724785E+02  0.12838827100E+03  0.15313657706E+03  0.47000000000E+01 0.  1.
         11    1    4    4    0    0  0.50464565120E+00  0.30459382472E+02  0.66395136187E+02  0.73050275544E+02  0.00000000000E+00 0. -1.
        -12    1    4    4    0    0  0.38847469328E+02  0.69397711694E+00 -0.64965232739E+01  0.39393048779E+02  0.00000000000E+00 0.  1.
<mgrwt>
<rscale>  2 0.18756979E+03</rscale>
<asrwt>0</asrwt>
<pdfrwt beam="1">  1       21 0.60418082E-01 0.18766031E+03</pdfrwt>
<pdfrwt beam="2">  1       21 0.14115738E-01 0.18766031E+03</pdfrwt>
<totfact> 0.11203482E+05</totfact>
</mgrwt>
</event>
<event>
12    1  0.1050690E-001  0.1792319E+03  0.7546771E-02  0.1169458E+00
         21   -1    0    0  501  502  0.00000000000E+00  0.00000000000E+00  0.43423179449E+03  0.43423179449E+03  0.00000000000E+00 0. -1.
         21   -1    0    0  502  503 -0.00000000000E+00 -0.00000000000E+00 -0.15823712413E+03  0.15823712413E+03  0.00000000000E+00 0. -1.
         -6    2    1    2    0  503 -0.44168400580E+02  0.85477735829E+01 -0.79442428881E+02  0.19604894552E+03  0.17349402724E+03 0.  0.
        -24    2    3    3    0    0 -0.23992471926E+02  0.38644497359E+02  0.15689711446E+02  0.94141659209E+02  0.80916309037E+02 0.  0.
          6    2    1    2  501    0  0.44168400580E+02 -0.85477735829E+01  0.35543709923E+03  0.39641997310E+03  0.16967425120E+03 0.  0.
         24    2    5    5    0    0  0.30876213155E+01 -0.26517802764E+02  0.71147056262E+02  0.10857718458E+03  0.77552396012E+02 0.  0.
          5    1    5    5  501    0  0.41080779264E+02  0.17970029181E+02  0.28429004297E+03  0.28784278853E+03  0.47000000000E+01 0. -1.
        -11    1    6    6    0    0 -0.17373695055E+02 -0.17881407676E+01  0.74300423358E+02  0.76325589670E+02  0.00000000000E+00 0.  1.
         12    1    6    6    0    0  0.20461316370E+02 -0.24729661996E+02 -0.31533670959E+01  0.32251594908E+02  0.00000000000E+00 0. -1.
         -5    1    3    3    0  503 -0.20175928654E+02 -0.30096723776E+02 -0.95132140327E+02  0.10190728631E+03  0.47000000000E+01 0.  1.
         11    1    4    4    0    0 -0.45882222993E+02  0.37565845548E+02 -0.10254934818E+02  0.60179189316E+02  0.00000000000E+00 0. -1.
        -12    1    4    4    0    0  0.21889751068E+02  0.10786518105E+01  0.25944646264E+02  0.33962469894E+02  0.00000000000E+00 0.  1.
<mgrwt>
<rscale>  2 0.17830100E+03</rscale>
<asrwt>0</asrwt>
<pdfrwt beam="1">  1       21 0.66804891E-01 0.17923194E+03</pdfrwt>
<pdfrwt beam="2">  1       21 0.24344173E-01 0.17923194E+03</pdfrwt>
<totfact> 0.32949242E+04</totfact>
</mgrwt>
</event>
<event>
12    1  0.1050690E-001  0.1820755E+03  0.7546771E-02  0.1165847E+00
         21   -1    0    0  501  502  0.00000000000E+00  0.00000000000E+00  0.40760027634E+03  0.40760027634E+03  0.00000000000E+00 0.  1.
         21   -1    0    0  502  503 -0.00000000000E+00 -0.00000000000E+00 -0.82930935186E+02  0.82930935186E+02  0.00000000000E+00 0.  1.
         -6    2    1    2    0  503 -0.50024613884E+01 -0.56502944003E+02  0.19705692855E+03  0.26818821931E+03  0.17284640751E+03 0.  0.
        -24    2    3    3    0    0 -0.48962685265E+02 -0.70355002687E+02  0.18680874199E+03  0.22073828632E+03  0.80502882017E+02 0.  0.
          6    2    1    2  501    0  0.50024613884E+01  0.56502944003E+02  0.12761241260E+03  0.22234299221E+03  0.17301407756E+03 0.  0.
         24    2    5    5    0    0 -0.17093214412E+02  0.95676701820E+02  0.59003045760E+02  0.14017160176E+03  0.81978712359E+02 0.  0.
          5    1    5    5  501    0  0.22095675800E+02 -0.39173757817E+02  0.68609366845E+02  0.82171390455E+02  0.47000000000E+01 0. -1.
        -13    1    6    6    0    0 -0.45484942025E+02  0.65713602769E+02  0.58235430078E+02  0.98886413911E+02  0.00000000000E+00 0.  1.
         14    1    6    6    0    0  0.28391727613E+02  0.29963099051E+02  0.76761568216E+00  0.41285187845E+02  0.00000000000E+00 0. -1.
         -5    1    3    3    0  503  0.43960223877E+02  0.13852058684E+02  0.10248186559E+02  0.47449932991E+02  0.47000000000E+01 0.  1.
         13    1    4    4    0    0 -0.14485589905E+02 -0.67918027292E+02  0.68734863140E+02  0.97709631854E+02  0.00000000000E+00 0. -1.
        -14    1    4    4    0    0 -0.34477095360E+02 -0.24369753950E+01  0.11807387885E+03  0.12302865447E+03  0.00000000000E+00 0.  1.
<mgrwt>
<rscale>  2 0.18203563E+03</rscale>
<asrwt>0</asrwt>
<pdfrwt beam="1">  1       21 0.62707734E-01 0.18207547E+03</pdfrwt>
<pdfrwt beam="2">  1       21 0.12758606E-01 0.18207547E+03</pdfrwt>
<totfact> 0.12433312E+05</totfact>
</mgrwt>
</event>
<event>
12    1  0.1050690E-001  0.2739515E+03  0.7546771E-02  0.1099063E+00
         21   -1    0    0  503  502  0.00000000000E+00  0.00000000000E+00  0.21435389804E+03  0.21435389804E+03  0.00000000000E+00 0.  1.
         21   -1    0    0  501  503 -0.00000000000E+00 -0.00000000000E+00 -0.35973022426E+03  0.35973022426E+03  0.00000000000E+00 0. -1.
          6    2    1    2  501    0  0.16167472880E+03  0.13671718430E+03 -0.12011275437E+03  0.29897021615E+03  0.17356788288E+03 0.  0.
         24    2    3    3    0    0  0.69323659516E+01  0.63574832674E+02 -0.47456400421E+02  0.11297011338E+03  0.80126896414E+02 0.  0.
         -6    2    1    2    0  502 -0.16167472880E+03 -0.13671718430E+03 -0.25263571843E+02  0.27511390615E+03  0.17383643715E+03 0.  0.
        -24    2    5    5    0    0 -0.32136918578E+02 -0.10920553246E+03  0.35141203283E+01  0.13951456681E+03  0.80581235130E+02 0.  0.
          5    1    3    3  501    0  0.15474236285E+03  0.73142351624E+02 -0.72656353954E+02  0.18600010277E+03  0.47000000000E+01 0. -1.
        -13    1    4    4    0    0 -0.14528766669E+01 -0.17160765635E+02  0.28772033051E+01  0.17460842667E+02  0.00000000000E+00 0.  1.
         14    1    4    4    0    0  0.83852426185E+01  0.80735598309E+02 -0.50333603726E+02  0.95509270713E+02  0.00000000000E+00 0. -1.
         -5    1    5    5    0  502 -0.12953781022E+03 -0.27511651843E+02 -0.28777692172E+02  0.13559933934E+03  0.47000000000E+01 0.  1.
         13    1    6    6    0    0 -0.47513105681E+02 -0.10924058865E+03  0.15349531507E+02  0.12011082190E+03  0.00000000000E+00 0. -1.
        -14    1    6    6    0    0  0.15376187102E+02  0.35056191409E-01 -0.11835411179E+02  0.19403744910E+02  0.00000000000E+00 0.  1.
<mgrwt>
<rscale>  2 0.27390889E+03</rscale>
<asrwt>0</asrwt>
<pdfrwt beam="1">  1       21 0.32977523E-01 0.27395148E+03</pdfrwt>
<pdfrwt beam="2">  1       21 0.55343111E-01 0.27395148E+03</pdfrwt>
<totfact> 0.26184537E+04</totfact>
</mgrwt>
</event>
<event>
12    1  0.1050690E-001  0.2281844E+03  0.7546771E-02  0.1128005E+00
         21   -1    0    0  501  502  0.00000000000E+00  0.00000000000E+00  0.40897584777E+03  0.40897584777E+03  0.00000000000E+00 0. -1.
         21   -1    0    0  502  503 -0.00000000000E+00 -0.00000000000E+00 -0.23030180076E+03  0.23030180076E+03  0.00000000000E+00 0. -1.
         -6    2    1    2    0  503 -0.67790188077E+02  0.13356219873E+03 -0.12472349521E+03  0.25964861314E+03  0.17154323513E+03 0.  0.
        -24    2    3    3    0    0 -0.25544456838E+02  0.14267370796E+03 -0.13704018350E+03  0.21446551653E+03  0.78785402639E+02 0.  0.
          6    2    1    2  501    0  0.67790188077E+02 -0.13356219873E+03  0.30339754221E+03  0.37962903539E+03  0.17214460596E+03 0.  0.
         24    2    5    5    0    0  0.57218365203E+02 -0.95536970383E+02  0.31009532421E+03  0.33932231494E+03  0.81112695015E+02 0.  0.
          5    1    5    5  501    0  0.10571822875E+02 -0.38025228345E+02 -0.66977820000E+01  0.40306720449E+02  0.47000000000E+01 0. -1.
        -13    1    6    6    0    0  0.43884111537E+01  0.12337442136E+02  0.11332637941E+02  0.17317601267E+02  0.00000000000E+00 0.  1.
         14    1    6    6    0    0  0.52829954049E+02 -0.10787441252E+03  0.29876268627E+03  0.32200471368E+03  0.00000000000E+00 0. -1.
         -5    1    3    3    0  503 -0.42245731240E+02 -0.91115092356E+01  0.12316688288E+02  0.45183096606E+02  0.47000000000E+01 0.  1.
         13    1    4    4    0    0 -0.47806672010E+02  0.67749593126E+02 -0.47306838132E+02  0.95464245618E+02  0.00000000000E+00 0. -1.
        -14    1    4    4    0    0  0.22262215172E+02  0.74924114838E+02 -0.89733345365E+02  0.11900127091E+03  0.00000000000E+00 0.  1.
<mgrwt>
<rscale>  2 0.22807101E+03</rscale>
<asrwt>0</asrwt>
<pdfrwt beam="1">  1       21 0.62919361E-01 0.22818443E+03</pdfrwt>
<pdfrwt beam="2">  1       21 0.35431046E-01 0.22818443E+03</pdfrwt>
<totfact> 0.17591744E+04</totfact>
</mgrwt>
</event>
<event>
12    1  0.1050690E-001  0.2077372E+03  0.7546771E-02  0.1143652E+00
         21   -1    0    0  503  502  0.00000000000E+00  0.00000000000E+00  0.83197072268E+02  0.83197072268E+02  0.00000000000E+00 0.  1.
         21   -1    0    0  501  503 -0.00000000000E+00 -0.00000000000E+00 -0.93157119445E+03  0.93157119445E+03  0.00000000000E+00 0.  1.
          6    2    1    2  501    0 -0.10932045266E+03  0.25678292430E+02 -0.76418154837E+03  0.79191425238E+03  0.17476958595E+03 0.  0.
         24    2    3    3    0    0 -0.39552887147E+02 -0.28730189345E+01 -0.99668826390E+02  0.12312285123E+03  0.60437376021E+02 0.  0.
         -6    2    1    2    0  502  0.10932045266E+03 -0.25678292430E+02 -0.84192573809E+02  0.22285401434E+03  0.17310455266E+03 0.  0.
        -24    2    5    5    0    0  0.62025812270E+02 -0.10129202326E+02 -0.12237534489E+03  0.15993683687E+03  0.81573676047E+02 0.  0.
          5    1    3    3  501    0 -0.69767565517E+02  0.28551311364E+02 -0.66451272198E+03  0.66879140115E+03  0.47000000000E+01 0. -1.
        -13    1    4    4    0    0 -0.24741283684E+02 -0.15968055443E+02 -0.99059089067E+02  0.10334318091E+03  0.00000000000E+00 0.  1.
         14    1    4    4    0    0 -0.14811603464E+02  0.13095036509E+02 -0.60973732311E+00  0.19779670319E+02  0.00000000000E+00 0. -1.
         -5    1    5    5    0  502  0.47294640394E+02 -0.15549090104E+02  0.38182771083E+02  0.62917177468E+02  0.47000000000E+01 0.  1.
         13    1    6    6    0    0  0.37043108659E+02  0.26234868747E+02 -0.22313220456E+02  0.50580036026E+02  0.00000000000E+00 0. -1.
        -14    1    6    6    0    0  0.24982703612E+02 -0.36364071073E+02 -0.10006212444E+03  0.10935680085E+03  0.00000000000E+00 0.  1.
<mgrwt>
<rscale>  2 0.20738661E+03</rscale>
<asrwt>0</asrwt>
<pdfrwt beam="1">  1       21 0.12799548E-01 0.20773720E+03</pdfrwt>
<pdfrwt beam="2">  1       21 0.14331866E+00 0.20773720E+03</pdfrwt>
<totfact> 0.17423730E+04</totfact>
</mgrwt>
</event>
<event>
12    1  0.1050690E-001  0.1730803E+03  0.7546771E-02  0.1174986E+00
         21   -1    0    0  503  502  0.00000000000E+00  0.00000000000E+00  0.13923212381E+03  0.13923212381E+03  0.00000000000E+00 0. -1.
         21   -1    0    0  501  503 -0.00000000000E+00 -0.00000000000E+00 -0.38828068798E+03  0.38828068798E+03  0.00000000000E+00 0. -1.
          6    2    1    2  501    0  0.19447231695E+01 -0.11105051441E+01 -0.30165750511E+03  0.34778445659E+03  0.17306577559E+03 0.  0.
         24    2    3    3    0    0  0.55937255164E+02  0.36583728993E+02 -0.20457359220E+03  0.23038162466E+03  0.82207010724E+02 0.  0.
         -6    2    1    2    0  502 -0.19447231695E+01  0.11105051441E+01  0.52608940943E+02  0.17972835521E+03  0.17184168827E+03 0.  0.
        -24    2    5    5    0    0  0.60115023454E+02  0.20384073556E+02  0.14240073279E+02  0.10411656647E+03  0.81290548203E+02 0.  0.
          5    1    3    3  501    0 -0.53992531994E+02 -0.37694234137E+02 -0.97083912913E+02  0.11740283193E+03  0.47000000000E+01 0. -1.
        -11    1    4    4    0    0  0.42823396945E+02 -0.10230313690E+02 -0.42579277087E+02  0.61249469233E+02  0.00000000000E+00 0.  1.
         12    1    4    4    0    0  0.13113858219E+02  0.46814042683E+02 -0.16199431511E+03  0.16913215543E+03  0.00000000000E+00 0. -1.
         -5    1    5    5    0  502 -0.62059746623E+02 -0.19273568411E+02  0.38368867664E+02  0.75611788737E+02  0.47000000000E+01 0.  1.
         13    1    6    6    0    0  0.21067971235E+02 -0.29038329755E+02  0.19638926823E+02  0.40899528771E+02  0.00000000000E+00 0. -1.
        -14    1    6    6    0    0  0.39047052219E+02  0.49422403311E+02 -0.53988535441E+01  0.63217037700E+02  0.00000000000E+00 0.  1.
<mgrwt>
<rscale>  2 0.17277345E+03</rscale>
<asrwt>0</asrwt>
<pdfrwt beam="1">  1       21 0.21420327E-01 0.17308026E+03</pdfrwt>
<pdfrwt beam="2">  1       21 0.59735489E-01 0.17308026E+03</pdfrwt>
<totfact> 0.53590792E+04</totfact>
</mgrwt>
</event>
<event>
12    1  0.1050690E-001  0.2823740E+03  0.7546771E-02  0.1094592E+00
         21   -1    0    0  503  502  0.00000000000E+00  0.00000000000E+00  0.59310016002E+03  0.59310016002E+03  0.00000000000E+00 0.  1.
         21   -1    0    0  501  503 -0.00000000000E+00 -0.00000000000E+00 -0.13461425911E+03  0.13461425911E+03  0.00000000000E+00 0. -1.
          6    2    1    2  501    0 -0.66224781321E+02  0.20856497461E+03  0.25765647879E+03  0.38120683471E+03  0.17620079306E+03 0.  0.
         24    2    3    3    0    0  0.65124271996E+01  0.47414732221E+02  0.13845600046E+03  0.16792076822E+03  0.82077718026E+02 0.  0.
         -6    2    1    2    0  502  0.66224781321E+02 -0.20856497461E+03  0.20082942212E+03  0.34650758441E+03  0.17846562407E+03 0.  0.
        -24    2    5    5    0    0  0.10862775796E+02 -0.21013538288E+03  0.17184215509E+03  0.28381971088E+03  0.82152437482E+02 0.  0.
          5    1    3    3  501    0 -0.72737208521E+02  0.16115024239E+03  0.11920047833E+03  0.21328606649E+03  0.47000000000E+01 0. -1.
        -13    1    4    4    0    0 -0.30657701840E+02  0.15080939310E+02  0.99227391559E+02  0.10494476951E+03  0.00000000000E+00 0.  1.
         14    1    4    4    0    0  0.37170129039E+02  0.32333792911E+02  0.39228608905E+02  0.62975998709E+02  0.00000000000E+00 0. -1.
         -5    1    5    5    0  502  0.55362005526E+02  0.15704082718E+01  0.28987267029E+02  0.62687873531E+02  0.47000000000E+01 0.  1.
         11    1    6    6    0    0  0.34939537419E+02 -0.19061395784E+03  0.13785153876E+03  0.23781820565E+03  0.00000000000E+00 0. -1.
        -12    1    6    6    0    0 -0.24076761624E+02 -0.19521425045E+02  0.33990616321E+02  0.46001505236E+02  0.00000000000E+00 0.  1.
<mgrwt>
<rscale>  2 0.28201679E+03</rscale>
<asrwt>0</asrwt>
<pdfrwt beam="1">  1       21 0.91246177E-01 0.28237395E+03</pdfrwt>
<pdfrwt beam="2">  1       21 0.20709886E-01 0.28237395E+03</pdfrwt>
<totfact> 0.21006646E+04</totfact>
</mgrwt>
</event>
<event>
12    1  0.1050690E-001  0.2204836E+03  0.7546771E-02  0.1133540E+00
         21   -1    0    0  503  502  0.00000000000E+00  0.00000000000E+00  0.68315177063E+03  0.68315177063E+03  0.00000000000E+00 0. -1.
         21   -1    0    0  501  503 -0.00000000000E+00 -0.00000000000E+00 -0.82799240821E+02  0.82799240821E+02  0.00000000000E+00 0.  1.
          6    2    1    2  501    0  0.95383927838E+02  0.98675756946E+02  0.15645503948E+03  0.27035383456E+03  0.17256308349E+03 0.  0.
         24    2    3    3    0    0  0.29231523476E+02 -0.92599890736E+01  0.96227905066E+02  0.13008386774E+03  0.81986423089E+02 0.  0.
         -6    2    1    2    0  502 -0.95383927838E+02 -0.98675756946E+02  0.44389749033E+03  0.49559717689E+03  0.17244297934E+03 0.  0.
        -24    2    5    5    0    0 -0.13123645772E+03 -0.98490714009E+02  0.39105007643E+03  0.43156298840E+03  0.80018885905E+02 0.  0.
          5    1    3    3  501    0  0.66152404362E+02  0.10793574602E+03  0.60227134417E+02  0.14026996682E+03  0.47000000000E+01 0. -1.
        -11    1    4    4    0    0 -0.12361360434E+02 -0.19556590546E+02 -0.16938402271E+01  0.23197684373E+02  0.00000000000E+00 0.  1.
         12    1    4    4    0    0  0.41592883911E+02  0.10296601472E+02  0.97921745293E+02  0.10688618337E+03  0.00000000000E+00 0. -1.
         -5    1    5    5    0  502  0.35852529881E+02 -0.18504293650E+00  0.52847413896E+02  0.64034188487E+02  0.47000000000E+01 0.  1.
         11    1    6    6    0    0 -0.31233950073E+02 -0.56554699910E+02  0.21774739911E+03  0.22712975045E+03  0.00000000000E+00 0. -1.
        -12    1    6    6    0    0 -0.10000250765E+03 -0.41936014099E+02  0.17330267732E+03  0.20443323795E+03  0.00000000000E+00 0.  1.
<mgrwt>
<rscale>  2 0.22046010E+03</rscale>
<asrwt>0</asrwt>
<pdfrwt beam="1">  1       21 0.10510027E+00 0.22048360E+03</pdfrwt>
<pdfrwt beam="2">  1       21 0.12738345E-01 0.22048360E+03</pdfrwt>
<totfact> 0.37866536E+04</totfact>
</mgrwt>
</event>
<event>
12    1  0.1050690E-001  0.2193074E+03  0.7546771E-02  0.1134648E+00
         21   -1    0    0  501  502  0.00000000000E+00  0.00000000000E+00  0.35072504721E+03  0.35072504721E+03  0.00000000000E+00 0. -1.
         21   -1    0    0  502  503 -0.00000000000E+00 -0.00000000000E+00 -0.16698572605E+03  0.16698572605E+03  0.00000000000E+00 0. -1.
         -6    2    1    2    0  503 -0.99292132857E+02 -0.89498537125E+02 -0.19302449281E+02  0.21884338514E+03  0.17219444496E+03 0.  0.
        -24    2    3    3    0    0 -0.13390350603E+03 -0.98884812313E+02 -0.15385957394E+02  0.18246374491E+03  0.73129580118E+02 0.  0.
          6    2    1    2  501    0  0.99292132857E+02  0.89498537125E+02  0.20304177045E+03  0.29886738812E+03  0.17385867634E+03 0.  0.
         24    2    5    5    0    0  0.55763254279E+02  0.48515940305E+01  0.32229935920E+02  0.10326922591E+03  0.80577203710E+02 0.  0.
          5    1    5    5  501    0  0.43528878578E+02  0.84646943094E+02  0.17081183453E+03  0.19559816221E+03  0.47000000000E+01 0. -1.
        -13    1    6    6    0    0  0.22435498180E+02 -0.36838692931E+02  0.23707542603E+02  0.49218781494E+02  0.00000000000E+00 0.  1.
         14    1    6    6    0    0  0.33327756099E+02  0.41690286961E+02  0.85223933171E+01  0.54050444414E+02  0.00000000000E+00 0. -1.
         -5    1    3    3    0  503  0.34611373171E+02  0.93862751885E+01 -0.39164918868E+01  0.36379640232E+02  0.47000000000E+01 0.  1.
         13    1    4    4    0    0 -0.85584618745E+02 -0.71477410936E+02 -0.44124320260E+02  0.11991956837E+03  0.00000000000E+00 0. -1.
        -14    1    4    4    0    0 -0.48318887283E+02 -0.27407401377E+02  0.28738362866E+02  0.62544176537E+02  0.00000000000E+00 0.  1.
<mgrwt>
<rscale>  2 0.21897746E+03</rscale>
<asrwt>0</asrwt>
<pdfrwt beam="1">  1       21 0.53957699E-01 0.21930744E+03</pdfrwt>
<pdfrwt beam="2">  1       21 0.25690112E-01 0.21930744E+03</pdfrwt>
<totfact> 0.46098260E+04</totfact>
</mgrwt>
</event>
<event>
12    1  0.1050690E-001  0.3731371E+03  0.7546771E-02  0.1053530E+00
         21   -1    0    0  503  502  0.00000000000E+00  0.00000000000E+00  0.13616998950E+04  0.13616998950E+04  0.00000000000E+00 0. -1.
         21   -1    0    0  501  503 -0.00000000000E+00 -0.00000000000E+00 -0.26343111744E+03  0.26343111744E+03  0.00000000000E+00 0. -1.
          6    2    1    2  501    0 -0.31191175053E+03 -0.10809634920E+03 -0.86548116973E+02  0.38304291859E+03  0.17394694623E+03 0.  0.
         24    2    3    3    0    0 -0.18361559234E+03 -0.13390775637E+03 -0.41656154953E+02  0.24461058422E+03  0.80331374319E+02 0.  0.
         -6    2    1    2    0  502  0.31191175053E+03  0.10809634920E+03  0.11848168946E+04  0.12420880939E+04  0.17325703009E+03 0.  0.
        -24    2    5    5    0    0  0.29320097100E+03  0.57604011241E+02  0.10887003683E+04  0.11318154949E+04  0.80329266572E+02 0.  0.
          5    1    3    3  501    0 -0.12829615818E+03  0.25811407171E+02 -0.44891962020E+02  0.13843233437E+03  0.47000000000E+01 0. -1.
        -13    1    4    4    0    0 -0.40070387400E+02 -0.76527971241E+02 -0.12211457014E+02  0.87242684570E+02  0.00000000000E+00 0.  1.
         14    1    4    4    0    0 -0.14354520494E+03 -0.57379785127E+02 -0.29444697939E+02  0.15736789965E+03  0.00000000000E+00 0. -1.
         -5    1    5    5    0  502  0.18710779521E+02  0.50492337956E+02  0.96116526299E+02  0.11027259900E+03  0.47000000000E+01 0.  1.
         11    1    6    6    0    0  0.24116899184E+03  0.73010082092E+02  0.95079272601E+03  0.98361565794E+03  0.00000000000E+00 0. -1.
        -12    1    6    6    0    0  0.52031979167E+02 -0.15406070851E+02  0.13790764226E+03  0.14819983694E+03  0.00000000000E+00 0.  1.
<mgrwt>
<rscale>  2 0.37305680E+03</rscale>
<asrwt>0</asrwt>
<pdfrwt beam="1">  1       21 0.20949229E+00 0.37313711E+03</pdfrwt>
<pdfrwt beam="2">  1       21 0.40527865E-01 0.37313711E+03</pdfrwt>
<totfact> 0.58853538E+02</totfact>
</mgrwt>
</event>
<event>
12    1  0.1050690E-001  0.1840838E+03  0.7546771E-02  0.1164485E+00
         21   -1    0    0  501  502  0.00000000000E+00  0.00000000000E+00  0.13611427028E+04  0.13611427028E+04  0.00000000000E+00 0.  1.
         21   -1    0    0  502  503 -0.00000000000E+00 -0.00000000000E+00 -0.55023288219E+02  0.55023288219E+02  0.00000000000E+00 0.  1.
         -6    2    1    2    0  503  0.36708762313E+02 -0.53821185538E+02  0.12820728622E+03  0.22432998707E+03  0.17217021118E+03 0.  0.
        -24    2    3    3    0    0  0.40041832260E+01 -0.39781925860E+02  0.14965566810E+03  0.18251117084E+03  0.96513591683E+02 0.  0.
          6    2    1    2  501    0 -0.36708762313E+02  0.53821185538E+02  0.11779121284E+04  0.11918360040E+04  0.16956363089E+03 0.  0.
         24    2    5    5    0    0 -0.73693994958E+02  0.59745159937E+01  0.92857170246E+03  0.93522355450E+03  0.83253772018E+02 0.  0.
          5    1    5    5  501    0  0.36985232645E+02  0.47846669544E+02  0.24934042591E+03  0.25661244945E+03  0.47000000000E+01 0. -1.
        -13    1    6    6    0    0 -0.15849142528E+02 -0.36019179989E+02  0.28803612383E+03  0.29071185954E+03  0.00000000000E+00 0.  1.
         14    1    6    6    0    0 -0.57844852430E+02  0.41993695983E+02  0.64053557863E+03  0.64451169496E+03  0.00000000000E+00 0. -1.
         -5    1    3    3    0  503  0.32704579087E+02 -0.14039259678E+02 -0.21448381880E+02  0.41818816230E+02  0.47000000000E+01 0.  1.
         11    1    4    4    0    0  0.24646552750E+02  0.80755224823E+01  0.11953016272E+03  0.12231159563E+03  0.00000000000E+00 0. -1.
        -12    1    4    4    0    0 -0.20642369524E+02 -0.47857448342E+02  0.30125505381E+02  0.60199575213E+02  0.00000000000E+00 0.  1.
<mgrwt>
<rscale>  2 0.18347184E+03</rscale>
<asrwt>0</asrwt>
<pdfrwt beam="1">  1       21 0.20940654E+00 0.18408377E+03</pdfrwt>
<pdfrwt beam="2">  1       21 0.84651223E-02 0.18408377E+03</pdfrwt>
<totfact> 0.12819016E+04</totfact>
</mgrwt>
</event>
<event>
12    1  0.1050690E-001  0.2484760E+03  0.7546771E-02  0.1116455E+00
         21   -1    0    0  501  502  0.00000000000E+00  0.00000000000E+00  0.80541001129E+03  0.80541001129E+03  0.00000000000E+00 0.  1.
         21   -1    0    0  502  503 -0.00000000000E+00 -0.00000000000E+00 -0.15130329975E+03  0.15130329975E+03  0.00000000000E+00 0. -1.
         -6    2    1    2    0  503 -0.13605605916E+03  0.84468353401E+02 -0.22195869087E+02  0.23620967728E+03  0.17220975894E+03 0.  0.
        -24    2    3    3    0    0 -0.13032197852E+03  0.82163209664E+02 -0.70664720579E+02  0.18712288748E+03  0.79289729310E+02 0.  0.
          6    2    1    2  501    0  0.13605605916E+03 -0.84468353401E+02  0.67630258062E+03  0.72050363376E+03  0.18998460924E+03 0.  0.
         24    2    5    5    0    0 -0.15890648087E+02 -0.32519244606E+02  0.22532925006E+03  0.24177036081E+03  0.79809914605E+02 0.  0.
          5    1    5    5  501    0  0.15194670725E+03 -0.51949108795E+02  0.45097333056E+03  0.47873327295E+03  0.47000000000E+01 0. -1.
        -13    1    6    6    0    0 -0.94765688497E+01 -0.18352727731E+02  0.22527443484E+03  0.22621936028E+03  0.00000000000E+00 0.  1.
         14    1    6    6    0    0 -0.64140792377E+01 -0.14166516875E+02  0.54815216285E-01  0.15551000532E+02  0.00000000000E+00 0. -1.
         -5    1    3    3    0  503 -0.57340806384E+01  0.23051437370E+01  0.48468851492E+02  0.49086789805E+02  0.47000000000E+01 0.  1.
         11    1    4    4    0    0 -0.10825432543E+03  0.71744417773E+02 -0.20689783158E+02  0.13150789932E+03  0.00000000000E+00 0. -1.
        -12    1    4    4    0    0 -0.22067653093E+02  0.10418791891E+02 -0.49974937421E+02  0.55614988157E+02  0.00000000000E+00 0.  1.
<mgrwt>
<rscale>  2 0.24507908E+03</rscale>
<asrwt>0</asrwt>
<pdfrwt beam="1">  1       21 0.12390923E+00 0.24847597E+03</pdfrwt>
<pdfrwt beam="2">  1       21 0.23277431E-01 0.24847597E+03</pdfrwt>
<totfact> 0.81445291E+03</totfact>
</mgrwt>
</event>
<event>
12    1  0.1050690E-001  0.1946447E+03  0.7546771E-02  0.1155714E+00
         21   -1    0    0  501  502  0.00000000000E+00  0.00000000000E+00  0.23653374311E+02  0.23653374311E+02  0.00000000000E+00 0.  1.
         21   -1    0    0  502  503 -0.00000000000E+00 -0.00000000000E+00 -0.18361168267E+04  0.18361168267E+04  0.00000000000E+00 0.  1.
         -6    2    1    2    0  503  0.75495655883E+00  0.88580869070E+02 -0.12601217338E+04  0.12741355475E+04  0.16633541178E+03 0.  0.
        -24    2    3    3    0    0  0.19154662332E+02  0.12010344238E+03 -0.11265545791E+04  0.11355913430E+04  0.75171408348E+02 0.  0.
          6    2    1    2  501    0 -0.75495655883E+00 -0.88580869070E+02 -0.55234171860E+03  0.58563465347E+03  0.17331887640E+03 0.  0.
         24    2    5    5    0    0  0.34235459607E+02  0.12393720485E+02 -0.23206736935E+03  0.24796921883E+03  0.79421650519E+02 0.  0.
          5    1    5    5  501    0 -0.34990416165E+02 -0.10097458956E+03 -0.32027434925E+03  0.33766543464E+03  0.47000000000E+01 0. -1.
        -11    1    6    6    0    0 -0.16665143029E+02 -0.18618929682E+02 -0.43045581244E+02  0.49772618971E+02  0.00000000000E+00 0.  1.
         12    1    6    6    0    0  0.50900602635E+02  0.31012650167E+02 -0.18902178810E+03  0.19819659986E+03  0.00000000000E+00 0. -1.
         -5    1    3    3    0  503 -0.18399705773E+02 -0.31522573315E+02 -0.13356715465E+03  0.13854420451E+03  0.47000000000E+01 0.  1.
         13    1    4    4    0    0  0.28029824960E+02  0.90492548892E+01 -0.32490624559E+03  0.32623860674E+03  0.00000000000E+00 0. -1.
        -14    1    4    4    0    0 -0.88751626275E+01  0.11105418750E+03 -0.80164833351E+03  0.80935273626E+03  0.00000000000E+00 0.  1.
<mgrwt>
<rscale>  2 0.19307804E+03</rscale>
<asrwt>0</asrwt>
<pdfrwt beam="1">  1       21 0.36389815E-02 0.19464474E+03</pdfrwt>
<pdfrwt beam="2">  1       21 0.28247945E+00 0.19464474E+03</pdfrwt>
<totfact> 0.19728440E+04</totfact>
</mgrwt>
</event>
<event>
12    1  0.1050690E-001  0.1803573E+03  0.7546771E-02  0.1167568E+00
         21   -1    0    0  501  502  0.00000000000E+00  0.00000000000E+00  0.12233336111E+03  0.12233336111E+03  0.00000000000E+00 0. -1.
         21   -1    0    0  502  503 -0.00000000000E+00 -0.00000000000E+00 -0.42160528860E+03  0.42160528860E+03  0.00000000000E+00 0.  1.
         -6    2    1    2    0  503 -0.50374353524E+02 -0.49748533492E+01 -0.31515169018E+03  0.36288362336E+03  0.17263143288E+03 0.  0.
        -24    2    3    3    0    0 -0.26127924849E+02  0.25255232732E+02 -0.31081107729E+03  0.32360667938E+03  0.82445508874E+02 0.  0.
          6    2    1    2  501    0  0.50374353524E+02  0.49748533492E+01  0.15879762695E+02  0.18105502635E+03  0.17310814841E+03 0.  0.
         24    2    5    5    0    0  0.12472847301E+02  0.76121243137E+01  0.74681493900E+02  0.11088941537E+03  0.80657427139E+02 0.  0.
          5    1    5    5  501    0  0.37901506223E+02 -0.26372709646E+01 -0.58801731205E+02  0.70165610984E+02  0.47000000000E+01 0. -1.
        -11    1    6    6    0    0  0.41646120119E+02 -0.13522392603E+02  0.28197244827E+02  0.52080121338E+02  0.00000000000E+00 0.  1.
         12    1    6    6    0    0 -0.29173272819E+02  0.21134516916E+02  0.46484249073E+02  0.58809294028E+02  0.00000000000E+00 0. -1.
         -5    1    3    3    0  503 -0.24246428674E+02 -0.30230086081E+02 -0.43406128886E+01  0.39276943977E+02  0.47000000000E+01 0.  1.
         11    1    4    4    0    0 -0.46773506514E+02 -0.97343089444E+01 -0.19865684604E+03  0.20432097338E+03  0.00000000000E+00 0. -1.
        -12    1    4    4    0    0  0.20645581665E+02  0.34989541676E+02 -0.11215423125E+03  0.11928570600E+03  0.00000000000E+00 0.  1.
<mgrwt>
<rscale>  2 0.18024281E+03</rscale>
<asrwt>0</asrwt>
<pdfrwt beam="1">  1       21 0.18820517E-01 0.18035730E+03</pdfrwt>
<pdfrwt beam="2">  1       21 0.64862352E-01 0.18035730E+03</pdfrwt>
<totfact> 0.56921096E+04</totfact>
</mgrwt>
</event>
<event>
12    1  0.1050690E-001  0.1997056E+03  0.7546771E-02  0.1150181E+00
         21   -1    0    0  501  502  0.00000000000E+00  0.00000000000E+00  0.69160723213E+02  0.69160723213E+02  0.00000000000E+00 0.  1.
         21   -1    0    0  502  503 -0.00000000000E+00 -0.00000000000E+00 -0.57426049739E+03  0.57426049739E+03  0.00000000000E+00 0.  1.
         -6    2    1    2    0  503 -0.88726637641E+02 -0.16430407898E+02 -0.24663619568E+03  0.31735110865E+03  0.17815706164E+03 0.  0.
        -24    2    3    3    0    0 -0.95768551897E+01  0.43802175332E+02 -0.74012666262E+02  0.11806833204E+03  0.80323779446E+02 0.  0.
          6    2    1    2  501    0  0.88726637641E+02  0.16430407898E+02 -0.25846357850E+03  0.32607011196E+03  0.17713249834E+03 0.  0.
         24    2    5    5    0    0  0.47061977263E+02  0.60298218618E+02 -0.77187280121E+02  0.13490652992E+03  0.79944923109E+02 0.  0.
          5    1    5    5  501    0  0.41664660378E+02 -0.43867810720E+02 -0.18127629838E+03  0.19116358203E+03  0.47000000000E+01 0. -1.
        -13    1    6    6    0    0  0.39670106191E+02 -0.87441708224E+01 -0.21914689962E+02  0.46156597413E+02  0.00000000000E+00 0.  1.
         14    1    6    6    0    0  0.73918710715E+01  0.69042389440E+02 -0.55272590159E+02  0.88749932509E+02  0.00000000000E+00 0. -1.
         -5    1    3    3    0  503 -0.79149782451E+02 -0.60232583230E+02 -0.17262352942E+03  0.19928277661E+03  0.47000000000E+01 0.  1.
         11    1    4    4    0    0  0.14114781074E+02  0.13256255349E+02 -0.76903250588E+02  0.79303627292E+02  0.00000000000E+00 0. -1.
        -12    1    4    4    0    0 -0.23691636264E+02  0.30545919983E+02  0.28905843263E+01  0.38764704748E+02  0.00000000000E+00 0.  1.
<mgrwt>
<rscale>  2 0.19947681E+03</rscale>
<asrwt>0</asrwt>
<pdfrwt beam="1">  1       21 0.10640112E-01 0.19970557E+03</pdfrwt>
<pdfrwt beam="2">  1       21 0.88347765E-01 0.19970557E+03</pdfrwt>
<totfact> 0.79469107E+04</totfact>
</mgrwt>
</event>
<event>
12    1  0.1050690E-001  0.1918492E+03  0.7546771E-02  0.1157191E+00
         21   -1    0    0  501  502  0.00000000000E+00  0.00000000000E+00  0.98711079520E+02  0.98711079520E+02  0.00000000000E+00 0. -1.
         21   -1    0    0  502  503 -0.00000000000E+00 -0.00000000000E+00 -0.42979901306E+03  0.42979901306E+03  0.00000000000E+00 0. -1.
         -6    2    1    2    0  503  0.41969257403E+01 -0.78997570922E+02 -0.26386971592E+03  0.32522600777E+03  0.17287712038E+03 0.  0.
        -24    2    3    3    0    0 -0.43716666301E+02 -0.94521649458E+02 -0.22515829539E+03  0.26152849294E+03  0.82797376185E+02 0.  0.
          6    2    1    2  501    0 -0.41969257403E+01  0.78997570922E+02 -0.67218217621E+02  0.20328408481E+03  0.17477957535E+03 0.  0.
         24    2    5    5    0    0 -0.45249891307E+02 -0.10691440426E+02 -0.13095877363E+02  0.90675104471E+02  0.76737298657E+02 0.  0.
          5    1    5    5  501    0  0.41052965567E+02  0.89689011348E+02 -0.54122340258E+02  0.11260898034E+03  0.47000000000E+01 0. -1.
        -13    1    6    6    0    0  0.15337096677E+02 -0.22272961179E+02 -0.10267395345E+02  0.28926298438E+02  0.00000000000E+00 0.  1.
         14    1    6    6    0    0 -0.60586987984E+02  0.11581520752E+02 -0.28284820177E+01  0.61748806033E+02  0.00000000000E+00 0. -1.
         -5    1    3    3    0  503  0.47913592041E+02  0.15524078536E+02 -0.38711420524E+02  0.63697514832E+02  0.47000000000E+01 0.  1.
         13    1    4    4    0    0  0.20416118790E+02 -0.52216729276E+02 -0.88908884966E+02  0.10511039220E+03  0.00000000000E+00 0. -1.
        -14    1    4    4    0    0 -0.64132785091E+02 -0.42304920182E+02 -0.13624941043E+03  0.15641810073E+03  0.00000000000E+00 0.  1.
<mgrwt>
<rscale>  2 0.19141487E+03</rscale>
<asrwt>0</asrwt>
<pdfrwt beam="1">  1       21 0.15186320E-01 0.19184924E+03</pdfrwt>
<pdfrwt beam="2">  1       21 0.66122927E-01 0.19184924E+03</pdfrwt>
<totfact> 0.80563693E+04</totfact>
</mgrwt>
</event>
<event>
11    1  0.1050690E-001  0.1987113E+03  0.7546771E-02  0.1151416E+00
         21   -1    0    0  503  502  0.00000000000E+00  0.00000000000E+00  0.58498255885E+03  0.58498255885E+03  0.00000000000E+00 0.  1.
         21   -1    0    0  501  503 -0.00000000000E+00 -0.00000000000E+00 -0.66579796926E+02  0.66579796926E+02  0.00000000000E+00 0.  1.
          6    2    1    2  501    0 -0.20596006639E+02  0.93821902547E+02  0.26385106722E+03  0.33030828561E+03  0.17395238711E+03 0.  0.
         24    2    3    3    0    0  0.41445379472E+02  0.13897079926E+02  0.12160568130E+03  0.15568597696E+03  0.86829334836E+02 0.  0.
         -6    2    1    2    0  502  0.20596006639E+02 -0.93821902547E+02  0.25455169470E+03  0.32125407016E+03  0.17082408330E+03 0.  0.
          5    1    3    3  501    0 -0.62041386111E+02  0.79924822621E+02  0.14224538593E+03  0.17462230865E+03  0.47000000000E+01 0. -1.
        -13    1    4    4    0    0  0.40149996599E+02  0.32435850221E+02  0.25076426976E+02  0.57384090098E+02  0.00000000000E+00 0.  1.
         14    1    4    4    0    0  0.12953828733E+01 -0.18538770295E+02  0.96529254321E+02  0.98301886861E+02  0.00000000000E+00 0. -1.
         -5    1    5    5    0  502  0.29546805808E+02 -0.27468275539E+02  0.14134826473E+03  0.14706781373E+03  0.47000000000E+01 0.  1.
         11    1    5    5    0    0  0.24391471091E+02  0.23195665411E+02  0.47519320236E+02  0.58232882047E+02  0.00000000000E+00 0. -1.
        -12    1    5    5    0    0 -0.33342270260E+02 -0.89549292418E+02  0.65684109730E+02  0.11595337438E+03  0.00000000000E+00 0.  1.
<mgrwt>
<rscale>  2 0.19802457E+03</rscale>
<asrwt>0</asrwt>
<pdfrwt beam="1">  1       21 0.89997313E-01 0.19871129E+03</pdfrwt>
<pdfrwt beam="2">  1       21 0.10243046E-01 0.19871129E+03</pdfrwt>
<totfact> 0.81490036E+04</totfact>
</mgrwt>
</event>
<event>
12    1  0.1050690E-001  0.2658679E+03  0.7546771E-02  0.1103722E+00
         21   -1    0    0  503  502  0.00000000000E+00  0.00000000000E+00  0.47583830424E+03  0.47583830424E+03  0.00000000000E+00 0.  1.
         21   -1    0    0  501  503 -0.00000000000E+00 -0.00000000000E+00 -0.16109760502E+03  0.16109760502E+03  0.00000000000E+00 0.  1.
          6    2    1    2  501    0  0.83132558077E+02  0.18306055439E+03  0.67666948724E+02  0.27398800364E+03  0.17340248384E+03 0.  0.
         24    2    3    3    0    0  0.11341619558E+03  0.14885533095E+03  0.15997496764E+02  0.20485828299E+03  0.81791523004E+02 0.  0.
         -6    2    1    2    0  502 -0.83132558077E+02 -0.18306055439E+03  0.24707375049E+03  0.36294790562E+03  0.17396423548E+03 0.  0.
        -24    2    5    5    0    0 -0.53428952214E+02 -0.16515801904E+03  0.26217397249E+03  0.32483082707E+03  0.81535576135E+02 0.  0.
          5    1    3    3  501    0 -0.30283637502E+02  0.34205223440E+02  0.51669451960E+02  0.69129720647E+02  0.47000000000E+01 0. -1.
        -13    1    4    4    0    0  0.17140351654E+00  0.32484235585E+02 -0.20522264492E+02  0.38424188743E+02  0.00000000000E+00 0.  1.
         14    1    4    4    0    0  0.11324479206E+03  0.11637109536E+03  0.36519761256E+02  0.16643409425E+03  0.00000000000E+00 0. -1.
         -5    1    5    5    0  502 -0.29703605863E+02 -0.17902535352E+02 -0.15100221994E+02  0.38117078555E+02  0.47000000000E+01 0.  1.
         11    1    6    6    0    0  0.13238161239E+02 -0.91233466428E+02  0.12962208168E+03  0.15906186962E+03  0.00000000000E+00 0. -1.
        -12    1    6    6    0    0 -0.66667113453E+02 -0.73924552608E+02  0.13255189081E+03  0.16576895744E+03  0.00000000000E+00 0.  1.
<mgrwt>
<rscale>  2 0.26577605E+03</rscale>
<asrwt>0</asrwt>
<pdfrwt beam="1">  1       21 0.73205892E-01 0.26586791E+03</pdfrwt>
<pdfrwt beam="2">  1       21 0.24784247E-01 0.26586791E+03</pdfrwt>
<totfact> 0.24894951E+04</totfact>
</mgrwt>
</event>
<event>
12    1  0.1050690E-001  0.2131042E+03  0.7546771E-02  0.1139866E+00
         21   -1    0    0  501  502  0.00000000000E+00  0.00000000000E+00  0.79034746217E+02  0.79034746217E+02  0.00000000000E+00 0.  1.
         21   -1    0    0  502  503 -0.00000000000E+00 -0.00000000000E+00 -0.11268556226E+04  0.11268556226E+04  0.00000000000E+00 0.  1.
         -6    2    1    2    0  503 -0.82115547863E+02 -0.86356740688E+02 -0.95215593426E+03  0.97571221274E+03  0.17667186837E+03 0.  0.
        -24    2    3    3    0    0 -0.41331561196E+02 -0.12585790998E+03 -0.74683106985E+03  0.76262991434E+03  0.79367675436E+02 0.  0.
          6    2    1    2  501    0  0.82115547863E+02  0.86356740688E+02 -0.95664942089E+02  0.23017815605E+03  0.17213295011E+03 0.  0.
         24    2    5    5    0    0  0.11365284573E+03  0.72080760311E+02 -0.28590141786E+02  0.15455062397E+03  0.70398109440E+02 0.  0.
          5    1    5    5  501    0 -0.31537297866E+02  0.14275980377E+02 -0.67074800303E+02  0.75627532077E+02  0.47000000000E+01 0. -1.
        -11    1    6    6    0    0  0.82683020640E+02  0.74493885606E+02 -0.44246298900E+02  0.11976458517E+03  0.00000000000E+00 0.  1.
         12    1    6    6    0    0  0.30969825089E+02 -0.24131252959E+01  0.15656157113E+02  0.34786038798E+02  0.00000000000E+00 0. -1.
         -5    1    3    3    0  503 -0.40783986667E+02  0.39501169288E+02 -0.20532486441E+03  0.21308229840E+03  0.47000000000E+01 0.  1.
         13    1    4    4    0    0 -0.25567818718E+02 -0.11083042083E+03 -0.42169117793E+03  0.43676142810E+03  0.00000000000E+00 0. -1.
        -14    1    4    4    0    0 -0.15763742478E+02 -0.15027489149E+02 -0.32513989191E+03  0.32586848623E+03  0.00000000000E+00 0.  1.
<mgrwt>
<rscale>  2 0.21216107E+03</rscale>
<asrwt>0</asrwt>
<pdfrwt beam="1">  1       21 0.12159192E-01 0.21310420E+03</pdfrwt>
<pdfrwt beam="2">  1       21 0.17336239E+00 0.21310420E+03</pdfrwt>
<totfact> 0.11407213E+04</totfact>
</mgrwt>
</event>
<event>
12    1  0.1050690E-001  0.2344328E+03  0.7546771E-02  0.1123614E+00
         21   -1    0    0  503  502  0.00000000000E+00  0.00000000000E+00  0.73058629838E+03  0.73058629838E+03  0.00000000000E+00 0.  1.
         21   -1    0    0  501  503 -0.00000000000E+00 -0.00000000000E+00 -0.18921902739E+03  0.18921902739E+03  0.00000000000E+00 0.  1.
          6    2    1    2  501    0 -0.14505564799E+03 -0.63080729487E+02 -0.86367904974E+02  0.24983623456E+03  0.17302719337E+03 0.  0.
         24    2    3    3    0    0 -0.54248362487E+02 -0.36668353211E+02  0.21022044082E+02  0.10666407289E+03  0.81534318837E+02 0.  0.
         -6    2    1    2    0  502  0.14505564799E+03  0.63080729487E+02  0.62773517596E+03  0.66996909121E+03  0.17258856449E+03 0.  0.
        -24    2    5    5    0    0  0.47063314887E+02  0.62812874308E+02  0.48318605270E+03  0.49527190140E+03  0.75266739030E+02 0.  0.
          5    1    3    3  501    0 -0.90807285499E+02 -0.26412376276E+02 -0.10738994906E+03  0.14317216167E+03  0.47000000000E+01 0. -1.
        -13    1    4    4    0    0 -0.23718312454E+02 -0.26515221874E+02 -0.29871487514E+02  0.46453429400E+02  0.00000000000E+00 0.  1.
         14    1    4    4    0    0 -0.30530050033E+02 -0.10153131337E+02  0.50893531597E+02  0.60210643489E+02  0.00000000000E+00 0. -1.
         -5    1    5    5    0  502  0.97992333099E+02  0.26785517858E+00  0.14454912326E+03  0.17469718981E+03  0.47000000000E+01 0.  1.
         13    1    6    6    0    0  0.28555228968E+02  0.17516043791E+02  0.37548299151E+03  0.37697438879E+03  0.00000000000E+00 0. -1.
        -14    1    6    6    0    0  0.18508085919E+02  0.45296830517E+02  0.10770306119E+03  0.11829751261E+03  0.00000000000E+00 0.  1.
<mgrwt>
<rscale>  2 0.23435185E+03</rscale>
<asrwt>0</asrwt>
<pdfrwt beam="1">  1       21 0.11239789E+00 0.23443278E+03</pdfrwt>
<pdfrwt beam="2">  1       21 0.29110620E-01 0.23443278E+03</pdfrwt>
<totfact> 0.67975008E+03</totfact>
</mgrwt>
</event>
<event>
12    1  0.1050690E-001  0.1856652E+03  0.7546771E-02  0.1163244E+00
         21   -1    0    0  501  502  0.00000000000E+00  0.00000000000E+00  0.37982970089E+03  0.37982970089E+03  0.00000000000E+00 0.  1.
         21   -1    0    0  502  503 -0.00000000000E+00 -0.00000000000E+00 -0.12257260262E+03  0.12257260262E+03  0.00000000000E+00 0.  1.
         -6    2    1    2    0  503 -0.18700590973E+02  0.51456825211E+02 -0.18191351240E+01  0.18567411545E+03  0.17740927522E+03 0.  0.
        -24    2    3    3    0    0  0.13292509233E+01  0.67052262879E+02 -0.61331273173E+02  0.12080349947E+03  0.79587609279E+02 0.  0.
          6    2    1    2  501    0  0.18700590973E+02 -0.51456825211E+02  0.25907623339E+03  0.31672818806E+03  0.17377782782E+03 0.  0.
         24    2    5    5    0    0  0.32087058371E+02  0.18083820134E+01  0.72474788951E+02  0.12215540251E+03  0.92932759393E+02 0.  0.
          5    1    5    5  501    0 -0.13386467398E+02 -0.53265207225E+02  0.18660144444E+03  0.19457278555E+03  0.47000000000E+01 0. -1.
        -11    1    6    6    0    0  0.23491206983E+02  0.44465358555E+02  0.20339451707E+02  0.54246642410E+02  0.00000000000E+00 0.  1.
         12    1    6    6    0    0  0.85958513886E+01 -0.42656976542E+02  0.52135337243E+02  0.67908760100E+02  0.00000000000E+00 0. -1.
         -5    1    3    3    0  503 -0.20029841897E+02 -0.15595437667E+02  0.59512138049E+02  0.64870615980E+02  0.47000000000E+01 0.  1.
         11    1    4    4    0    0  0.16619562120E+02  0.11084436754E+02  0.14959657804E+02  0.24957282401E+02  0.00000000000E+00 0. -1.
        -12    1    4    4    0    0 -0.15290311197E+02  0.55967826125E+02 -0.76290930978E+02  0.95846217072E+02  0.00000000000E+00 0.  1.
<mgrwt>
<rscale>  2 0.18479236E+03</rscale>
<asrwt>0</asrwt>
<pdfrwt beam="1">  1       21 0.58435338E-01 0.18566520E+03</pdfrwt>
<pdfrwt beam="2">  1       21 0.18857324E-01 0.18566520E+03</pdfrwt>
<totfact> 0.70838152E+04</totfact>
</mgrwt>
</event>
<event>
12    1  0.1050690E-001  0.2301858E+03  0.7546771E-02  0.1126873E+00
         21   -1    0    0  503  502  0.00000000000E+00  0.00000000000E+00  0.61425084701E+03  0.61425084701E+03  0.00000000000E+00 0.  1.
         21   -1    0    0  501  503 -0.00000000000E+00 -0.00000000000E+00 -0.12226273554E+03  0.12226273554E+03  0.00000000000E+00 0. -1.
          6    2    1    2  501    0  0.14942872322E+03 -0.92755225900E+01  0.43258347875E+02  0.23218839224E+03  0.17211968564E+03 0.  0.
         24    2    3    3    0    0  0.68265830904E+02  0.40295468927E+02  0.70423117753E+02  0.13316964143E+03  0.80565435512E+02 0.  0.
         -6    2    1    2    0  502 -0.14942872322E+03  0.92755225900E+01  0.44872976359E+03  0.50432519031E+03  0.17484426846E+03 0.  0.
        -24    2    5    5    0    0 -0.13253559002E+03 -0.19000077540E+02  0.19335753090E+03  0.24679469748E+03  0.74791726674E+02 0.  0.
          5    1    3    3  501    0  0.81162892313E+02 -0.49570991517E+02 -0.27164769878E+02  0.99018750806E+02  0.47000000000E+01 0. -1.
        -11    1    4    4    0    0  0.28865970974E+02  0.56000568359E+02  0.64808536785E+02  0.90385034033E+02  0.00000000000E+00 0.  1.
         12    1    4    4    0    0  0.39399859930E+02 -0.15705099432E+02  0.56145809681E+01  0.42784607397E+02  0.00000000000E+00 0. -1.
         -5    1    5    5    0  502 -0.16893133194E+02  0.28275600131E+02  0.25537223269E+03  0.25753049283E+03  0.47000000000E+01 0.  1.
         13    1    6    6    0    0 -0.11482161219E+03  0.13853719413E+02  0.15344079223E+03  0.19214579071E+03  0.00000000000E+00 0. -1.
        -14    1    6    6    0    0 -0.17713977829E+02 -0.32853796954E+02  0.39916738676E+02  0.54648906771E+02  0.00000000000E+00 0.  1.
<mgrwt>
<rscale>  2 0.22966838E+03</rscale>
<asrwt>0</asrwt>
<pdfrwt beam="1">  1       21 0.94500128E-01 0.23018579E+03</pdfrwt>
<pdfrwt beam="2">  1       21 0.18809652E-01 0.23018579E+03</pdfrwt>
<totfact> 0.23758909E+04</totfact>
</mgrwt>
</event>
<event>
12    1  0.1050690E-001  0.1875549E+03  0.7546771E-02  0.1160865E+00
         21   -1    0    0  503  502  0.00000000000E+00  0.00000000000E+00  0.49793681843E+03  0.49793681843E+03  0.00000000000E+00 0. -1.
         21   -1    0    0  501  503 -0.00000000000E+00 -0.00000000000E+00 -0.17505234619E+03  0.17505234619E+03  0.00000000000E+00 0.  1.
          6    2    1    2  501    0  0.68120835600E+02  0.96511735101E+01 -0.98659989832E+02  0.21192126150E+03  0.17447989594E+03 0.  0.
         24    2    3    3    0    0 -0.28176558836E+02  0.25408709904E+02 -0.54697140158E+02  0.10479371938E+03  0.80934698821E+02 0.  0.
         -6    2    1    2    0  502 -0.68120835600E+02 -0.96511735101E+01  0.42154446208E+03  0.46106790312E+03  0.17363837246E+03 0.  0.
        -24    2    5    5    0    0 -0.32876718101E+02 -0.36048317146E+02  0.40056971559E+03  0.41206803577E+03  0.83448243212E+02 0.  0.
          5    1    3    3  501    0  0.96297394436E+02 -0.15757536394E+02 -0.43962849674E+02  0.10712754212E+03  0.47000000000E+01 0. -1.
        -11    1    4    4    0    0 -0.11466623471E+02  0.19320860827E+02 -0.74713214332E+02  0.78018225517E+02  0.00000000000E+00 0.  1.
         12    1    4    4    0    0 -0.16709935364E+02  0.60878490773E+01  0.20016074174E+02  0.26775493863E+02  0.00000000000E+00 0. -1.
         -5    1    5    5    0  502 -0.35244117499E+02  0.26397143636E+02  0.20974746490E+02  0.48999867354E+02  0.47000000000E+01 0.  1.
         11    1    6    6    0    0  0.11071380850E+02  0.17164084291E+02  0.17469822462E+03  0.17588817740E+03  0.00000000000E+00 0. -1.
        -12    1    6    6    0    0 -0.43948098951E+02 -0.53212401437E+02  0.22587149097E+03  0.23617985837E+03  0.00000000000E+00 0.  1.
<mgrwt>
<rscale>  2 0.18735891E+03</rscale>
<asrwt>0</asrwt>
<pdfrwt beam="1">  1       21 0.76605664E-01 0.18755487E+03</pdfrwt>
<pdfrwt beam="2">  1       21 0.26931130E-01 0.18755487E+03</pdfrwt>
<totfact> 0.19976008E+04</totfact>
</mgrwt>
</event>
<event>
12    1  0.1050690E-001  0.2235419E+03  0.7546771E-02  0.1131397E+00
         21   -1    0    0  503  502  0.00000000000E+00  0.00000000000E+00  0.31358861684E+03  0.31358861684E+03  0.00000000000E+00 0.  1.
         21   -1    0    0  501  503 -0.00000000000E+00 -0.00000000000E+00 -0.54842729303E+03  0.54842729303E+03  0.00000000000E+00 0.  1.
          6    2    1    2  501    0 -0.88485551341E+02  0.11197241571E+03 -0.48073408009E+03  0.53016623213E+03  0.17205656993E+03 0.  0.
         24    2    3    3    0    0 -0.84194389786E+02  0.16280591440E+02 -0.34068113171E+03  0.36042449404E+03  0.80550788153E+02 0.  0.
         -6    2    1    2    0  502  0.88485551341E+02 -0.11197241571E+03  0.24589540390E+03  0.33184967774E+03  0.17114947936E+03 0.  0.
        -24    2    5    5    0    0  0.33365020508E+02 -0.94129420718E+02  0.69310652218E+02  0.14594402986E+03  0.80759648978E+02 0.  0.
          5    1    3    3  501    0 -0.42911615545E+01  0.95691824271E+02 -0.14005294838E+03  0.16974173809E+03  0.47000000000E+01 0. -1.
        -11    1    4    4    0    0 -0.94468467087E+02  0.19648142502E+02 -0.23281962135E+03  0.25202245310E+03  0.00000000000E+00 0.  1.
         12    1    4    4    0    0  0.10274077301E+02 -0.33675510619E+01 -0.10786151035E+03  0.10840204094E+03  0.00000000000E+00 0. -1.
         -5    1    5    5    0  502  0.55120530833E+02 -0.17842994993E+02  0.17658475168E+03  0.18590564788E+03  0.47000000000E+01 0.  1.
         13    1    6    6    0    0 -0.11735878279E+02 -0.10643839700E+02 -0.12871984417E+02  0.20413479502E+02  0.00000000000E+00 0. -1.
        -14    1    6    6    0    0  0.45100898787E+02 -0.83485581018E+02  0.82182636635E+02  0.12553055036E+03  0.00000000000E+00 0.  1.
<mgrwt>
<rscale>  2 0.22336733E+03</rscale>
<asrwt>0</asrwt>
<pdfrwt beam="1">  1       21 0.48244403E-01 0.22354189E+03</pdfrwt>
<pdfrwt beam="2">  1       21 0.84373428E-01 0.22354189E+03</pdfrwt>
<totfact> 0.48870638E+03</totfact>
</mgrwt>
</event>
<event>
12    1  0.1050690E-001  0.2246112E+03  0.7546771E-02  0.1132195E+00
         21   -1    0    0  501  502  0.00000000000E+00  0.00000000000E+00  0.14384924452E+03  0.14384924452E+03  0.00000000000E+00 0.  1.
         21   -1    0    0  502  503 -0.00000000000E+00 -0.00000000000E+00 -0.45672584306E+03  0.45672584306E+03  0.00000000000E+00 0.  1.
         -6    2    1    2    0  503  0.97271616552E+02  0.10531033294E+03 -0.30805897733E+03  0.37591226945E+03  0.16080319399E+03 0.  0.
        -24    2    3    3    0    0  0.64815013131E+02 -0.16728914325E+01 -0.13931162278E+03  0.17343609537E+03  0.80427398577E+02 0.  0.
          6    2    1    2  501    0 -0.97271616552E+02 -0.10531033294E+03 -0.48176212059E+01  0.22466281813E+03  0.17291078267E+03 0.  0.
         24    2    5    5    0    0 -0.39830101429E+02 -0.71289410354E+02  0.61664701439E+02  0.13032862466E+03  0.80711820655E+02 0.  0.
          5    1    5    5  501    0 -0.57441515123E+02 -0.34020922590E+02 -0.66482322645E+02  0.94334193470E+02  0.47000000000E+01 0. -1.
        -13    1    6    6    0    0 -0.12117518703E+01 -0.75769033891E+02  0.37458045274E+02  0.84531177652E+02  0.00000000000E+00 0.  1.
         14    1    6    6    0    0 -0.38618349559E+02  0.44796235370E+01  0.24206656165E+02  0.45797447007E+02  0.00000000000E+00 0. -1.
         -5    1    3    3    0  503  0.32456603422E+02  0.10698322438E+03 -0.16874735455E+03  0.20247617408E+03  0.47000000000E+01 0.  1.
         13    1    4    4    0    0  0.99498663361E+01 -0.19297201305E+02 -0.10313458624E+03  0.10539508859E+03  0.00000000000E+00 0. -1.
        -14    1    4    4    0    0  0.54865146794E+02  0.17624309873E+02 -0.36177036535E+02  0.68041006780E+02  0.00000000000E+00 0.  1.
<mgrwt>
<rscale>  2 0.22227959E+03</rscale>
<asrwt>0</asrwt>
<pdfrwt beam="1">  1       21 0.22130653E-01 0.22461116E+03</pdfrwt>
<pdfrwt beam="2">  1       21 0.70265514E-01 0.22461116E+03</pdfrwt>
<totfact> 0.34499457E+04</totfact>
</mgrwt>
</event>
<event>
12    1  0.1050690E-001  0.1928538E+03  0.7546771E-02  0.1155927E+00
         21   -1    0    0  503  502  0.00000000000E+00  0.00000000000E+00  0.23268467140E+03  0.23268467140E+03  0.00000000000E+00 0. -1.
         21   -1    0    0  501  503 -0.00000000000E+00 -0.00000000000E+00 -0.19708770479E+03  0.19708770479E+03  0.00000000000E+00 0.  1.
          6    2    1    2  501    0 -0.27797956531E+02  0.80609231339E+02 -0.75683286559E+02  0.20717274433E+03  0.17297980103E+03 0.  0.
         24    2    3    3    0    0 -0.83262385732E+02  0.61644154556E+02 -0.68210269996E+02  0.14789447664E+03  0.80545071973E+02 0.  0.
         -6    2    1    2    0  502  0.27797956531E+02 -0.80609231339E+02  0.11128025317E+03  0.22259963187E+03  0.17290669969E+03 0.  0.
        -24    2    5    5    0    0  0.72878971511E+02 -0.25693439420E+02  0.10321157221E+03  0.15093907280E+03  0.78475969192E+02 0.  0.
          5    1    3    3  501    0  0.55464429201E+02  0.18965076783E+02 -0.74730165625E+01  0.59278267692E+02  0.47000000000E+01 0. -1.
        -11    1    4    4    0    0 -0.43935722792E+02  0.69603408475E+02 -0.19136714825E+02  0.84505597820E+02  0.00000000000E+00 0.  1.
         12    1    4    4    0    0 -0.39326662940E+02 -0.79592539196E+01 -0.49073555171E+02  0.63388878820E+02  0.00000000000E+00 0. -1.
         -5    1    5    5    0  502 -0.45081014980E+02 -0.54915791919E+02  0.80686809551E+01  0.71660559069E+02  0.47000000000E+01 0.  1.
         11    1    6    6    0    0  0.11881413467E+02 -0.30971073011E+02  0.77935521246E+02  0.84701362570E+02  0.00000000000E+00 0. -1.
        -12    1    6    6    0    0  0.60997558044E+02  0.52776335909E+01  0.25276050967E+02  0.66237710227E+02  0.00000000000E+00 0.  1.
<mgrwt>
<rscale>  2 0.19283740E+03</rscale>
<asrwt>0</asrwt>
<pdfrwt beam="1">  1       21 0.35797642E-01 0.19285379E+03</pdfrwt>
<pdfrwt beam="2">  1       21 0.30321185E-01 0.19285379E+03</pdfrwt>
<totfact> 0.78535613E+04</totfact>
</mgrwt>
</event>
<event>
12    1  0.1050690E-001  0.2296549E+03  0.7546771E-02  0.1126942E+00
         21   -1    0    0  501  502  0.00000000000E+00  0.00000000000E+00  0.31835303344E+03  0.31835303344E+03  0.00000000000E+00 0. -1.
         21   -1    0    0  502  503 -0.00000000000E+00 -0.00000000000E+00 -0.17154407100E+03  0.17154407100E+03  0.00000000000E+00 0. -1.
         -6    2    1    2    0  503  0.87827077092E+02 -0.12342425920E+03  0.11960568136E+03  0.25863666449E+03  0.17216347457E+03 0.  0.
        -24    2    3    3    0    0  0.98165999468E+02 -0.40578863479E+02  0.11209773791E+03  0.17468005592E+03  0.81633396821E+02 0.  0.
          6    2    1    2  501    0 -0.87827077092E+02  0.12342425920E+03  0.27203281078E+02  0.23126043995E+03  0.17261004999E+03 0.  0.
         24    2    5    5    0    0 -0.31362233245E+02 -0.82397448503E+01  0.38505664626E+02  0.87477539623E+02  0.71541251464E+02 0.  0.
          5    1    5    5  501    0 -0.56464843847E+02  0.13166400405E+03 -0.11302383548E+02  0.14378290033E+03  0.47000000000E+01 0. -1.
        -13    1    6    6    0    0  0.12833874103E+02  0.20797026944E+02  0.19569821751E+02  0.31308187069E+02  0.00000000000E+00 0.  1.
         14    1    6    6    0    0 -0.44196107348E+02 -0.29036771795E+02  0.18935842875E+02  0.56169352554E+02  0.00000000000E+00 0. -1.
         -5    1    3    3    0  503 -0.10338922376E+02 -0.82845395722E+02  0.75079434425E+01  0.83956608572E+02  0.47000000000E+01 0.  1.
         13    1    4    4    0    0  0.20780392916E+02 -0.42223199296E+02  0.12783452005E+02  0.48765150812E+02  0.00000000000E+00 0. -1.
        -14    1    4    4    0    0  0.77385606552E+02  0.16443358171E+01  0.99314285909E+02  0.12591490510E+03  0.00000000000E+00 0.  1.
<mgrwt>
<rscale>  2 0.22957099E+03</rscale>
<asrwt>0</asrwt>
<pdfrwt beam="1">  1       21 0.48977389E-01 0.22965490E+03</pdfrwt>
<pdfrwt beam="2">  1       21 0.26391396E-01 0.22965490E+03</pdfrwt>
<totfact> 0.53406575E+04</totfact>
</mgrwt>
</event>
<event>
12    1  0.1050690E-001  0.2755602E+03  0.7546771E-02  0.1098144E+00
         21   -1    0    0  501  502  0.00000000000E+00  0.00000000000E+00  0.98625175517E+02  0.98625175517E+02  0.00000000000E+00 0.  1.
         21   -1    0    0  502  503 -0.00000000000E+00 -0.00000000000E+00 -0.83684319487E+03  0.83684319487E+03  0.00000000000E+00 0.  1.
         -6    2    1    2    0  503  0.21441791344E+03 -0.15705083235E+02 -0.50145410999E+03  0.57216328986E+03  0.17231632132E+03 0.  0.
        -24    2    3    3    0    0  0.21688434446E+03 -0.10472577602E+02 -0.34439935024E+03  0.41493177280E+03  0.80056042120E+02 0.  0.
          6    2    1    2  501    0 -0.21441791344E+03  0.15705083235E+02 -0.23676390937E+03  0.36330508053E+03  0.17237094163E+03 0.  0.
         24    2    5    5    0    0 -0.22274489290E+03  0.46710988600E+02 -0.20284718647E+03  0.31636747464E+03  0.84523335133E+02 0.  0.
          5    1    5    5  501    0  0.83269794646E+01 -0.31005905366E+02 -0.33916722898E+02  0.46937605890E+02  0.47000000000E+01 0. -1.
        -13    1    6    6    0    0 -0.84656516572E+01  0.18810605928E+02 -0.96986648243E+00  0.20650588233E+02  0.00000000000E+00 0.  1.
         14    1    6    6    0    0 -0.21427924125E+03  0.27900382672E+02 -0.20187731999E+03  0.29571688641E+03  0.00000000000E+00 0. -1.
         -5    1    3    3    0  503 -0.24664310198E+01 -0.52325056323E+01 -0.15705475975E+03  0.15723151706E+03  0.47000000000E+01 0.  1.
         11    1    4    4    0    0 -0.60224046862E+01  0.49844875073E+01 -0.90246120103E+01  0.11939769506E+02  0.00000000000E+00 0. -1.
        -12    1    4    4    0    0  0.22290674914E+03 -0.15457065109E+02 -0.33537473823E+03  0.40299200329E+03  0.00000000000E+00 0.  1.
<mgrwt>
<rscale>  2 0.27555167E+03</rscale>
<asrwt>0</asrwt>
<pdfrwt beam="1">  1       21 0.15173105E-01 0.27556022E+03</pdfrwt>
<pdfrwt beam="2">  1       21 0.12874510E+00 0.27556022E+03</pdfrwt>
<totfact> 0.16220220E+04</totfact>
</mgrwt>
</event>
<event>
12    1  0.1050690E-001  0.1927237E+03  0.7546771E-02  0.1156261E+00
         21   -1    0    0  503  502  0.00000000000E+00  0.00000000000E+00  0.42252320130E+03  0.42252320130E+03  0.00000000000E+00 0. -1.
         21   -1    0    0  501  503 -0.00000000000E+00 -0.00000000000E+00 -0.11693572466E+03  0.11693572466E+03  0.00000000000E+00 0. -1.
          6    2    1    2  501    0  0.47192186741E+02 -0.69338003680E+02  0.16982791209E+02  0.19242133549E+03  0.17234469505E+03 0.  0.
         24    2    3    3    0    0 -0.31770672191E+02 -0.71224800205E+01 -0.11872401221E+02  0.87728371998E+02  0.80592853340E+02 0.  0.
         -6    2    1    2    0  502 -0.47192186741E+02  0.69338003680E+02  0.28860468543E+03  0.34703759046E+03  0.17351531200E+03 0.  0.
        -24    2    5    5    0    0 -0.82083862335E+02  0.86540905491E+01  0.22436850171E+03  0.25191480855E+03  0.79417834716E+02 0.  0.
          5    1    3    3  501    0  0.78962858933E+02 -0.62215523660E+02  0.28855192430E+02  0.10469296349E+03  0.47000000000E+01 0. -1.
        -13    1    4    4    0    0  0.21125454631E+02 -0.74235072116E+00 -0.25115989430E+02  0.32827562246E+02  0.00000000000E+00 0.  1.
         14    1    4    4    0    0 -0.52896126823E+02 -0.63801292994E+01  0.13243588209E+02  0.54900809751E+02  0.00000000000E+00 0. -1.
         -5    1    5    5    0  502  0.34891675593E+02  0.60683913131E+02  0.64236183721E+02  0.95122781907E+02  0.47000000000E+01 0.  1.
         13    1    6    6    0    0 -0.18577602765E+02  0.29127685488E+02  0.14079732456E+03  0.14497391486E+03  0.00000000000E+00 0. -1.
        -14    1    6    6    0    0 -0.63506259569E+02 -0.20473594939E+02  0.83571177147E+02  0.10694089369E+03  0.00000000000E+00 0.  1.
<mgrwt>
<rscale>  2 0.19245984E+03</rscale>
<asrwt>0</asrwt>
<pdfrwt beam="1">  1       21 0.65003569E-01 0.19272370E+03</pdfrwt>
<pdfrwt beam="2">  1       21 0.17990112E-01 0.19272370E+03</pdfrwt>
<totfact> 0.61247639E+04</totfact>
</mgrwt>
</event>
<event>
12    1  0.1050690E-001  0.1930552E+03  0.7546771E-02  0.1156457E+00
         21   -1    0    0  503  502  0.00000000000E+00  0.00000000000E+00  0.37645403094E+03  0.37645403094E+03  0.00000000000E+00 0.  1.
         21   -1    0    0  501  503 -0.00000000000E+00 -0.00000000000E+00 -0.13730622738E+03  0.13730622738E+03  0.00000000000E+00 0. -1.
          6    2    1    2  501    0 -0.57389044274E+02 -0.51651927983E+02 -0.19716599601E+02  0.19083440953E+03  0.17340012542E+03 0.  0.
         24    2    3    3    0    0 -0.65511510878E+02  0.25846030148E+01 -0.60436683103E+02  0.12236696502E+03  0.83801212597E+02 0.  0.
         -6    2    1    2    0  502  0.57389044274E+02  0.51651927983E+02  0.25886440316E+03  0.32292584878E+03  0.17694321270E+03 0.  0.
        -24    2    5    5    0    0  0.93185999364E+02  0.33676010960E+02  0.25246190138E+03  0.28208912982E+03  0.77585831973E+02 0.  0.
          5    1    3    3  501    0  0.81224666039E+01 -0.54236530998E+02  0.40720083502E+02  0.68467444518E+02  0.47000000000E+01 0. -1.
        -11    1    4    4    0    0  0.75170163482E+00 -0.81312549987E+01  0.17618640926E+02  0.19419033737E+02  0.00000000000E+00 0.  1.
         12    1    4    4    0    0 -0.66263212513E+02  0.10715858013E+02 -0.78055324029E+02  0.10294793128E+03  0.00000000000E+00 0. -1.
         -5    1    5    5    0  502 -0.35796955090E+02  0.17975917023E+02  0.64025017833E+01  0.40836718963E+02  0.47000000000E+01 0.  1.
         11    1    6    6    0    0  0.21106075556E+02  0.47859674290E+02  0.10015817533E+03  0.11299413672E+03  0.00000000000E+00 0. -1.
        -12    1    6    6    0    0  0.72079923808E+02 -0.14183663331E+02  0.15230372605E+03  0.16909499310E+03  0.00000000000E+00 0.  1.
<mgrwt>
<rscale>  2 0.19223956E+03</rscale>
<asrwt>0</asrwt>
<pdfrwt beam="1">  1       21 0.57916004E-01 0.19305524E+03</pdfrwt>
<pdfrwt beam="2">  1       21 0.21124035E-01 0.19305524E+03</pdfrwt>
<totfact> 0.58229930E+04</totfact>
</mgrwt>
</event>
<event>
12    1  0.1050690E-001  0.1861621E+03  0.7546771E-02  0.1162803E+00
         21   -1    0    0  503  502  0.00000000000E+00  0.00000000000E+00  0.28636331802E+03  0.28636331802E+03  0.00000000000E+00 0. -1.
         21   -1    0    0  501  503 -0.00000000000E+00 -0.00000000000E+00 -0.13525305946E+03  0.13525305946E+03  0.00000000000E+00 0. -1.
          6    2    1    2  501    0 -0.64932858237E+02 -0.22316049993E+02  0.12061180813E+01  0.18260259104E+03  0.16919801822E+03 0.  0.
         24    2    3    3    0    0 -0.95212223493E+02  0.22735264476E+02 -0.15844810134E+02  0.12551244260E+03  0.76941896825E+02 0.  0.
         -6    2    1    2    0  502  0.64932858237E+02  0.22316049993E+02  0.14990414047E+03  0.23901378644E+03  0.17303773175E+03 0.  0.
        -24    2    5    5    0    0 -0.15374712057E+02 -0.21382376904E+02  0.96501278607E+02  0.13302881573E+03  0.87695959025E+02 0.  0.
          5    1    3    3  501    0  0.30279365256E+02 -0.45051314469E+02  0.17050928216E+02  0.57090148439E+02  0.47000000000E+01 0. -1.
        -11    1    4    4    0    0 -0.15047356917E+02  0.25571942659E+02  0.21883469381E+02  0.36867783141E+02  0.00000000000E+00 0.  1.
         12    1    4    4    0    0 -0.80164866576E+02 -0.28366781821E+01 -0.37728279516E+02  0.88644659464E+02  0.00000000000E+00 0. -1.
         -5    1    5    5    0  502  0.80307570295E+02  0.43698426897E+02  0.53402861866E+02  0.10598497071E+03  0.47000000000E+01 0.  1.
         11    1    6    6    0    0  0.28878328867E+02  0.96441790306E+01  0.61542794741E+02  0.68662097636E+02  0.00000000000E+00 0. -1.
        -12    1    6    6    0    0 -0.44253040924E+02 -0.31026555935E+02  0.34958483866E+02  0.64366718096E+02  0.00000000000E+00 0.  1.
<mgrwt>
<rscale>  2 0.18526478E+03</rscale>
<asrwt>0</asrwt>
<pdfrwt beam="1">  1       21 0.44055895E-01 0.18616213E+03</pdfrwt>
<pdfrwt beam="2">  1       21 0.20808163E-01 0.18616213E+03</pdfrwt>
<totfact> 0.10633422E+05</totfact>
</mgrwt>
</event>
<event>
12    1  0.1050690E-001  0.1815391E+03  0.7546771E-02  0.1166608E+00
         21   -1    0    0  501  502  0.00000000000E+00  0.00000000000E+00  0.24954360045E+03  0.24954360045E+03  0.00000000000E+00 0. -1.
         21   -1    0    0  502  503 -0.00000000000E+00 -0.00000000000E+00 -0.14323213497E+03  0.14323213497E+03  0.00000000000E+00 0. -1.
         -6    2    1    2    0  503  0.15705840595E+02  0.50365154425E+02 -0.36034205230E+01  0.18157489105E+03  0.17370415715E+03 0.  0.
        -24    2    3    3    0    0  0.20116601888E+02  0.10090501425E+03  0.65958231616E+00  0.13044764353E+03  0.80185117582E+02 0.  0.
          6    2    1    2  501    0 -0.15705840595E+02 -0.50365154425E+02  0.10991488600E+03  0.21120084436E+03  0.17245634893E+03 0.  0.
         24    2    5    5    0    0 -0.26065536714E+02 -0.58680355185E+02  0.47085209191E+01  0.10505502428E+03  0.83015610995E+02 0.  0.
          5    1    5    5  501    0  0.10359696119E+02  0.83152007600E+01  0.10520636508E+03  0.10614582008E+03  0.47000000000E+01 0. -1.
        -11    1    6    6    0    0  0.17876002958E+02  0.81216264662E+01  0.14626706780E+02  0.24483726216E+02  0.00000000000E+00 0.  1.
         12    1    6    6    0    0 -0.43941539672E+02 -0.66801981651E+02 -0.99181858609E+01  0.80571298066E+02  0.00000000000E+00 0. -1.
         -5    1    3    3    0  503 -0.44107612934E+01 -0.50539859823E+02 -0.42630028391E+01  0.51127247524E+02  0.47000000000E+01 0.  1.
         13    1    4    4    0    0  0.38695165966E+02  0.83459238984E+02  0.24869912318E+02  0.95295713333E+02  0.00000000000E+00 0. -1.
        -14    1    4    4    0    0 -0.18578564078E+02  0.17445775264E+02 -0.24210330001E+02  0.35151930196E+02  0.00000000000E+00 0.  1.
<mgrwt>
<rscale>  2 0.18124000E+03</rscale>
<asrwt>0</asrwt>
<pdfrwt beam="1">  1       21 0.38391323E-01 0.18153913E+03</pdfrwt>
<pdfrwt beam="2">  1       21 0.22035713E-01 0.18153913E+03</pdfrwt>
<totfact> 0.12639076E+05</totfact>
</mgrwt>
</event>
<event>
12    1  0.1050690E-001  0.1747275E+03  0.7546771E-02  0.1173277E+00
         21   -1    0    0  503  502  0.00000000000E+00  0.00000000000E+00  0.71473486676E+02  0.71473486676E+02  0.00000000000E+00 0. -1.
         21   -1    0    0  501  503 -0.00000000000E+00 -0.00000000000E+00 -0.49006651238E+03  0.49006651238E+03  0.00000000000E+00 0. -1.
          6    2    1    2  501    0  0.17864427629E+02  0.11469063961E+02 -0.31141648583E+03  0.35656068929E+03  0.17235028372E+03 0.  0.
         24    2    3    3    0    0  0.62945056416E+02  0.16673031708E+02 -0.11702881777E+03  0.15689096233E+03  0.81724902927E+02 0.  0.
         -6    2    1    2    0  502 -0.17864427629E+02 -0.11469063961E+02 -0.10717653988E+03  0.20497930977E+03  0.17343306931E+03 0.  0.
        -24    2    5    5    0    0 -0.26991332897E+02  0.41828440751E+02 -0.10779944444E+03  0.15069853584E+03  0.92796432985E+02 0.  0.
          5    1    3    3  501    0 -0.45080628788E+02 -0.52039677469E+01 -0.19438766806E+03  0.19966972696E+03  0.47000000000E+01 0. -1.
        -11    1    4    4    0    0  0.75758580241E+02  0.30408260006E+02 -0.10966967826E+03  0.13671672570E+03  0.00000000000E+00 0.  1.
         12    1    4    4    0    0 -0.12813523825E+02 -0.13735228297E+02 -0.73591395088E+01  0.20174236627E+02  0.00000000000E+00 0. -1.
         -5    1    5    5    0  502  0.91269052683E+01 -0.53297504712E+02  0.62290456116E+00  0.54280773930E+02  0.47000000000E+01 0.  1.
         13    1    6    6    0    0 -0.94404428243E+01  0.41895831973E+02 -0.15131867474E+01  0.42972926727E+02  0.00000000000E+00 0. -1.
        -14    1    6    6    0    0 -0.17550890073E+02 -0.67391221983E-01 -0.10628625769E+03  0.10772560911E+03  0.00000000000E+00 0.  1.
<mgrwt>
<rscale>  2 0.17445822E+03</rscale>
<asrwt>0</asrwt>
<pdfrwt beam="1">  1       21 0.10995921E-01 0.17472752E+03</pdfrwt>
<pdfrwt beam="2">  1       21 0.75394848E-01 0.17472752E+03</pdfrwt>
<totfact> 0.10850857E+05</totfact>
</mgrwt>
</event>
<event>
12    1  0.1050690E-001  0.3842519E+03  0.7546771E-02  0.1049586E+00
         21   -1    0    0  503  502  0.00000000000E+00  0.00000000000E+00  0.17787630533E+04  0.17787630533E+04  0.00000000000E+00 0.  1.
         21   -1    0    0  501  503 -0.00000000000E+00 -0.00000000000E+00 -0.10483747109E+03  0.10483747109E+03  0.00000000000E+00 0. -1.
          6    2    1    2  501    0 -0.18416135867E+03 -0.28641355594E+03  0.40428098071E+03  0.55775681867E+03  0.17804894371E+03 0.  0.
         24    2    3    3    0    0 -0.76124744080E+02 -0.24178259809E+03  0.30130724567E+03  0.40190588797E+03  0.80551133414E+02 0.  0.
         -6    2    1    2    0  502  0.18416135867E+03  0.28641355594E+03  0.12696446015E+04  0.13258437057E+04  0.17296238564E+03 0.  0.
        -24    2    5    5    0    0  0.17446992354E+03  0.17744593410E+03  0.73223440249E+03  0.77739163077E+03  0.79017173162E+02 0.  0.
          5    1    3    3  501    0 -0.10803661459E+03 -0.44630957845E+02  0.10297373504E+03  0.15585093070E+03  0.47000000000E+01 0. -1.
        -11    1    4    4    0    0 -0.26632794163E+02 -0.69088588909E+02  0.14900448293E+03  0.16638772423E+03  0.00000000000E+00 0.  1.
         12    1    4    4    0    0 -0.49491949917E+02 -0.17269400918E+03  0.15230276274E+03  0.23551816374E+03  0.00000000000E+00 0. -1.
         -5    1    5    5    0  502  0.96914351349E+01  0.10896762184E+03  0.53741019902E+03  0.54845207497E+03  0.47000000000E+01 0.  1.
         13    1    6    6    0    0  0.95969332925E+02  0.14972045934E+03  0.50076093532E+03  0.53140177187E+03  0.00000000000E+00 0. -1.
        -14    1    6    6    0    0  0.78500590610E+02  0.27725474763E+02  0.23147346717E+03  0.24598985890E+03  0.00000000000E+00 0.  1.
<mgrwt>
<rscale>  2 0.38366803E+03</rscale>
<asrwt>0</asrwt>
<pdfrwt beam="1">  1       21 0.27365583E+00 0.38425195E+03</pdfrwt>
<pdfrwt beam="2">  1       21 0.16128843E-01 0.38425195E+03</pdfrwt>
<totfact> 0.14133010E+03</totfact>
</mgrwt>
</event>
<event>
12    1  0.1050690E-001  0.2572776E+03  0.7546771E-02  0.1109047E+00
         21   -1    0    0  501  502  0.00000000000E+00  0.00000000000E+00  0.31877728667E+03  0.31877728667E+03  0.00000000000E+00 0. -1.
         21   -1    0    0  502  503 -0.00000000000E+00 -0.00000000000E+00 -0.39561302294E+03  0.39561302294E+03  0.00000000000E+00 0. -1.
         -6    2    1    2    0  503  0.13110205541E+03 -0.13786148288E+03 -0.28545126618E+03  0.38316197936E+03  0.17069604469E+03 0.  0.
        -24    2    3    3    0    0  0.13892700323E+03 -0.15652720737E+03 -0.28585723684E+03  0.36237992241E+03  0.76179849272E+02 0.  0.
          6    2    1    2  501    0 -0.13110205541E+03  0.13786148288E+03  0.20861552991E+03  0.33122833025E+03  0.17319997127E+03 0.  0.
         24    2    5    5    0    0 -0.85793203945E+02  0.16133742926E+03  0.13253114837E+03  0.23949537438E+03  0.80020554461E+02 0.  0.
          5    1    5    5  501    0 -0.45308851462E+02 -0.23475946379E+02  0.76084381536E+02  0.91732955872E+02  0.47000000000E+01 0. -1.
        -11    1    6    6    0    0  0.26785570225E+01  0.77071981916E+02  0.46290889211E+02  0.89945047046E+02  0.00000000000E+00 0.  1.
         12    1    6    6    0    0 -0.88471760967E+02  0.84265447341E+02  0.86240259164E+02  0.14955032733E+03  0.00000000000E+00 0. -1.
         -5    1    3    3    0  503 -0.78249478267E+01  0.18665724490E+02  0.40597065938E+00  0.20782056958E+02  0.47000000000E+01 0.  1.
         13    1    4    4    0    0  0.66318230681E+02 -0.10998676907E+03 -0.21640641441E+03  0.25164843192E+03  0.00000000000E+00 0. -1.
        -14    1    4    4    0    0  0.72608772553E+02 -0.46540438302E+02 -0.69450822431E+02  0.11073149049E+03  0.00000000000E+00 0.  1.
<mgrwt>
<rscale>  2 0.25685684E+03</rscale>
<asrwt>0</asrwt>
<pdfrwt beam="1">  1       21 0.49042660E-01 0.25727761E+03</pdfrwt>
<pdfrwt beam="2">  1       21 0.60863542E-01 0.25727761E+03</pdfrwt>
<totfact> 0.95779897E+03</totfact>
</mgrwt>
</event>
<event>
12    1  0.1050690E-001  0.2107316E+03  0.7546771E-02  0.1141126E+00
         21   -1    0    0  501  502  0.00000000000E+00  0.00000000000E+00  0.78126428497E+02  0.78126428497E+02  0.00000000000E+00 0. -1.
         21   -1    0    0  502  503 -0.00000000000E+00 -0.00000000000E+00 -0.66990465927E+03  0.66990465927E+03  0.00000000000E+00 0.  1.
         -6    2    1    2    0  503 -0.25060881705E+02  0.11418119950E+03 -0.44323458084E+03  0.49077967438E+03  0.17533511064E+03 0.  0.
        -24    2    3    3    0    0  0.16392195414E+01  0.64037037073E+02 -0.41555974395E+03  0.42741312936E+03  0.76737560532E+02 0.  0.
          6    2    1    2  501    0  0.25060881705E+02 -0.11418119950E+03 -0.14854364993E+03  0.25725141338E+03  0.17449263492E+03 0.  0.
         24    2    5    5    0    0  0.91794876738E+01 -0.60362478268E+02 -0.28207644577E+01  0.10102746265E+03  0.80440659627E+02 0.  0.
          5    1    5    5  501    0  0.15881394031E+02 -0.53818721229E+02 -0.14572288548E+03  0.15622395073E+03  0.47000000000E+01 0. -1.
        -13    1    6    6    0    0 -0.59740916492E+01 -0.17329720489E+02 -0.38808132447E+02  0.42919460939E+02  0.00000000000E+00 0.  1.
         14    1    6    6    0    0  0.15153579323E+02 -0.43032757779E+02  0.35987367989E+02  0.58108001714E+02  0.00000000000E+00 0. -1.
         -5    1    3    3    0  503 -0.26700101246E+02  0.50144162424E+02 -0.27674836893E+02  0.63366545028E+02  0.47000000000E+01 0.  1.
         11    1    4    4    0    0  0.36857903387E+02  0.16680714254E+02 -0.14868828160E+03  0.15409398546E+03  0.00000000000E+00 0. -1.
        -12    1    4    4    0    0 -0.35218683845E+02  0.47356322819E+02 -0.26687146235E+03  0.27331914389E+03  0.00000000000E+00 0.  1.
<mgrwt>
<rscale>  2 0.21055624E+03</rscale>
<asrwt>0</asrwt>
<pdfrwt beam="1">  1       21 0.12019450E-01 0.21073157E+03</pdfrwt>
<pdfrwt beam="2">  1       21 0.10306226E+00 0.21073157E+03</pdfrwt>
<totfact> 0.44280241E+04</totfact>
</mgrwt>
</event>
<event>
12    1  0.1050690E-001  0.1771144E+03  0.7546771E-02  0.1170890E+00
         21   -1    0    0  501  502  0.00000000000E+00  0.00000000000E+00  0.89890497009E+03  0.89890497009E+03  0.00000000000E+00 0. -1.
         21   -1    0    0  502  503 -0.00000000000E+00 -0.00000000000E+00 -0.54141986934E+02  0.54141986934E+02  0.00000000000E+00 0. -1.
         -6    2    1    2    0  503 -0.80940968958E+01 -0.33884796299E+02  0.13755406328E+03  0.22425573006E+03  0.17365430692E+03 0.  0.
        -24    2    3    3    0    0  0.25721053066E+02 -0.64844766125E+02  0.14262283961E+03  0.17789015455E+03  0.80232265605E+02 0.  0.
          6    2    1    2  501    0  0.80940968958E+01  0.33884796299E+02  0.70720891987E+03  0.72879122696E+03  0.17256448745E+03 0.  0.
         24    2    5    5    0    0 -0.70397666942E+01 -0.46586946441E+02  0.31527219990E+03  0.32836493204E+03  0.78784939343E+02 0.  0.
          5    1    5    5  501    0  0.15133863590E+02  0.80471742740E+02  0.39193671997E+03  0.40042629493E+03  0.47000000000E+01 0. -1.
        -11    1    6    6    0    0  0.33319365067E+02 -0.93988474582E+01  0.88103700314E+02  0.94661398843E+02  0.00000000000E+00 0.  1.
         12    1    6    6    0    0 -0.40359131761E+02 -0.37188098983E+02  0.22716849959E+03  0.23370353319E+03  0.00000000000E+00 0. -1.
         -5    1    3    3    0  503 -0.33815149962E+02  0.30959969826E+02 -0.50687763250E+01  0.46365575506E+02  0.47000000000E+01 0.  1.
         11    1    4    4    0    0 -0.15144411747E+02 -0.28765445215E+02  0.92379329480E+01  0.33795612892E+02  0.00000000000E+00 0. -1.
        -12    1    4    4    0    0  0.40865464814E+02 -0.36079320911E+02  0.13338490666E+03  0.14409454166E+03  0.00000000000E+00 0.  1.
<mgrwt>
<rscale>  2 0.17684670E+03</rscale>
<asrwt>0</asrwt>
<pdfrwt beam="1">  1       21 0.13829306E+00 0.17711440E+03</pdfrwt>
<pdfrwt beam="2">  1       21 0.83295371E-02 0.17711440E+03</pdfrwt>
<totfact> 0.41677826E+04</totfact>
</mgrwt>
</event>
<event>
12    1  0.1050690E-001  0.3040502E+03  0.7546771E-02  0.1083311E+00
         21   -1    0    0  503  502  0.00000000000E+00  0.00000000000E+00  0.27456673359E+03  0.27456673359E+03  0.00000000000E+00 0. -1.
         21   -1    0    0  501  503 -0.00000000000E+00 -0.00000000000E+00 -0.33760765276E+03  0.33760765276E+03  0.00000000000E+00 0. -1.
          6    2    1    2  501    0 -0.25929635702E+01  0.24979260052E+03 -0.52587076971E+02  0.30794457601E+03  0.17222483704E+03 0.  0.
         24    2    3    3    0    0  0.36485902726E+02  0.11164073020E+03  0.24621099483E+02  0.14486088713E+03  0.81139413019E+02 0.  0.
         -6    2    1    2    0  502  0.25929635702E+01 -0.24979260052E+03 -0.10453842199E+02  0.30422981034E+03  0.17333040111E+03 0.  0.
        -24    2    5    5    0    0  0.59806894521E+02 -0.21325318928E+03 -0.13634838735E+02  0.23610660425E+03  0.80663699231E+02 0.  0.
          5    1    3    3  501    0 -0.39078866296E+02  0.13815187032E+03 -0.77208176454E+02  0.16308368887E+03  0.47000000000E+01 0. -1.
        -13    1    4    4    0    0  0.16495794915E+01  0.10279340920E+03  0.32965693273E+02  0.10796269272E+03  0.00000000000E+00 0.  1.
         14    1    4    4    0    0  0.34836323234E+02  0.88473209995E+01 -0.83445937896E+01  0.36898194412E+02  0.00000000000E+00 0. -1.
         -5    1    5    5    0  502 -0.57213930950E+02 -0.36539411239E+02  0.31809965361E+01  0.68123206086E+02  0.47000000000E+01 0.  1.
         11    1    6    6    0    0  0.23442222890E+02 -0.17023782987E+03  0.15770103735E+02  0.17256637188E+03  0.00000000000E+00 0. -1.
        -12    1    6    6    0    0  0.36364671631E+02 -0.43015359413E+02 -0.29404942470E+02  0.63540232372E+02  0.00000000000E+00 0.  1.
<mgrwt>
<rscale>  2 0.30389281E+03</rscale>
<asrwt>0</asrwt>
<pdfrwt beam="1">  1       21 0.42241036E-01 0.30405015E+03</pdfrwt>
<pdfrwt beam="2">  1       21 0.51939638E-01 0.30405015E+03</pdfrwt>
<totfact> 0.17950572E+04</totfact>
</mgrwt>
</event>
<event>
12    1  0.1050690E-001  0.1982309E+03  0.7546771E-02  0.1153143E+00
         21   -1    0    0  503  502  0.00000000000E+00  0.00000000000E+00  0.46051809674E+03  0.46051809674E+03  0.00000000000E+00 0. -1.
         21   -1    0    0  501  503 -0.00000000000E+00 -0.00000000000E+00 -0.82131801422E+02  0.82131801422E+02  0.00000000000E+00 0. -1.
          6    2    1    2  501    0  0.77709046394E+02  0.13416474050E+02  0.20633123956E+03  0.28016480982E+03  0.17233990419E+03 0.  0.
         24    2    3    3    0    0  0.46188051666E+02  0.55053029359E+02  0.19886351250E+03  0.22720224951E+03  0.83126370190E+02 0.  0.
         -6    2    1    2    0  502 -0.77709046394E+02 -0.13416474050E+02  0.17205505576E+03  0.26248508835E+03  0.18187023320E+03 0.  0.
        -24    2    5    5    0    0 -0.10859910025E+03  0.17068984344E+02  0.17067223231E+03  0.21880945668E+03  0.81629973970E+02 0.  0.
          5    1    3    3  501    0  0.31520994728E+02 -0.41636555309E+02  0.74677270553E+01  0.52962560304E+02  0.47000000000E+01 0. -1.
        -13    1    4    4    0    0  0.56196106613E+02  0.11695753062E+02  0.15247880196E+03  0.16292506893E+03  0.00000000000E+00 0.  1.
         14    1    4    4    0    0 -0.10008054948E+02  0.43357276296E+02  0.46384710536E+02  0.64277180579E+02  0.00000000000E+00 0. -1.
         -5    1    5    5    0  502  0.30890053855E+02 -0.30485458394E+02  0.13828234522E+01  0.43675631665E+02  0.47000000000E+01 0.  1.
         11    1    6    6    0    0 -0.66033174238E+02 -0.25903606744E+02  0.60957289921E+02  0.93526296499E+02  0.00000000000E+00 0. -1.
        -12    1    6    6    0    0 -0.42565926011E+02  0.42972591088E+02  0.10971494239E+03  0.12528316018E+03  0.00000000000E+00 0.  1.
<mgrwt>
<rscale>  2 0.19601762E+03</rscale>
<asrwt>0</asrwt>
<pdfrwt beam="1">  1       21 0.70848937E-01 0.19823087E+03</pdfrwt>
<pdfrwt beam="2">  1       21 0.12635662E-01 0.19823087E+03</pdfrwt>
<totfact> 0.96297710E+04</totfact>
</mgrwt>
</event>
<event>
12    1  0.1050690E-001  0.1772287E+03  0.7546771E-02  0.1170513E+00
         21   -1    0    0  501  502  0.00000000000E+00  0.00000000000E+00  0.58500743750E+03  0.58500743750E+03  0.00000000000E+00 0. -1.
         21   -1    0    0  502  503 -0.00000000000E+00 -0.00000000000E+00 -0.61842107262E+02  0.61842107262E+02  0.00000000000E+00 0. -1.
         -6    2    1    2    0  503 -0.21525893682E+02  0.34350609336E+02  0.14415706965E+03  0.22845109588E+03  0.17252627052E+03 0.  0.
        -24    2    3    3    0    0 -0.21850345486E+02  0.87425398134E+02  0.69859002300E+02  0.13702171720E+03  0.75987057741E+02 0.  0.
          6    2    1    2  501    0  0.21525893682E+02 -0.34350609336E+02  0.37900826059E+03  0.41839844888E+03  0.17253020597E+03 0.  0.
         24    2    5    5    0    0 -0.16965547416E+02 -0.29544987193E+02  0.83947901870E+02  0.12076210982E+03  0.79846733637E+02 0.  0.
          5    1    5    5  501    0  0.38491441098E+02 -0.48056221433E+01  0.29506035872E+03  0.29763633906E+03  0.47000000000E+01 0. -1.
        -13    1    6    6    0    0 -0.34112542968E+02 -0.48138373393E+02  0.44491922922E+02  0.73895194607E+02  0.00000000000E+00 0.  1.
         14    1    6    6    0    0  0.17146995552E+02  0.18593386201E+02  0.39455978948E+02  0.46866915214E+02  0.00000000000E+00 0. -1.
         -5    1    3    3    0  503  0.32445180373E+00 -0.53074788798E+02  0.74298067346E+02  0.91429378683E+02  0.47000000000E+01 0.  1.
         13    1    4    4    0    0 -0.13911364870E+02  0.65843121271E+02  0.85797941068E+02  0.10904186986E+03  0.00000000000E+00 0. -1.
        -14    1    4    4    0    0 -0.79389806154E+01  0.21582276863E+02 -0.15938938768E+02  0.27979847335E+02  0.00000000000E+00 0.  1.
<mgrwt>
<rscale>  2 0.17722771E+03</rscale>
<asrwt>0</asrwt>
<pdfrwt beam="1">  1       21 0.90001141E-01 0.17722867E+03</pdfrwt>
<pdfrwt beam="2">  1       21 0.95141707E-02 0.17722867E+03</pdfrwt>
<totfact> 0.93667675E+04</totfact>
</mgrwt>
</event>
<event>
12    1  0.1050690E-001  0.2074118E+03  0.7546771E-02  0.1148341E+00
         21   -1    0    0  503  502  0.00000000000E+00  0.00000000000E+00  0.28281343554E+02  0.28281343554E+02  0.00000000000E+00 0. -1.
         21   -1    0    0  501  503 -0.00000000000E+00 -0.00000000000E+00 -0.16611198707E+04  0.16611198707E+04  0.00000000000E+00 0. -1.
          6    2    1    2  501    0  0.81560667875E+02 -0.34897750478E+01 -0.12109849705E+04  0.12286188455E+04  0.19067078377E+03 0.  0.
         24    2    3    3    0    0  0.88200622992E+02 -0.58665289503E+02 -0.57867313064E+03  0.59385213310E+03  0.81097458527E+02 0.  0.
         -6    2    1    2    0  502 -0.81560667875E+02  0.34897750478E+01 -0.42185355667E+03  0.46078236873E+03  0.16642009189E+03 0.  0.
        -24    2    5    5    0    0 -0.42741149146E+02 -0.66709278942E+01 -0.79456214332E+02  0.11600965380E+03  0.72619850386E+02 0.  0.
          5    1    3    3  501    0 -0.66399551170E+01  0.55175514455E+02 -0.63231183981E+03  0.63476671240E+03  0.47000000000E+01 0. -1.
        -11    1    4    4    0    0  0.93062660296E+02 -0.21550198155E+02 -0.39294712410E+03  0.40439153319E+03  0.00000000000E+00 0.  1.
         12    1    4    4    0    0 -0.48620373046E+01 -0.37115091347E+02 -0.18572600654E+03  0.18946059991E+03  0.00000000000E+00 0. -1.
         -5    1    5    5    0  502 -0.38819518729E+02  0.10160702942E+02 -0.34239734234E+03  0.34477271493E+03  0.47000000000E+01 0.  1.
         13    1    6    6    0    0 -0.57254501478E+02  0.10130566412E+02 -0.72093997804E+02  0.92618847081E+02  0.00000000000E+00 0. -1.
        -14    1    6    6    0    0  0.14513352332E+02 -0.16801494306E+02 -0.73622165283E+01  0.23390806721E+02  0.00000000000E+00 0.  1.
<mgrwt>
<rscale>  2 0.20166556E+03</rscale>
<asrwt>0</asrwt>
<pdfrwt beam="1">  1       21 0.43509748E-02 0.20741183E+03</pdfrwt>
<pdfrwt beam="2">  1       21 0.25555697E+00 0.20741183E+03</pdfrwt>
<totfact> 0.20720271E+04</totfact>
</mgrwt>
</event>
<event>
12    1  0.1050690E-001  0.2137383E+03  0.7546771E-02  0.1138640E+00
         21   -1    0    0  503  502  0.00000000000E+00  0.00000000000E+00  0.36187562492E+03  0.36187562492E+03  0.00000000000E+00 0. -1.
         21   -1    0    0  501  503 -0.00000000000E+00 -0.00000000000E+00 -0.18909007834E+03  0.18909007834E+03  0.00000000000E+00 0.  1.
          6    2    1    2  501    0 -0.82019778443E+02 -0.95043059120E+02 -0.72428427234E+02  0.22567665580E+03  0.17298453329E+03 0.  0.
         24    2    3    3    0    0 -0.10969756112E+03 -0.78849414408E+02 -0.97450331568E+02  0.18473182121E+03  0.79865471746E+02 0.  0.
         -6    2    1    2    0  502  0.82019778443E+02  0.95043059120E+02  0.24521397381E+03  0.32528904747E+03  0.17298162997E+03 0.  0.
        -24    2    5    5    0    0  0.91278690299E+02  0.12151168958E+03  0.24178679708E+03  0.29665076212E+03  0.80274089326E+02 0.  0.
          5    1    3    3  501    0  0.27677782677E+02 -0.16193644712E+02  0.25021904334E+02  0.40944834588E+02  0.47000000000E+01 0. -1.
        -13    1    4    4    0    0 -0.95854243962E+02 -0.43090824606E+02 -0.33749632227E+02  0.11038067279E+03  0.00000000000E+00 0.  1.
         14    1    4    4    0    0 -0.13843317158E+02 -0.35758589802E+02 -0.63700699341E+02  0.74351148418E+02  0.00000000000E+00 0. -1.
         -5    1    5    5    0  502 -0.92589118565E+01 -0.26468630462E+02  0.34271767348E+01  0.28638285348E+02  0.47000000000E+01 0.  1.
         11    1    6    6    0    0  0.12953035036E+02  0.58612540464E+02  0.14595477673E+03  0.15781637389E+03  0.00000000000E+00 0. -1.
        -12    1    6    6    0    0  0.78325655264E+02  0.62899149118E+02  0.95832020350E+02  0.13883438824E+03  0.00000000000E+00 0.  1.
<mgrwt>
<rscale>  2 0.21373775E+03</rscale>
<asrwt>0</asrwt>
<pdfrwt beam="1">  1       21 0.55673173E-01 0.21373834E+03</pdfrwt>
<pdfrwt beam="2">  1       21 0.29090781E-01 0.21373834E+03</pdfrwt>
<totfact> 0.34011924E+04</totfact>
</mgrwt>
</event>
<event>
11    1  0.1050690E-001  0.4388775E+03  0.7546771E-02  0.1031153E+00
         21   -1    0    0  503  502  0.00000000000E+00  0.00000000000E+00  0.30583682458E+03  0.30583682458E+03  0.00000000000E+00 0. -1.
         21   -1    0    0  501  503 -0.00000000000E+00 -0.00000000000E+00 -0.95306067420E+03  0.95306067420E+03  0.00000000000E+00 0.  1.
          6    2    1    2  501    0  0.10797538018E+03  0.38829799109E+03 -0.69104831678E+03  0.81863377010E+03  0.17372236704E+03 0.  0.
         24    2    3    3    0    0  0.60337766344E+02  0.29485545190E+03 -0.38990706397E+03  0.49971529379E+03  0.84305828723E+02 0.  0.
         -6    2    1    2    0  502 -0.10797538018E+03 -0.38829799109E+03  0.43824467166E+02  0.44026372869E+03  0.17169028588E+03 0.  0.
          5    1    3    3  501    0  0.47637613837E+02  0.93442539191E+02 -0.30114125281E+03  0.31891847630E+03  0.47000000000E+01 0. -1.
        -13    1    4    4    0    0  0.81506458500E+02  0.21484349999E+03 -0.28611899873E+03  0.36696745591E+03  0.00000000000E+00 0.  1.
         14    1    4    4    0    0 -0.21168692157E+02  0.80011951906E+02 -0.10378806524E+03  0.13274783788E+03  0.00000000000E+00 0. -1.
         -5    1    5    5    0  502 -0.54250399377E+02 -0.99103409076E+02  0.84313522995E+02  0.14105123779E+03  0.47000000000E+01 0.  1.
         11    1    5    5    0    0 -0.26294315826E+02 -0.22379774456E+03 -0.26016648852E+02  0.22683405285E+03  0.00000000000E+00 0. -1.
        -12    1    5    5    0    0 -0.27430664978E+02 -0.65396837453E+02 -0.14472406977E+02  0.72378438044E+02  0.00000000000E+00 0.  1.
<mgrwt>
<rscale>  2 0.43867728E+03</rscale>
<asrwt>0</asrwt>
<pdfrwt beam="1">  1       21 0.47051819E-01 0.43887752E+03</pdfrwt>
<pdfrwt beam="2">  1       21 0.14662472E+00 0.43887752E+03</pdfrwt>
<totfact> 0.11682598E+03</totfact>
</mgrwt>
</event>
<event>
12    1  0.1050690E-001  0.1797428E+03  0.7546771E-02  0.1168114E+00
         21   -1    0    0  503  502  0.00000000000E+00  0.00000000000E+00  0.22653476888E+03  0.22653476888E+03  0.00000000000E+00 0. -1.
         21   -1    0    0  501  503 -0.00000000000E+00 -0.00000000000E+00 -0.23291061322E+03  0.23291061322E+03  0.00000000000E+00 0. -1.
          6    2    1    2  501    0  0.31081402613E+02 -0.38230288220E+02 -0.14638021576E+03  0.23161054486E+03  0.17259394079E+03 0.  0.
         24    2    3    3    0    0 -0.11113168899E+02  0.40743745316E+02 -0.75464872792E+02  0.11729363575E+03  0.79242000590E+02 0.  0.
         -6    2    1    2    0  502 -0.31081402613E+02  0.38230288220E+02  0.14000437142E+03  0.22783483725E+03  0.17285797789E+03 0.  0.
        -24    2    5    5    0    0  0.32985030489E+02 -0.21215297086E+02  0.70484042304E+02  0.11606072744E+03  0.83450531262E+02 0.  0.
          5    1    3    3  501    0  0.42194571512E+02 -0.78974033536E+02 -0.70915342970E+02  0.11431690910E+03  0.47000000000E+01 0. -1.
        -11    1    4    4    0    0  0.14545372162E+02  0.11120034827E+02  0.11696824959E+02  0.21726452541E+02  0.00000000000E+00 0.  1.
         12    1    4    4    0    0 -0.25658541061E+02  0.29623710489E+02 -0.87161697751E+02  0.95567183213E+02  0.00000000000E+00 0. -1.
         -5    1    5    5    0  502 -0.64066433103E+02  0.59445585306E+02  0.69520329112E+02  0.11177410981E+03  0.47000000000E+01 0.  1.
         11    1    6    6    0    0  0.16382566776E+02  0.22647720898E+02 -0.38011651759E+01  0.28209158313E+02  0.00000000000E+00 0. -1.
        -12    1    6    6    0    0  0.16602463713E+02 -0.43863017984E+02  0.74285207480E+02  0.87851569129E+02  0.00000000000E+00 0.  1.
<mgrwt>
<rscale>  2 0.17967933E+03</rscale>
<asrwt>0</asrwt>
<pdfrwt beam="1">  1       21 0.34851503E-01 0.17974284E+03</pdfrwt>
<pdfrwt beam="2">  1       21 0.35832402E-01 0.17974284E+03</pdfrwt>
<totfact> 0.59944691E+04</totfact>
</mgrwt>
</event>
<event>
12    1  0.1050690E-001  0.2071684E+03  0.7546771E-02  0.1145083E+00
         21   -1    0    0  501  502  0.00000000000E+00  0.00000000000E+00  0.34896854195E+03  0.34896854195E+03  0.00000000000E+00 0. -1.
         21   -1    0    0  502  503 -0.00000000000E+00 -0.00000000000E+00 -0.12589784252E+03  0.12589784252E+03  0.00000000000E+00 0. -1.
         -6    2    1    2    0  503 -0.97513029384E+02  0.26874181732E+02  0.55916313606E+02  0.20867224062E+03  0.17374250296E+03 0.  0.
        -24    2    3    3    0    0 -0.93899136406E+02 -0.30094525547E+02 -0.17005680879E+01  0.12743007861E+03  0.80701949900E+02 0.  0.
          6    2    1    2  501    0  0.97513029384E+02 -0.26874181732E+02  0.16715438582E+03  0.26619414385E+03  0.18079745844E+03 0.  0.
         24    2    5    5    0    0  0.10332249405E+03  0.23981849297E+02  0.57227853315E+02  0.14484333701E+03  0.80336157555E+02 0.  0.
          5    1    5    5  501    0 -0.58094646623E+01 -0.50856031029E+02  0.10992653251E+03  0.12135080684E+03  0.47000000000E+01 0. -1.
        -11    1    6    6    0    0  0.13451383920E+02  0.37998706535E+02  0.69160687689E+01  0.40898330466E+02  0.00000000000E+00 0.  1.
         12    1    6    6    0    0  0.89871110126E+02 -0.14016857238E+02  0.50311784546E+02  0.10394500655E+03  0.00000000000E+00 0. -1.
         -5    1    3    3    0  503 -0.36138929778E+01  0.56968707279E+02  0.57616881694E+02  0.81242162007E+02  0.47000000000E+01 0.  1.
         13    1    4    4    0    0 -0.93632572719E+02 -0.24487907383E+02  0.25152367332E+02  0.99996789271E+02  0.00000000000E+00 0. -1.
        -14    1    4    4    0    0 -0.26656368682E+00 -0.56066181640E+01 -0.26852935420E+02  0.27433289342E+02  0.00000000000E+00 0.  1.
<mgrwt>
<rscale>  2 0.20561923E+03</rscale>
<asrwt>0</asrwt>
<pdfrwt beam="1">  1       21 0.53687467E-01 0.20716837E+03</pdfrwt>
<pdfrwt beam="2">  1       21 0.19368899E-01 0.20716837E+03</pdfrwt>
<totfact> 0.79935122E+04</totfact>
</mgrwt>
</event>
<event>
12    1  0.1050690E-001  0.2345473E+03  0.7546771E-02  0.1124042E+00
         21   -1    0    0  501  502  0.00000000000E+00  0.00000000000E+00  0.79220004018E+03  0.79220004018E+03  0.00000000000E+00 0.  1.
         21   -1    0    0  502  503 -0.00000000000E+00 -0.00000000000E+00 -0.71421818397E+02  0.71421818397E+02  0.00000000000E+00 0.  1.
         -6    2    1    2    0  503 -0.15075262603E+03  0.26908699788E+02  0.27521379551E+03  0.36160068258E+03  0.17765693912E+03 0.  0.
        -24    2    3    3    0    0 -0.47486823594E+02 -0.22754550591E+02  0.21399004396E+03  0.23159798204E+03  0.71225826661E+02 0.  0.
          6    2    1    2  501    0  0.15075262603E+03 -0.26908699788E+02  0.44556442626E+03  0.50202117600E+03  0.17334119770E+03 0.  0.
         24    2    5    5    0    0  0.24294972225E+02  0.38499241493E+02  0.12392812227E+03  0.15025173583E+03  0.71728427835E+02 0.  0.
          5    1    5    5  501    0  0.12645765381E+03 -0.65407941281E+02  0.32163630399E+03  0.35176944017E+03  0.47000000000E+01 0. -1.
        -11    1    6    6    0    0  0.12467307244E+02 -0.20309272921E+02  0.24854129482E+02  0.34432950335E+02  0.00000000000E+00 0.  1.
         12    1    6    6    0    0  0.11827664981E+02  0.58808514414E+02  0.99073992788E+02  0.11581878549E+03  0.00000000000E+00 0. -1.
         -5    1    3    3    0  503 -0.10326580244E+03  0.49663250379E+02  0.61223751552E+02  0.13000270053E+03  0.47000000000E+01 0.  1.
         13    1    4    4    0    0 -0.17378901099E+02  0.24984465800E+02  0.97783808092E+02  0.10241056029E+03  0.00000000000E+00 0. -1.
        -14    1    4    4    0    0 -0.30107922495E+02 -0.47739016391E+02  0.11620623587E+03  0.12918742175E+03  0.00000000000E+00 0.  1.
<mgrwt>
<rscale>  2 0.23373006E+03</rscale>
<asrwt>0</asrwt>
<pdfrwt beam="1">  1       21 0.12187692E+00 0.23454727E+03</pdfrwt>
<pdfrwt beam="2">  1       21 0.10987973E-01 0.23454727E+03</pdfrwt>
<totfact> 0.34104561E+04</totfact>
</mgrwt>
</event>
<event>
12    1  0.1050690E-001  0.2115954E+03  0.7546771E-02  0.1140531E+00
         21   -1    0    0  503  502  0.00000000000E+00  0.00000000000E+00  0.61998572768E+03  0.61998572768E+03  0.00000000000E+00 0.  1.
         21   -1    0    0  501  503 -0.00000000000E+00 -0.00000000000E+00 -0.72100180603E+02  0.72100180603E+02  0.00000000000E+00 0.  1.
          6    2    1    2  501    0  0.11976157132E+03 -0.21749666385E+02  0.25352495163E+03  0.33022342622E+03  0.17308012068E+03 0.  0.
         24    2    3    3    0    0  0.12694937203E+03  0.31280123105E+02  0.15359623457E+03  0.21677008098E+03  0.79390651682E+02 0.  0.
         -6    2    1    2    0  502 -0.11976157132E+03  0.21749666385E+02  0.29436059544E+03  0.36186248206E+03  0.17169861333E+03 0.  0.
        -24    2    5    5    0    0 -0.32337675628E+02  0.66954125657E+02  0.13117254368E+03  0.17123506820E+03  0.81158068964E+02 0.  0.
          5    1    3    3  501    0 -0.71878007103E+01 -0.53029789490E+02  0.99928717066E+02  0.11345334524E+03  0.47000000000E+01 0. -1.
        -13    1    4    4    0    0  0.24503274679E+02  0.12922839380E+02  0.91441272420E+02  0.95545363830E+02  0.00000000000E+00 0.  1.
         14    1    4    4    0    0  0.10244609735E+03  0.18357283725E+02  0.62154962146E+02  0.12122471715E+03  0.00000000000E+00 0. -1.
         -5    1    5    5    0  502 -0.87423895694E+02 -0.45204459272E+02  0.16318805176E+03  0.19062741386E+03  0.47000000000E+01 0.  1.
         13    1    6    6    0    0 -0.30363729631E+02  0.42935296109E+01  0.92791815403E+02  0.97727741606E+02  0.00000000000E+00 0. -1.
        -14    1    6    6    0    0 -0.19739459967E+01  0.62660596046E+02  0.38380728275E+02  0.73507326591E+02  0.00000000000E+00 0.  1.
<mgrwt>
<rscale>  2 0.21131269E+03</rscale>
<asrwt>0</asrwt>
<pdfrwt beam="1">  1       21 0.95382416E-01 0.21159539E+03</pdfrwt>
<pdfrwt beam="2">  1       21 0.11092336E-01 0.21159539E+03</pdfrwt>
<totfact> 0.61402354E+04</totfact>
</mgrwt>
</event>
<event>
12    1  0.1050690E-001  0.3023768E+03  0.7546771E-02  0.1084217E+00
         21   -1    0    0  503  502  0.00000000000E+00  0.00000000000E+00  0.82600483534E+03  0.82600483534E+03  0.00000000000E+00 0. -1.
         21   -1    0    0  501  503 -0.00000000000E+00 -0.00000000000E+00 -0.12274121796E+03  0.12274121796E+03  0.00000000000E+00 0.  1.
          6    2    1    2  501    0  0.64147082870E+02  0.23939593983E+03  0.19946952124E+03  0.36117456825E+03  0.17097869633E+03 0.  0.
         24    2    3    3    0    0  0.15068504645E+02  0.11126474057E+03  0.26430525017E+02  0.14028795644E+03  0.79845073367E+02 0.  0.
         -6    2    1    2    0  502 -0.64147082870E+02 -0.23939593983E+03  0.50379409613E+03  0.58757148506E+03  0.17322382777E+03 0.  0.
        -24    2    5    5    0    0  0.18503681609E+02 -0.18279066990E+03  0.31081869480E+03  0.37009297813E+03  0.81275680205E+02 0.  0.
          5    1    3    3  501    0  0.49078578225E+02  0.12813119925E+03  0.17303899623E+03  0.22088661181E+03  0.47000000000E+01 0. -1.
        -11    1    4    4    0    0  0.45814957506E+02  0.62989096528E+02  0.16172085552E+01  0.77905404024E+02  0.00000000000E+00 0.  1.
         12    1    4    4    0    0 -0.30746452860E+02  0.48275644046E+02  0.24813316462E+02  0.62382552411E+02  0.00000000000E+00 0. -1.
         -5    1    5    5    0  502 -0.82650764479E+02 -0.56605269923E+02  0.19297540134E+03  0.21747850692E+03  0.47000000000E+01 0.  1.
         11    1    6    6    0    0 -0.27284802833E+01 -0.15648559067E+03  0.29226123761E+03  0.33152950955E+03  0.00000000000E+00 0. -1.
        -12    1    6    6    0    0  0.21232161892E+02 -0.26305079236E+02  0.18557457184E+02  0.38563468586E+02  0.00000000000E+00 0.  1.
<mgrwt>
<rscale>  2 0.30205620E+03</rscale>
<asrwt>0</asrwt>
<pdfrwt beam="1">  1       21 0.12707766E+00 0.30237685E+03</pdfrwt>
<pdfrwt beam="2">  1       21 0.18883265E-01 0.30237685E+03</pdfrwt>
<totfact> 0.11030417E+04</totfact>
</mgrwt>
</event>
<event>
12    1  0.1050690E-001  0.1747124E+03  0.7546771E-02  0.1173090E+00
         21   -1    0    0  501  502  0.00000000000E+00  0.00000000000E+00  0.41349820136E+03  0.41349820136E+03  0.00000000000E+00 0.  1.
         21   -1    0    0  502  503 -0.00000000000E+00 -0.00000000000E+00 -0.13702350753E+04  0.13702350753E+04  0.00000000000E+00 0.  1.
         -6    2    1    2    0  503 -0.18432803842E+02 -0.17761180966E+02 -0.13459374924E+04  0.13572295835E+04  0.17282702611E+03 0.  0.
        -24    2    3    3    0    0 -0.61195505241E+02  0.28660376735E+02 -0.98176142391E+03  0.98759475215E+03  0.83196117394E+02 0.  0.
          6    2    1    2  501    0  0.18432803842E+02  0.17761180966E+02  0.38920061845E+03  0.42650369322E+03  0.17254869204E+03 0.  0.
         24    2    5    5    0    0 -0.55877895808E+02 -0.45175356133E+01  0.22094841714E+03  0.24116801252E+03  0.78746808564E+02 0.  0.
          5    1    5    5  501    0  0.74310699650E+02  0.22278716579E+02  0.16825220131E+03  0.18533568070E+03  0.47000000000E+01 0. -1.
        -13    1    6    6    0    0  0.16175485915E+02 -0.12727859752E+02  0.80653436510E+02  0.83238342003E+02  0.00000000000E+00 0.  1.
         14    1    6    6    0    0 -0.72053381724E+02  0.82103241385E+01  0.14029498063E+03  0.15792967052E+03  0.00000000000E+00 0. -1.
         -5    1    3    3    0  503  0.42762701400E+02 -0.46421557701E+02 -0.36417606849E+03  0.36963483130E+03  0.47000000000E+01 0.  1.
         13    1    4    4    0    0 -0.97499807197E+01  0.31360083111E+02 -0.12360324505E+03  0.12789166949E+03  0.00000000000E+00 0. -1.
        -14    1    4    4    0    0 -0.51445524522E+02 -0.26997063758E+01 -0.85815817885E+03  0.85970308266E+03  0.00000000000E+00 0.  1.
<mgrwt>
<rscale>  2 0.17464349E+03</rscale>
<asrwt>0</asrwt>
<pdfrwt beam="1">  1       21 0.63615108E-01 0.17471236E+03</pdfrwt>
<pdfrwt beam="2">  1       21 0.21080540E+00 0.17471236E+03</pdfrwt>
<totfact> 0.26857278E+02</totfact>
</mgrwt>
</event>
<event>
12    1  0.1050690E-001  0.1805178E+03  0.7546771E-02  0.1167552E+00
         21   -1    0    0  503  502  0.00000000000E+00  0.00000000000E+00  0.13849928447E+03  0.13849928447E+03  0.00000000000E+00 0. -1.
         21   -1    0    0  501  503 -0.00000000000E+00 -0.00000000000E+00 -0.28743189326E+03  0.28743189326E+03  0.00000000000E+00 0. -1.
          6    2    1    2  501    0  0.47840951048E+02 -0.98780758913E+01 -0.16651014626E+03  0.24558566647E+03  0.17378250138E+03 0.  0.
         24    2    3    3    0    0  0.94235235897E+02  0.16095260335E+02 -0.13303563416E+03  0.18258029509E+03  0.80608604442E+02 0.  0.
         -6    2    1    2    0  502 -0.47840951048E+02  0.98780758913E+01  0.17577537473E+02  0.18034551126E+03  0.17271132166E+03 0.  0.
        -24    2    5    5    0    0 -0.64852019565E+01  0.64258084553E+02  0.35015425810E+02  0.10967972552E+03  0.81439565760E+02 0.  0.
          5    1    3    3  501    0 -0.46394284849E+02 -0.25973336227E+02 -0.33474512103E+02  0.63005371374E+02  0.47000000000E+01 0. -1.
        -11    1    4    4    0    0  0.76391101544E+02 -0.21583792812E+02 -0.10770411337E+03  0.13379699752E+03  0.00000000000E+00 0.  1.
         12    1    4    4    0    0  0.17844134353E+02  0.37679053148E+02 -0.25331520786E+02  0.48783297574E+02  0.00000000000E+00 0. -1.
         -5    1    5    5    0  502 -0.41355749092E+02 -0.54380008662E+02 -0.17437888336E+02  0.70665785743E+02  0.47000000000E+01 0.  1.
         11    1    6    6    0    0  0.12870367096E+01 -0.55970351754E+01  0.38866126366E+02  0.39288154003E+02  0.00000000000E+00 0. -1.
        -12    1    6    6    0    0 -0.77722386662E+01  0.69855119728E+02 -0.38507005567E+01  0.70391571519E+02  0.00000000000E+00 0.  1.
<mgrwt>
<rscale>  2 0.18025954E+03</rscale>
<asrwt>0</asrwt>
<pdfrwt beam="1">  1       21 0.21307583E-01 0.18051784E+03</pdfrwt>
<pdfrwt beam="2">  1       21 0.44220290E-01 0.18051784E+03</pdfrwt>
<totfact> 0.10115052E+05</totfact>
</mgrwt>
</event>
<event>
12    1  0.1050690E-001  0.1797173E+03  0.7546771E-02  0.1170458E+00
         21   -1    0    0  503  502  0.00000000000E+00  0.00000000000E+00  0.25230066382E+02  0.25230066382E+02  0.00000000000E+00 0. -1.
         21   -1    0    0  501  503 -0.00000000000E+00 -0.00000000000E+00 -0.14806683335E+04  0.14806683335E+04  0.00000000000E+00 0. -1.
          6    2    1    2  501    0 -0.48232779869E+02 -0.42206278617E+01 -0.10639387323E+04  0.10790106337E+04  0.17307254785E+03 0.  0.
         24    2    3    3    0    0 -0.81685465774E+02 -0.30096885671E+02 -0.50392825098E+03  0.51738576594E+03  0.78523950576E+02 0.  0.
         -6    2    1    2    0  502  0.48232779869E+02  0.42206278617E+01 -0.39149953490E+03  0.42688776625E+03  0.16314737018E+03 0.  0.
        -24    2    5    5    0    0  0.35408229998E+02 -0.40804470239E+02 -0.13825094269E+03  0.16930541438E+03  0.81438643415E+02 0.  0.
          5    1    3    3  501    0  0.33452685906E+02  0.25876257810E+02 -0.56001048127E+03  0.56162486773E+03  0.47000000000E+01 0. -1.
        -13    1    4    4    0    0  0.65295036996E+00 -0.14583932204E+02 -0.24074298987E+03  0.24118520808E+03  0.00000000000E+00 0.  1.
         14    1    4    4    0    0 -0.82338416144E+02 -0.15512953467E+02 -0.26318526111E+03  0.27620055786E+03  0.00000000000E+00 0. -1.
         -5    1    5    5    0  502  0.12824549871E+02  0.45025098101E+02 -0.25324859221E+03  0.25758235187E+03  0.47000000000E+01 0.  1.
         13    1    6    6    0    0  0.34913797674E+02 -0.28396809268E+02 -0.14724751702E+03  0.15397137173E+03  0.00000000000E+00 0. -1.
        -14    1    6    6    0    0  0.49443232346E+00 -0.12407660971E+02  0.89965743344E+01  0.15334042646E+02  0.00000000000E+00 0.  1.
<mgrwt>
<rscale>  2 0.17728406E+03</rscale>
<asrwt>0</asrwt>
<pdfrwt beam="1">  1       21 0.38815474E-02 0.17971734E+03</pdfrwt>
<pdfrwt beam="2">  1       21 0.22779520E+00 0.17971734E+03</pdfrwt>
<totfact> 0.37530082E+04</totfact>
</mgrwt>
</event>
<event>
12    1  0.1050690E-001  0.2958644E+03  0.7546771E-02  0.1088100E+00
         21   -1    0    0  501  502  0.00000000000E+00  0.00000000000E+00  0.89879112237E+03  0.89879112237E+03  0.00000000000E+00 0.  1.
         21   -1    0    0  502  503 -0.00000000000E+00 -0.00000000000E+00 -0.52040741332E+03  0.52040741332E+03  0.00000000000E+00 0. -1.
         -6    2    1    2    0  503  0.80755856197E+02  0.22046559065E+03 -0.45241008678E+03  0.53729487559E+03  0.16995385183E+03 0.  0.
        -24    2    3    3    0    0  0.73969802496E+01  0.47788032444E+02 -0.95482119114E+02  0.13403475125E+03  0.80684993087E+02 0.  0.
          6    2    1    2  501    0 -0.80755856197E+02 -0.22046559065E+03  0.83079379582E+03  0.88190366009E+03  0.18002541359E+03 0.  0.
         24    2    5    5    0    0 -0.74372615869E+02 -0.19409038198E+03  0.82380218480E+03  0.85348940287E+03  0.81189646872E+02 0.  0.
          5    1    5    5  501    0 -0.63832403277E+01 -0.26375208662E+02  0.69916110276E+01  0.28414257228E+02  0.47000000000E+01 0. -1.
        -13    1    6    6    0    0  0.16306621870E+02 -0.15344772949E+02  0.69891369491E+02  0.73390540964E+02  0.00000000000E+00 0.  1.
         14    1    6    6    0    0 -0.90679237739E+02 -0.17874560904E+03  0.75391081531E+03  0.78009886190E+03  0.00000000000E+00 0. -1.
         -5    1    3    3    0  503  0.73358875947E+02  0.17267755820E+03 -0.35692796766E+03  0.40326012435E+03  0.47000000000E+01 0.  1.
         13    1    4    4    0    0  0.26619827360E+02  0.25515104427E+02 -0.30109066322E+01  0.36995963582E+02  0.00000000000E+00 0. -1.
        -14    1    4    4    0    0 -0.19222847111E+02  0.22272928017E+02 -0.92471212482E+02  0.97038787664E+02  0.00000000000E+00 0.  1.
<mgrwt>
<rscale>  2 0.29434826E+03</rscale>
<asrwt>0</asrwt>
<pdfrwt beam="1">  1       21 0.13827556E+00 0.29586439E+03</pdfrwt>
<pdfrwt beam="2">  1       21 0.80062679E-01 0.29586439E+03</pdfrwt>
<totfact> 0.46138757E+02</totfact>
</mgrwt>
</event>
<event>
12    1  0.1050690E-001  0.1830610E+03  0.7546771E-02  0.1166133E+00
         21   -1    0    0  503  502  0.00000000000E+00  0.00000000000E+00  0.14603712847E+04  0.14603712847E+04  0.00000000000E+00 0.  1.
         21   -1    0    0  501  503 -0.00000000000E+00 -0.00000000000E+00 -0.22745098851E+02  0.22745098851E+02  0.00000000000E+00 0.  1.
          6    2    1    2  501    0  0.12728870120E+02  0.39257213874E+02  0.60424260431E+03  0.62986406567E+03  0.17296376321E+03 0.  0.
         24    2    3    3    0    0 -0.21837362985E+02  0.82873673613E+02  0.46596687979E+03  0.48073497386E+03  0.81462051511E+02 0.  0.
         -6    2    1    2    0  502 -0.12728870120E+02 -0.39257213874E+02  0.83338358152E+03  0.85325231786E+03  0.17834845391E+03 0.  0.
        -24    2    5    5    0    0 -0.12263845079E+02 -0.55492295921E+02  0.23039810055E+03  0.25002982624E+03  0.78751714076E+02 0.  0.
          5    1    3    3  501    0  0.34566233105E+02 -0.43616459739E+02  0.13827572453E+03  0.14912909181E+03  0.47000000000E+01 0. -1.
        -11    1    4    4    0    0 -0.29465985986E+01  0.10648121912E+02  0.28173756087E+03  0.28195410646E+03  0.00000000000E+00 0.  1.
         12    1    4    4    0    0 -0.18890764387E+02  0.72225551701E+02  0.18422931891E+03  0.19878086740E+03  0.00000000000E+00 0. -1.
         -5    1    5    5    0  502 -0.46502504091E+00  0.16235082047E+02  0.60298548097E+03  0.60322249162E+03  0.47000000000E+01 0.  1.
         13    1    6    6    0    0  0.25912553067E+02 -0.52833099114E+02  0.14041795064E+03  0.15224978696E+03  0.00000000000E+00 0. -1.
        -14    1    6    6    0    0 -0.38176398147E+02 -0.26591968071E+01  0.89980149913E+02  0.97780039279E+02  0.00000000000E+00 0.  1.
<mgrwt>
<rscale>  2 0.18173619E+03</rscale>
<asrwt>0</asrwt>
<pdfrwt beam="1">  1       21 0.22467243E+00 0.18306098E+03</pdfrwt>
<pdfrwt beam="2">  1       21 0.34992471E-02 0.18306098E+03</pdfrwt>
<totfact> 0.46479467E+04</totfact>
</mgrwt>
</event>
<event>
12    1  0.1050690E-001  0.2155631E+03  0.7546771E-02  0.1137401E+00
         21   -1    0    0  503  502  0.00000000000E+00  0.00000000000E+00  0.69285240442E+03  0.69285240442E+03  0.00000000000E+00 0. -1.
         21   -1    0    0  501  503 -0.00000000000E+00 -0.00000000000E+00 -0.75905072778E+02  0.75905072778E+02  0.00000000000E+00 0. -1.
          6    2    1    2  501    0  0.12807387133E+03  0.61754543112E+01  0.17478258804E+03  0.27684577195E+03  0.17220213590E+03 0.  0.
         24    2    3    3    0    0  0.53001104430E+01  0.29378484278E+02  0.10062956403E+03  0.13147542445E+03  0.79172543012E+02 0.  0.
         -6    2    1    2    0  502 -0.12807387133E+03 -0.61754543112E+01  0.44216474360E+03  0.49191170525E+03  0.17328131037E+03 0.  0.
        -24    2    5    5    0    0 -0.36990698443E+02  0.51832412395E+02  0.16894684536E+03  0.19809004692E+03  0.81496744637E+02 0.  0.
          5    1    3    3  501    0  0.12277376089E+03 -0.23203029967E+02  0.74153024009E+02  0.14537034750E+03  0.47000000000E+01 0. -1.
        -13    1    4    4    0    0 -0.17806298661E+02 -0.21326249393E+02  0.43935490890E+02  0.51982694668E+02  0.00000000000E+00 0.  1.
         14    1    4    4    0    0  0.23106409104E+02  0.50704733671E+02  0.56694073144E+02  0.79492729781E+02  0.00000000000E+00 0. -1.
         -5    1    5    5    0  502 -0.91083172891E+02 -0.58007866706E+02  0.27321789824E+03  0.29382165833E+03  0.47000000000E+01 0.  1.
         11    1    6    6    0    0 -0.44431737131E+02 -0.56005291949E+01  0.85463067952E+02  0.96485652692E+02  0.00000000000E+00 0. -1.
        -12    1    6    6    0    0  0.74410386877E+01  0.57432941590E+02  0.83483777409E+02  0.10160439423E+03  0.00000000000E+00 0.  1.
<mgrwt>
<rscale>  2 0.21534617E+03</rscale>
<asrwt>0</asrwt>
<pdfrwt beam="1">  1       21 0.10659267E+00 0.21556314E+03</pdfrwt>
<pdfrwt beam="2">  1       21 0.11677704E-01 0.21556314E+03</pdfrwt>
<totfact> 0.42891792E+04</totfact>
</mgrwt>
</event>
<event>
12    1  0.1050690E-001  0.2085833E+03  0.7546771E-02  0.1142765E+00
         21   -1    0    0  501  502  0.00000000000E+00  0.00000000000E+00  0.43323076760E+03  0.43323076760E+03  0.00000000000E+00 0.  1.
         21   -1    0    0  502  503 -0.00000000000E+00 -0.00000000000E+00 -0.10067185841E+03  0.10067185841E+03  0.00000000000E+00 0.  1.
         -6    2    1    2    0  503  0.78181728112E+02  0.89230263322E+02  0.14886384866E+03  0.25596222453E+03  0.17111923458E+03 0.  0.
        -24    2    3    3    0    0 -0.24985949606E+02  0.27322172936E+02  0.59725867497E+02  0.10614950455E+03  0.79559658475E+02 0.  0.
          6    2    1    2  501    0 -0.78181728112E+02 -0.89230263322E+02  0.18369506053E+03  0.27794040148E+03  0.17155922886E+03 0.  0.
         24    2    5    5    0    0 -0.11423046678E+03 -0.98110659796E+02  0.14564332664E+03  0.22457002156E+03  0.80903738353E+02 0.  0.
          5    1    5    5  501    0  0.36048738669E+02  0.88803964739E+01  0.38051733886E+02  0.53370379921E+02  0.47000000000E+01 0. -1.
        -11    1    6    6    0    0 -0.14588333318E+02 -0.27781064424E+02  0.80284912442E+02  0.86199038134E+02  0.00000000000E+00 0.  1.
         12    1    6    6    0    0 -0.99642133464E+02 -0.70329595372E+02  0.65358414203E+02  0.13837098342E+03  0.00000000000E+00 0. -1.
         -5    1    3    3    0  503  0.10316767772E+03  0.61908090386E+02  0.89137981161E+02  0.14981271998E+03  0.47000000000E+01 0.  1.
         13    1    4    4    0    0  0.10756532176E+02 -0.38709844441E+01  0.57534333970E+02  0.58659075090E+02  0.00000000000E+00 0. -1.
        -14    1    4    4    0    0 -0.35742481782E+02  0.31193157380E+02  0.21915335273E+01  0.47490429462E+02  0.00000000000E+00 0.  1.
<mgrwt>
<rscale>  2 0.20849280E+03</rscale>
<asrwt>0</asrwt>
<pdfrwt beam="1">  1       21 0.66650886E-01 0.20858330E+03</pdfrwt>
<pdfrwt beam="2">  1       21 0.15487978E-01 0.20858330E+03</pdfrwt>
<totfact> 0.75821936E+04</totfact>
</mgrwt>
</event>
<event>
12    1  0.1050690E-001  0.2325403E+03  0.7546771E-02  0.1125432E+00
         21   -1    0    0  503  502  0.00000000000E+00  0.00000000000E+00  0.11107875464E+03  0.11107875464E+03  0.00000000000E+00 0.  1.
         21   -1    0    0  501  503 -0.00000000000E+00 -0.00000000000E+00 -0.48293622051E+03  0.48293622051E+03  0.00000000000E+00 0.  1.
          6    2    1    2  501    0  0.14543230969E+02 -0.15016911752E+03 -0.20760367124E+03  0.30931461996E+03  0.17266725337E+03 0.  0.
         24    2    3    3    0    0  0.32895543193E+02 -0.15937405806E+03 -0.11628972498E+03  0.21560301409E+03  0.80493182331E+02 0.  0.
         -6    2    1    2    0  502 -0.14543230969E+02  0.15016911752E+03 -0.16425379463E+03  0.28470035520E+03  0.17695398773E+03 0.  0.
        -24    2    5    5    0    0 -0.76273729756E+01  0.59717267982E+01 -0.29709665156E+02  0.87304992129E+02  0.81520912087E+02 0.  0.
          5    1    3    3  501    0 -0.18352312223E+02  0.92049405407E+01 -0.91313946259E+02  0.93711605875E+02  0.47000000000E+01 0. -1.
        -13    1    4    4    0    0 -0.16576651418E+02 -0.89359758905E+02 -0.84714960304E+02  0.12424401951E+03  0.00000000000E+00 0.  1.
         14    1    4    4    0    0  0.49472194611E+02 -0.70014299160E+02 -0.31574764675E+02  0.91358994580E+02  0.00000000000E+00 0. -1.
         -5    1    5    5    0  502 -0.69158579937E+01  0.14419739073E+03 -0.13454412948E+03  0.19739536307E+03  0.47000000000E+01 0.  1.
         11    1    6    6    0    0 -0.26383921232E+02  0.36912887060E+02 -0.11542055373E+02  0.46817641685E+02  0.00000000000E+00 0. -1.
        -12    1    6    6    0    0  0.18756548257E+02 -0.30941160261E+02 -0.18167609782E+02  0.40487350445E+02  0.00000000000E+00 0.  1.
<mgrwt>
<rscale>  2 0.23172471E+03</rscale>
<asrwt>0</asrwt>
<pdfrwt beam="1">  1       21 0.17089039E-01 0.23254028E+03</pdfrwt>
<pdfrwt beam="2">  1       21 0.74297881E-01 0.23254028E+03</pdfrwt>
<totfact> 0.49232333E+04</totfact>
</mgrwt>
</event>
<event>
12    1  0.1050690E-001  0.1756189E+03  0.7546771E-02  0.1172274E+00
         21   -1    0    0  503  502  0.00000000000E+00  0.00000000000E+00  0.46407546732E+03  0.46407546732E+03  0.00000000000E+00 0. -1.
         21   -1    0    0  501  503 -0.00000000000E+00 -0.00000000000E+00 -0.13000911651E+03  0.13000911651E+03  0.00000000000E+00 0. -1.
          6    2    1    2  501    0 -0.41487087740E+01  0.27921402157E+02 -0.40887217102E+02  0.18031571433E+03  0.17333544309E+03 0.  0.
         24    2    3    3    0    0  0.49878223792E+02  0.54580616956E+02 -0.48579003087E+02  0.11939874832E+03  0.80182670225E+02 0.  0.
         -6    2    1    2    0  502  0.41487087740E+01 -0.27921402157E+02  0.37495356791E+03  0.41376886950E+03  0.17267797426E+03 0.  0.
        -24    2    5    5    0    0  0.58696494415E+02 -0.54805051773E+02  0.24669500046E+03  0.27174583736E+03  0.80861020966E+02 0.  0.
          5    1    3    3  501    0 -0.54026932566E+02 -0.26659214799E+02  0.76917859858E+01  0.60916966010E+02  0.47000000000E+01 0. -1.
        -13    1    4    4    0    0  0.20410025273E+02  0.71006023771E+02 -0.24084778434E+02  0.77707793017E+02  0.00000000000E+00 0.  1.
         14    1    4    4    0    0  0.29468198519E+02 -0.16425406815E+02 -0.24494224654E+02  0.41690955307E+02  0.00000000000E+00 0. -1.
         -5    1    5    5    0  502 -0.54547785641E+02  0.26883649617E+02  0.12825856745E+03  0.14202303214E+03  0.47000000000E+01 0.  1.
         11    1    6    6    0    0  0.36927530975E+02 -0.44984269871E+02  0.23998221958E+03  0.24693864176E+03  0.00000000000E+00 0. -1.
        -12    1    6    6    0    0  0.21768963439E+02 -0.98207819023E+01  0.67127808870E+01  0.24807195602E+02  0.00000000000E+00 0.  1.
<mgrwt>
<rscale>  2 0.17545644E+03</rscale>
<asrwt>0</asrwt>
<pdfrwt beam="1">  1       21 0.71396225E-01 0.17561888E+03</pdfrwt>
<pdfrwt beam="2">  1       21 0.20001403E-01 0.17561888E+03</pdfrwt>
<totfact> 0.41296526E+04</totfact>
</mgrwt>
</event>
<event>
12    1  0.1050690E-001  0.3943393E+03  0.7546771E-02  0.1045824E+00
         21   -1    0    0  503  502  0.00000000000E+00  0.00000000000E+00  0.19159349945E+04  0.19159349945E+04  0.00000000000E+00 0. -1.
         21   -1    0    0  501  503 -0.00000000000E+00 -0.00000000000E+00 -0.82544837380E+02  0.82544837380E+02  0.00000000000E+00 0.  1.
          6    2    1    2  501    0 -0.30191538670E+03 -0.18390098452E+03  0.77952635001E+03  0.87325435393E+03  0.17302994964E+03 0.  0.
         24    2    3    3    0    0 -0.64708370374E+02 -0.17708718856E+02  0.20340342719E+03  0.22840805445E+03  0.79350571674E+02 0.  0.
         -6    2    1    2    0  502  0.30191538670E+03  0.18390098452E+03  0.10538638071E+04  0.11252254780E+04  0.17473116335E+03 0.  0.
        -24    2    5    5    0    0  0.17032581031E+03  0.53299099230E+02  0.39699105223E+03  0.44267395962E+03  0.80663891204E+02 0.  0.
          5    1    3    3  501    0 -0.23720701633E+03 -0.16619226566E+03  0.57612292282E+03  0.64484629948E+03  0.47000000000E+01 0. -1.
        -11    1    4    4    0    0 -0.64234732972E+01 -0.29668312741E+02  0.21982037020E+02  0.37479057374E+02  0.00000000000E+00 0.  1.
         12    1    4    4    0    0 -0.58284897077E+02  0.11959593885E+02  0.18142139017E+03  0.19092899708E+03  0.00000000000E+00 0. -1.
         -5    1    5    5    0  502  0.13158957640E+03  0.13060188529E+03  0.65687275492E+03  0.68255151836E+03  0.47000000000E+01 0.  1.
         13    1    6    6    0    0 -0.81272635352E+01  0.36336719146E+00  0.78467660364E+01  0.11302928183E+02  0.00000000000E+00 0. -1.
        -14    1    6    6    0    0  0.17845307384E+03  0.52935732039E+02  0.38914428619E+03  0.43137103144E+03  0.00000000000E+00 0.  1.
<mgrwt>
<rscale>  2 0.39415141E+03</rscale>
<asrwt>0</asrwt>
<pdfrwt beam="1">  1       21 0.29475920E+00 0.39433926E+03</pdfrwt>
<pdfrwt beam="2">  1       21 0.12699207E-01 0.39433926E+03</pdfrwt>
<totfact> 0.16318351E+03</totfact>
</mgrwt>
</event>
<event>
12    1  0.1050690E-001  0.2250261E+03  0.7546771E-02  0.1130217E+00
         21   -1    0    0  501  502  0.00000000000E+00  0.00000000000E+00  0.31488577153E+03  0.31488577153E+03  0.00000000000E+00 0.  1.
         21   -1    0    0  502  503 -0.00000000000E+00 -0.00000000000E+00 -0.42429172560E+03  0.42429172560E+03  0.00000000000E+00 0.  1.
         -6    2    1    2    0  503 -0.14309927143E+03  0.17491451193E+02 -0.34601496698E+03  0.41275064795E+03  0.17278132902E+03 0.  0.
        -24    2    3    3    0    0 -0.26292802569E+02  0.51239014687E+02 -0.10878947884E+03  0.14614106179E+03  0.78773797300E+02 0.  0.
          6    2    1    2  501    0  0.14309927143E+03 -0.17491451193E+02  0.23660901291E+03  0.32642684918E+03  0.17259000702E+03 0.  0.
         24    2    5    5    0    0  0.23878218690E+01 -0.87951524632E+01  0.61726337136E+02  0.10174623600E+03  0.80368522723E+02 0.  0.
          5    1    5    5  501    0  0.14071144956E+03 -0.86962987294E+01  0.17488267578E+03  0.22468061318E+03  0.47000000000E+01 0. -1.
        -13    1    6    6    0    0  0.17885009474E+02  0.88454681347E+01  0.73015351614E+02  0.75692519060E+02  0.00000000000E+00 0.  1.
         14    1    6    6    0    0 -0.15497187605E+02 -0.17640620598E+02 -0.11289014478E+02  0.26053716944E+02  0.00000000000E+00 0. -1.
         -5    1    3    3    0  503 -0.11680646886E+03 -0.33747563495E+02 -0.23722548814E+03  0.26660958616E+03  0.47000000000E+01 0.  1.
         11    1    4    4    0    0 -0.17133095679E+02  0.69397133759E+02 -0.10228872727E+03  0.12478977870E+03  0.00000000000E+00 0. -1.
        -12    1    4    4    0    0 -0.91597068894E+01 -0.18158119072E+02 -0.65007515723E+01  0.21351283089E+02  0.00000000000E+00 0.  1.
<mgrwt>
<rscale>  2 0.22498936E+03</rscale>
<asrwt>0</asrwt>
<pdfrwt beam="1">  1       21 0.48443965E-01 0.22502609E+03</pdfrwt>
<pdfrwt beam="2">  1       21 0.65275650E-01 0.22502609E+03</pdfrwt>
<totfact> 0.85971553E+03</totfact>
</mgrwt>
</event>
<event>
12    1  0.1050690E-001  0.2215914E+03  0.7546771E-02  0.1133054E+00
         21   -1    0    0  501  502  0.00000000000E+00  0.00000000000E+00  0.63679532072E+02  0.63679532072E+02  0.00000000000E+00 0. -1.
         21   -1    0    0  502  503 -0.00000000000E+00 -0.00000000000E+00 -0.85400009173E+03  0.85400009173E+03  0.00000000000E+00 0.  1.
         -6    2    1    2    0  503  0.84710358088E+02 -0.10542273506E+03 -0.54521219151E+03  0.58852278937E+03  0.17553615582E+03 0.  0.
        -24    2    3    3    0    0  0.11018137654E+03 -0.10998361817E+03 -0.35005529087E+03  0.39160178921E+03  0.81098228366E+02 0.  0.
          6    2    1    2  501    0 -0.84710358088E+02  0.10542273506E+03 -0.24510836815E+03  0.32915683444E+03  0.17313668497E+03 0.  0.
         24    2    5    5    0    0 -0.42775024858E+02  0.20185792978E+02 -0.20672052666E+03  0.22659161205E+03  0.79832408953E+02 0.  0.
          5    1    5    5  501    0 -0.41935333230E+02  0.85236942081E+02 -0.38387841487E+02  0.10256522238E+03  0.47000000000E+01 0. -1.
        -13    1    6    6    0    0  0.34354117242E+01  0.38831224288E+02 -0.12439160789E+03  0.13035696432E+03  0.00000000000E+00 0.  1.
         14    1    6    6    0    0 -0.46210436582E+02 -0.18645431310E+02 -0.82328918773E+02  0.96234647732E+02  0.00000000000E+00 0. -1.
         -5    1    3    3    0  503 -0.25471018451E+02  0.45608831121E+01 -0.19515690064E+03  0.19692100016E+03  0.47000000000E+01 0.  1.
         11    1    4    4    0    0  0.47836125083E+02  0.17692215027E+00 -0.11676459431E+03  0.12618358312E+03  0.00000000000E+00 0. -1.
        -12    1    4    4    0    0  0.62345251456E+02 -0.11016054032E+03 -0.23329069656E+03  0.26541820610E+03  0.00000000000E+00 0.  1.
<mgrwt>
<rscale>  2 0.22111588E+03</rscale>
<asrwt>0</asrwt>
<pdfrwt beam="1">  1       21 0.97968517E-02 0.22159138E+03</pdfrwt>
<pdfrwt beam="2">  1       21 0.13138462E+00 0.22159138E+03</pdfrwt>
<totfact> 0.34833106E+04</totfact>
</mgrwt>
</event>
<event>
12    1  0.1050690E-001  0.2177622E+03  0.7546771E-02  0.1135709E+00
         21   -1    0    0  501  502  0.00000000000E+00  0.00000000000E+00  0.19427386028E+03  0.19427386028E+03  0.00000000000E+00 0. -1.
         21   -1    0    0  502  503 -0.00000000000E+00 -0.00000000000E+00 -0.28468647669E+03  0.28468647669E+03  0.00000000000E+00 0. -1.
         -6    2    1    2    0  503 -0.12708351514E+03 -0.29963700824E+02 -0.13653120680E+03  0.25636809100E+03  0.17330835082E+03 0.  0.
        -24    2    3    3    0    0 -0.12380207761E+03 -0.60407536421E+02 -0.15337669697E+03  0.22110542665E+03  0.79919795061E+02 0.  0.
          6    2    1    2  501    0  0.12708351514E+03  0.29963700824E+02  0.46118590400E+02  0.22259224597E+03  0.17427662034E+03 0.  0.
         24    2    5    5    0    0  0.12538458959E+03  0.60906281260E+02 -0.64630757836E+01  0.16137744996E+03  0.81055780800E+02 0.  0.
          5    1    5    5  501    0  0.16989255425E+01 -0.30942580435E+02  0.52581666183E+02  0.61214796011E+02  0.47000000000E+01 0. -1.
        -11    1    6    6    0    0  0.14621629134E+02 -0.19444408621E+02  0.85790855707E+00  0.24343645419E+02  0.00000000000E+00 0.  1.
         12    1    6    6    0    0  0.11076296046E+03  0.80350689881E+02 -0.73209843407E+01  0.13703380454E+03  0.00000000000E+00 0. -1.
         -5    1    3    3    0  503 -0.32814375283E+01  0.30443835597E+02  0.16845490169E+02  0.35262664351E+02  0.47000000000E+01 0.  1.
         11    1    4    4    0    0 -0.32220167397E+02 -0.10384831002E+02  0.20305184215E+01  0.33913226138E+02  0.00000000000E+00 0. -1.
        -12    1    4    4    0    0 -0.91581910211E+02 -0.50022705420E+02 -0.15540721539E+03  0.18719220051E+03  0.00000000000E+00 0.  1.
<mgrwt>
<rscale>  2 0.21756843E+03</rscale>
<asrwt>0</asrwt>
<pdfrwt beam="1">  1       21 0.29888286E-01 0.21776222E+03</pdfrwt>
<pdfrwt beam="2">  1       21 0.43797920E-01 0.21776222E+03</pdfrwt>
<totfact> 0.53138393E+04</totfact>
</mgrwt>
</event>
<event>
12    1  0.1050690E-001  0.2174414E+03  0.7546771E-02  0.1135987E+00
         21   -1    0    0  501  502  0.00000000000E+00  0.00000000000E+00  0.88074364265E+03  0.88074364265E+03  0.00000000000E+00 0.  1.
         21   -1    0    0  502  503 -0.00000000000E+00 -0.00000000000E+00 -0.92181859742E+02  0.92181859742E+02  0.00000000000E+00 0.  1.
         -6    2    1    2    0  503 -0.79291577644E+02 -0.10363774508E+03  0.70911640578E+03  0.74142534111E+03  0.17273541327E+03 0.  0.
        -24    2    3    3    0    0  0.14693057001E+02 -0.91764442895E+02  0.38368362673E+03  0.40245237679E+03  0.78218867691E+02 0.  0.
          6    2    1    2  501    0  0.79291577644E+02  0.10363774508E+03  0.79445377131E+02  0.23150016129E+03  0.17393337873E+03 0.  0.
         24    2    5    5    0    0  0.10611301597E+03  0.11854851813E+03  0.39447100848E+02  0.18086743657E+03  0.76441039605E+02 0.  0.
          5    1    5    5  501    0 -0.26821438328E+02 -0.14910773050E+02  0.39998276282E+02  0.50632724719E+02  0.47000000000E+01 0. -1.
        -13    1    6    6    0    0  0.90294288754E+02  0.77870446334E+02  0.59010410248E+02  0.13303794012E+03  0.00000000000E+00 0.  1.
         14    1    6    6    0    0  0.15818727219E+02  0.40678071796E+02 -0.19563309399E+02  0.47829496448E+02  0.00000000000E+00 0. -1.
         -5    1    3    3    0  503 -0.93984634645E+02 -0.11873302186E+02  0.32543277905E+03  0.33897296432E+03  0.47000000000E+01 0.  1.
         11    1    4    4    0    0  0.19627482311E+02 -0.67680077321E+02  0.13254524667E+03  0.15011353484E+03  0.00000000000E+00 0. -1.
        -12    1    4    4    0    0 -0.49344253104E+01 -0.24084365574E+02  0.25113838006E+03  0.25233884195E+03  0.00000000000E+00 0.  1.
<mgrwt>
<rscale>  2 0.21720172E+03</rscale>
<asrwt>0</asrwt>
<pdfrwt beam="1">  1       21 0.13549902E+00 0.21744139E+03</pdfrwt>
<pdfrwt beam="2">  1       21 0.14181825E-01 0.21744139E+03</pdfrwt>
<totfact> 0.16630091E+04</totfact>
</mgrwt>
</event>
<event>
12    1  0.1050690E-001  0.2579750E+03  0.7546771E-02  0.1108455E+00
         21   -1    0    0  503  502  0.00000000000E+00  0.00000000000E+00  0.44037273377E+03  0.44037273377E+03  0.00000000000E+00 0.  1.
         21   -1    0    0  501  503 -0.00000000000E+00 -0.00000000000E+00 -0.15850090107E+03  0.15850090107E+03  0.00000000000E+00 0.  1.
          6    2    1    2  501    0 -0.99379343462E+02  0.16386778530E+03  0.75009870357E+02  0.26865885789E+03  0.17269104292E+03 0.  0.
         24    2    3    3    0    0 -0.13600778041E+03  0.14733974240E+03  0.74234463542E+02  0.22819270102E+03  0.79712214877E+02 0.  0.
         -6    2    1    2    0  502  0.99379343462E+02 -0.16386778530E+03  0.20686196234E+03  0.33021477696E+03  0.17181682831E+03 0.  0.
        -24    2    5    5    0    0  0.98267142738E+02 -0.19035393215E+03  0.18537393623E+03  0.29576803210E+03  0.84995186637E+02 0.  0.
          5    1    3    3  501    0  0.36628436950E+02  0.16528042903E+02  0.77540681448E+00  0.40466156864E+02  0.47000000000E+01 0. -1.
        -13    1    4    4    0    0 -0.54888022587E+02  0.10614373807E+03  0.16980529537E+02  0.12069600879E+03  0.00000000000E+00 0.  1.
         14    1    4    4    0    0 -0.81119757825E+02  0.41196004334E+02  0.57253934006E+02  0.10749669224E+03  0.00000000000E+00 0. -1.
         -5    1    5    5    0  502  0.11122007242E+01  0.26486146847E+02  0.21488026113E+02  0.34446744861E+02  0.47000000000E+01 0.  1.
         11    1    6    6    0    0 -0.36325505813E+01  0.31478453488E+01 -0.41721543927E+01  0.63648429943E+01  0.00000000000E+00 0. -1.
        -12    1    6    6    0    0  0.10189969332E+03 -0.19350177750E+03  0.18954609062E+03  0.28940318910E+03  0.00000000000E+00 0.  1.
<mgrwt>
<rscale>  2 0.25782878E+03</rscale>
<asrwt>0</asrwt>
<pdfrwt beam="1">  1       21 0.67749651E-01 0.25797500E+03</pdfrwt>
<pdfrwt beam="2">  1       21 0.24384754E-01 0.25797500E+03</pdfrwt>
<totfact> 0.30619205E+04</totfact>
</mgrwt>
</event>
<event>
12    1  0.1050690E-001  0.3252908E+03  0.7546771E-02  0.1073299E+00
         21   -1    0    0  501  502  0.00000000000E+00  0.00000000000E+00  0.21335181227E+03  0.21335181227E+03  0.00000000000E+00 0.  1.
         21   -1    0    0  502  503 -0.00000000000E+00 -0.00000000000E+00 -0.75735233637E+03  0.75735233637E+03  0.00000000000E+00 0. -1.
         -6    2    1    2    0  503 -0.31038764084E+02 -0.27323776985E+03 -0.55771385677E+03  0.64564608230E+03  0.17375797480E+03 0.  0.
        -24    2    3    3    0    0 -0.58364797101E+02 -0.27771879557E+03 -0.48530844990E+03  0.56798383525E+03  0.80914563671E+02 0.  0.
          6    2    1    2  501    0  0.31038764084E+02  0.27323776985E+03  0.13713332669E+02  0.32505806634E+03  0.17277849186E+03 0.  0.
         24    2    5    5    0    0  0.41757893305E+02  0.28872178551E+03  0.23857366953E+02  0.30315724663E+03  0.78937640897E+02 0.  0.
          5    1    5    5  501    0 -0.10719129222E+02 -0.15484015655E+02 -0.10144034284E+02  0.21900819702E+02  0.47000000000E+01 0. -1.
        -13    1    6    6    0    0  0.16589440397E+02  0.62959597287E+01  0.71182353121E+01  0.19118522839E+02  0.00000000000E+00 0.  1.
         14    1    6    6    0    0  0.25168452909E+02  0.28242582578E+03  0.16739131641E+02  0.28403872380E+03  0.00000000000E+00 0. -1.
         -5    1    3    3    0  503  0.27326033018E+02  0.44810257186E+01 -0.72405406870E+02  0.77662247044E+02  0.47000000000E+01 0.  1.
         13    1    4    4    0    0 -0.18307767928E+02 -0.26057219691E+02 -0.20410447027E+02  0.37825116158E+02  0.00000000000E+00 0. -1.
        -14    1    4    4    0    0 -0.40057029174E+02 -0.25166157588E+03 -0.46489800287E+03  0.53015871910E+03  0.00000000000E+00 0.  1.
<mgrwt>
<rscale>  2 0.32516020E+03</rscale>
<asrwt>0</asrwt>
<pdfrwt beam="1">  1       21 0.32823356E-01 0.32529082E+03</pdfrwt>
<pdfrwt beam="2">  1       21 0.11651574E+00 0.32529082E+03</pdfrwt>
<totfact> 0.46667305E+03</totfact>
</mgrwt>
</event>
<event>
12    1  0.1050690E-001  0.1816650E+03  0.7546771E-02  0.1166264E+00
         21   -1    0    0  503  502  0.00000000000E+00  0.00000000000E+00  0.10314755568E+03  0.10314755568E+03  0.00000000000E+00 0. -1.
         21   -1    0    0  501  503 -0.00000000000E+00 -0.00000000000E+00 -0.58895664896E+03  0.58895664896E+03  0.00000000000E+00 0. -1.
          6    2    1    2  501    0 -0.52612529812E+02 -0.18358741254E+02 -0.47688260611E+03  0.51022000695E+03  0.17263346665E+03 0.  0.
         24    2    3    3    0    0 -0.91325201810E+02 -0.43194272069E+02 -0.40116825853E+03  0.42150570712E+03  0.80777793114E+02 0.  0.
         -6    2    1    2    0  502  0.52612529812E+02  0.18358741254E+02 -0.89264871707E+01  0.18188419769E+03  0.17290765605E+03 0.  0.
        -24    2    5    5    0    0  0.70372166163E+02  0.63592830183E+02 -0.31006344797E+02  0.12830120041E+03  0.80644372326E+02 0.  0.
          5    1    3    3  501    0  0.38712671997E+02  0.24835530815E+02 -0.75714347577E+02  0.88714299823E+02  0.47000000000E+01 0. -1.
        -13    1    4    4    0    0  0.19622601750E+01 -0.31791420350E+02 -0.64056082903E+02  0.71538287859E+02  0.00000000000E+00 0.  1.
         14    1    4    4    0    0 -0.93287461985E+02 -0.11402851719E+02 -0.33711217563E+03  0.34996741926E+03  0.00000000000E+00 0. -1.
         -5    1    5    5    0  502 -0.17759636351E+02 -0.45234088928E+02  0.22079857627E+02  0.53582997278E+02  0.47000000000E+01 0.  1.
         13    1    6    6    0    0 -0.60746511944E+01  0.17398389235E+02  0.18555908688E+02  0.26151999586E+02  0.00000000000E+00 0. -1.
        -14    1    6    6    0    0  0.76446817358E+02  0.46194440947E+02 -0.49562253485E+02  0.10214920082E+03  0.00000000000E+00 0.  1.
<mgrwt>
<rscale>  2 0.18159975E+03</rscale>
<asrwt>0</asrwt>
<pdfrwt beam="1">  1       21 0.15868855E-01 0.18166502E+03</pdfrwt>
<pdfrwt beam="2">  1       21 0.90608716E-01 0.18166502E+03</pdfrwt>
<totfact> 0.36825506E+04</totfact>
</mgrwt>
</event>
<event>
12    1  0.1050690E-001  0.1998771E+03  0.7546771E-02  0.1150204E+00
         21   -1    0    0  503  502  0.00000000000E+00  0.00000000000E+00  0.97451719043E+02  0.97451719043E+02  0.00000000000E+00 0. -1.
         21   -1    0    0  501  503 -0.00000000000E+00 -0.00000000000E+00 -0.56153004682E+03  0.56153004682E+03  0.00000000000E+00 0. -1.
          6    2    1    2  501    0  0.90089309130E+02  0.39758561799E+02 -0.40590370476E+03  0.45244741512E+03  0.17393682490E+03 0.  0.
         24    2    3    3    0    0  0.60897333290E+02 -0.10241633749E+02 -0.37308321778E+03  0.38572811226E+03  0.76037575821E+02 0.  0.
         -6    2    1    2    0  502 -0.90089309130E+02 -0.39758561799E+02 -0.58174623018E+02  0.20653435074E+03  0.17197477844E+03 0.  0.
        -24    2    5    5    0    0 -0.11128192563E+03 -0.57189742424E+02 -0.82589873480E+02  0.16950507169E+03  0.79098347106E+02 0.  0.
          5    1    3    3  501    0  0.29191975840E+02  0.50000195548E+02 -0.32820486980E+02  0.66719302858E+02  0.47000000000E+01 0. -1.
        -13    1    4    4    0    0 -0.76798167955E+01  0.14757345514E+02 -0.24696119953E+02  0.29776789171E+02  0.00000000000E+00 0.  1.
         14    1    4    4    0    0  0.68577150085E+02 -0.24998979263E+02 -0.34838709783E+03  0.35595132309E+03  0.00000000000E+00 0. -1.
         -5    1    5    5    0  502  0.21192616504E+02  0.17431180625E+02  0.24415250463E+02  0.37029279056E+02  0.47000000000E+01 0.  1.
         11    1    6    6    0    0 -0.41922732954E+02 -0.40884660115E+02  0.23913693610E+01  0.58607078229E+02  0.00000000000E+00 0. -1.
        -12    1    6    6    0    0 -0.69359192680E+02 -0.16305082308E+02 -0.84981242841E+02  0.11089799346E+03  0.00000000000E+00 0.  1.
<mgrwt>
<rscale>  2 0.19944944E+03</rscale>
<asrwt>0</asrwt>
<pdfrwt beam="1">  1       21 0.14992572E-01 0.19987708E+03</pdfrwt>
<pdfrwt beam="2">  1       21 0.86389236E-01 0.19987708E+03</pdfrwt>
<totfact> 0.45163539E+04</totfact>
</mgrwt>
</event>
<event>
12    1  0.1050690E-001  0.1869429E+03  0.7546771E-02  0.1161265E+00
         21   -1    0    0  503  502  0.00000000000E+00  0.00000000000E+00  0.45102918321E+02  0.45102918321E+02  0.00000000000E+00 0.  1.
         21   -1    0    0  501  503 -0.00000000000E+00 -0.00000000000E+00 -0.91729195034E+03  0.91729195034E+03  0.00000000000E+00 0.  1.
          6    2    1    2  501    0 -0.54312857301E+00  0.73645127321E+02 -0.62600046079E+03  0.65331785490E+03  0.17182474459E+03 0.  0.
         24    2    3    3    0    0  0.41845924125E+01  0.11534717463E+03 -0.52645203982E+03  0.54518187471E+03  0.82152570059E+02 0.  0.
         -6    2    1    2    0  502  0.54312857301E+00 -0.73645127321E+02 -0.24618857122E+03  0.30907701376E+03  0.17174366965E+03 0.  0.
        -24    2    5    5    0    0 -0.49858405165E+02  0.17114504890E+01 -0.11688617903E+03  0.15108927040E+03  0.81711683098E+02 0.  0.
          5    1    3    3  501    0 -0.47277209855E+01 -0.41702047305E+02 -0.99548420969E+02  0.10813598019E+03  0.47000000000E+01 0. -1.
        -11    1    4    4    0    0  0.23076331907E+02  0.33379859200E+02 -0.68899965495E+02  0.79962099396E+02  0.00000000000E+00 0.  1.
         12    1    4    4    0    0 -0.18891739494E+02  0.81967315426E+02 -0.45755207433E+03  0.46521977531E+03  0.00000000000E+00 0. -1.
         -5    1    5    5    0  502  0.50401533738E+02 -0.75356577810E+02 -0.12930239220E+03  0.15798774335E+03  0.47000000000E+01 0.  1.
         11    1    6    6    0    0 -0.38852829162E+02  0.13582236652E+02 -0.12597254819E+03  0.13252585553E+03  0.00000000000E+00 0. -1.
        -12    1    6    6    0    0 -0.11005576003E+02 -0.11870786163E+02  0.90863691612E+01  0.18563414875E+02  0.00000000000E+00 0.  1.
<mgrwt>
<rscale>  2 0.18692425E+03</rscale>
<asrwt>0</asrwt>
<pdfrwt beam="1">  1       21 0.69389111E-02 0.18694289E+03</pdfrwt>
<pdfrwt beam="2">  1       21 0.14112183E+00 0.18694289E+03</pdfrwt>
<totfact> 0.53994348E+04</totfact>
</mgrwt>
</event>
<event>
12    1  0.1050690E-001  0.2401361E+03  0.7546771E-02  0.1119874E+00
         21   -1    0    0  503  502  0.00000000000E+00  0.00000000000E+00  0.77581061267E+02  0.77581061267E+02  0.00000000000E+00 0. -1.
         21   -1    0    0  501  503 -0.00000000000E+00 -0.00000000000E+00 -0.82149310060E+03  0.82149310060E+03  0.00000000000E+00 0.  1.
          6    2    1    2  501    0 -0.16523258247E+03  0.28470503840E+02 -0.51416490425E+03  0.56747767551E+03  0.17190982386E+03 0.  0.
         24    2    3    3    0    0 -0.90244648582E+02 -0.31595717321E+02 -0.39402504504E+03  0.41357245492E+03  0.81511063047E+02 0.  0.
         -6    2    1    2    0  502  0.16523258247E+03 -0.28470503840E+02 -0.22974713508E+03  0.33159648635E+03  0.17047025484E+03 0.  0.
        -24    2    5    5    0    0  0.81113316131E+02  0.55627010332E+00 -0.52571774577E+02  0.13327401424E+03  0.91752340027E+02 0.  0.
          5    1    3    3  501    0 -0.74987933888E+02  0.60066221161E+02 -0.12013985921E+03  0.15390522059E+03  0.47000000000E+01 0. -1.
        -13    1    4    4    0    0 -0.96507086326E+02 -0.25625533578E+02 -0.24878759803E+03  0.26807751606E+03  0.00000000000E+00 0.  1.
         14    1    4    4    0    0  0.62624377447E+01 -0.59701837435E+01 -0.14523744701E+03  0.14549493886E+03  0.00000000000E+00 0. -1.
         -5    1    5    5    0  502  0.84119266339E+02 -0.29026773944E+02 -0.17717536050E+03  0.19832247211E+03  0.47000000000E+01 0.  1.
         13    1    6    6    0    0  0.51208739421E+02  0.41513444686E+02 -0.92327200238E+01  0.66565337840E+02  0.00000000000E+00 0. -1.
        -14    1    6    6    0    0  0.29904576710E+02 -0.40957174583E+02 -0.43339054554E+02  0.66708676404E+02  0.00000000000E+00 0.  1.
<mgrwt>
<rscale>  2 0.23987861E+03</rscale>
<asrwt>0</asrwt>
<pdfrwt beam="1">  1       21 0.11935548E-01 0.24013614E+03</pdfrwt>
<pdfrwt beam="2">  1       21 0.12638356E+00 0.24013614E+03</pdfrwt>
<totfact> 0.26764192E+04</totfact>
</mgrwt>
</event>
<event>
12    1  0.1050690E-001  0.1967505E+03  0.7546771E-02  0.1152830E+00
         21   -1    0    0  503  502  0.00000000000E+00  0.00000000000E+00  0.27082607484E+03  0.27082607484E+03  0.00000000000E+00 0. -1.
         21   -1    0    0  501  503 -0.00000000000E+00 -0.00000000000E+00 -0.14896758389E+03  0.14896758389E+03  0.00000000000E+00 0.  1.
          6    2    1    2  501    0  0.32715906223E+02  0.85773629632E+02  0.10654368638E+03  0.22244798563E+03  0.17234878341E+03 0.  0.
         24    2    3    3    0    0  0.12086228616E+02  0.89462278590E+02  0.53644563745E+01  0.11901435321E+03  0.77369649516E+02 0.  0.
         -6    2    1    2    0  502 -0.32715906223E+02 -0.85773629632E+02  0.15314804569E+02  0.19734567311E+03  0.17402104871E+03 0.  0.
        -24    2    5    5    0    0  0.15848322375E+02 -0.15288414879E+02 -0.44603829062E+02  0.92756082542E+02  0.78289746008E+02 0.  0.
          5    1    3    3  501    0  0.20629677606E+02 -0.36886489578E+01  0.10117923001E+03  0.10343363242E+03  0.47000000000E+01 0. -1.
        -11    1    4    4    0    0 -0.17257251657E+02  0.37339142356E+02 -0.28721100209E+02  0.50168973318E+02  0.00000000000E+00 0.  1.
         12    1    4    4    0    0  0.29343480273E+02  0.52123136234E+02  0.34085556583E+02  0.68845379896E+02  0.00000000000E+00 0. -1.
         -5    1    5    5    0  502 -0.48564228598E+02 -0.70485214753E+02  0.59918633631E+02  0.10458959056E+03  0.47000000000E+01 0.  1.
         13    1    6    6    0    0 -0.37932208007E+01 -0.55329732959E+01  0.21808224664E+02  0.22816682066E+02  0.00000000000E+00 0. -1.
        -14    1    6    6    0    0  0.19641543176E+02 -0.97554415831E+01 -0.66412053726E+02  0.69939400476E+02  0.00000000000E+00 0.  1.
<mgrwt>
<rscale>  2 0.19638011E+03</rscale>
<asrwt>0</asrwt>
<pdfrwt beam="1">  1       21 0.41665550E-01 0.19675053E+03</pdfrwt>
<pdfrwt beam="2">  1       21 0.22918090E-01 0.19675053E+03</pdfrwt>
<totfact> 0.98931981E+04</totfact>
</mgrwt>
</event>
<event>
12    1  0.1050690E-001  0.2182411E+03  0.7546771E-02  0.1135865E+00
         21   -1    0    0  503  502  0.00000000000E+00  0.00000000000E+00  0.47878387173E+03  0.47878387173E+03  0.00000000000E+00 0.  1.
         21   -1    0    0  501  503 -0.00000000000E+00 -0.00000000000E+00 -0.10679739723E+03  0.10679739723E+03  0.00000000000E+00 0. -1.
          6    2    1    2  501    0 -0.86216495300E+02  0.99213809078E+02  0.10007869273E+03  0.23692238169E+03  0.16982286722E+03 0.  0.
         24    2    3    3    0    0 -0.52411979954E+02 -0.50187231240E+01  0.81539866581E+02  0.12568864534E+03  0.79854132647E+02 0.  0.
         -6    2    1    2    0  502  0.86216495300E+02 -0.99213809078E+02  0.27190778176E+03  0.34865888728E+03  0.17421972884E+03 0.  0.
        -24    2    5    5    0    0  0.39656807349E+00  0.73985258292E+01  0.94058275401E+02  0.12419555669E+03  0.80763120789E+02 0.  0.
          5    1    3    3  501    0 -0.33804515347E+02  0.10423253220E+03  0.18538826153E+02  0.11123373635E+03  0.47000000000E+01 0. -1.
        -11    1    4    4    0    0 -0.59802777434E+02  0.24197695942E+02  0.46810032031E+02  0.79706209146E+02  0.00000000000E+00 0.  1.
         12    1    4    4    0    0  0.73907974800E+01 -0.29216419066E+02  0.34729834549E+02  0.45982436193E+02  0.00000000000E+00 0. -1.
         -5    1    5    5    0  502  0.85819927227E+02 -0.10661233491E+03  0.17784950636E+03  0.22446333058E+03  0.47000000000E+01 0.  1.
         11    1    6    6    0    0  0.22517531566E+01  0.17101981501E+02 -0.98197453133E+01  0.19848817636E+02  0.00000000000E+00 0. -1.
        -12    1    6    6    0    0 -0.18551850832E+01 -0.97034556721E+01  0.10387802071E+03  0.10434673905E+03  0.00000000000E+00 0.  1.
<mgrwt>
<rscale>  2 0.21736240E+03</rscale>
<asrwt>0</asrwt>
<pdfrwt beam="1">  1       21 0.73659056E-01 0.21824110E+03</pdfrwt>
<pdfrwt beam="2">  1       21 0.16430369E-01 0.21824110E+03</pdfrwt>
<totfact> 0.54309115E+04</totfact>
</mgrwt>
</event>
<event>
12    1  0.1050690E-001  0.1785040E+03  0.7546771E-02  0.1170526E+00
         21   -1    0    0  501  502  0.00000000000E+00  0.00000000000E+00  0.55251141663E+02  0.55251141663E+02  0.00000000000E+00 0.  1.
         21   -1    0    0  502  503 -0.00000000000E+00 -0.00000000000E+00 -0.59567136062E+03  0.59567136062E+03  0.00000000000E+00 0.  1.
         -6    2    1    2    0  503 -0.28221536794E+02 -0.41983725008E+02 -0.35314034042E+03  0.39569149729E+03  0.17118578414E+03 0.  0.
        -24    2    3    3    0    0  0.35299897342E+02  0.16661481148E+02 -0.15348118924E+03  0.17806774066E+03  0.81412266318E+02 0.  0.
          6    2    1    2  501    0  0.28221536794E+02  0.41983725008E+02 -0.18727987854E+03  0.25523100499E+03  0.16586146237E+03 0.  0.
         24    2    5    5    0    0  0.79213247925E+02  0.24213042240E+02 -0.12353083105E+03  0.17155315353E+03  0.85496246729E+02 0.  0.
          5    1    5    5  501    0 -0.50991711131E+02  0.17770682769E+02 -0.63749047483E+02  0.83677851461E+02  0.47000000000E+01 0. -1.
        -11    1    6    6    0    0  0.15597058189E+02  0.47727544620E+02 -0.41698959613E+02  0.65268598670E+02  0.00000000000E+00 0.  1.
         12    1    6    6    0    0  0.63616189736E+02 -0.23514502380E+02 -0.81831871440E+02  0.10628455486E+03  0.00000000000E+00 0. -1.
         -5    1    3    3    0  503 -0.63521434136E+02 -0.58645206156E+02 -0.19965915118E+03  0.21762375663E+03  0.47000000000E+01 0.  1.
         13    1    4    4    0    0 -0.15016774228E+02  0.26058856847E+02 -0.98314023471E+02  0.10281154964E+03  0.00000000000E+00 0. -1.
        -14    1    4    4    0    0  0.50316671570E+02 -0.93973756992E+01 -0.55167165770E+02  0.75256191021E+02  0.00000000000E+00 0.  1.
<mgrwt>
<rscale>  2 0.17721519E+03</rscale>
<asrwt>0</asrwt>
<pdfrwt beam="1">  1       21 0.85001750E-02 0.17850395E+03</pdfrwt>
<pdfrwt beam="2">  1       21 0.91641755E-01 0.17850395E+03</pdfrwt>
<totfact> 0.10936987E+05</totfact>
</mgrwt>
</event>
<event>
12    1  0.1050690E-001  0.2617163E+03  0.7546771E-02  0.1106424E+00
         21   -1    0    0  503  502  0.00000000000E+00  0.00000000000E+00  0.42266850251E+03  0.42266850251E+03  0.00000000000E+00 0.  1.
         21   -1    0    0  501  503 -0.00000000000E+00 -0.00000000000E+00 -0.16505037799E+03  0.16505037799E+03  0.00000000000E+00 0. -1.
          6    2    1    2  501    0 -0.18581758112E+03 -0.64046100102E+02  0.82052298380E+02  0.27427718695E+03  0.17281585351E+03 0.  0.
         24    2    3    3    0    0 -0.12879152372E+03  0.14347805672E+02  0.77331263157E+01  0.15203560229E+03  0.79132212230E+02 0.  0.
         -6    2    1    2    0  502  0.18581758112E+03  0.64046100102E+02  0.17556582614E+03  0.31344169355E+03  0.16968282045E+03 0.  0.
        -24    2    5    5    0    0  0.74621599035E+02 -0.20575658763E+02  0.67057386219E+02  0.13646271164E+03  0.90186683298E+02 0.  0.
          5    1    3    3  501    0 -0.57026057400E+02 -0.78393905774E+02  0.74319172064E+02  0.12224158466E+03  0.47000000000E+01 0. -1.
        -11    1    4    4    0    0  0.15085480954E+01  0.21158167695E+02 -0.12510042604E+01  0.21248736179E+02  0.00000000000E+00 0.  1.
         12    1    4    4    0    0 -0.13030007181E+03 -0.68103620231E+01  0.89841305760E+01  0.13078686611E+03  0.00000000000E+00 0. -1.
         -5    1    5    5    0  502  0.11119598208E+03  0.84621758865E+02  0.10850843992E+03  0.17697898191E+03  0.47000000000E+01 0.  1.
         11    1    6    6    0    0  0.78504543298E+02 -0.15934576364E+02  0.11911901451E+02  0.80986217584E+02  0.00000000000E+00 0. -1.
        -12    1    6    6    0    0 -0.38829442626E+01 -0.46410823997E+01  0.55145484768E+02  0.55476494052E+02  0.00000000000E+00 0.  1.
<mgrwt>
<rscale>  2 0.26120019E+03</rscale>
<asrwt>0</asrwt>
<pdfrwt beam="1">  1       21 0.65025923E-01 0.26171625E+03</pdfrwt>
<pdfrwt beam="2">  1       21 0.25392366E-01 0.26171625E+03</pdfrwt>
<totfact> 0.30955320E+04</totfact>
</mgrwt>
</event>
<event>
12    1  0.1050690E-001  0.2991628E+03  0.7546771E-02  0.1085786E+00
         21   -1    0    0  503  502  0.00000000000E+00  0.00000000000E+00  0.18399073838E+03  0.18399073838E+03  0.00000000000E+00 0.  1.
         21   -1    0    0  501  503 -0.00000000000E+00 -0.00000000000E+00 -0.62954322615E+03  0.62954322615E+03  0.00000000000E+00 0. -1.
          6    2    1    2  501    0 -0.15284114391E+03  0.19048177510E+03 -0.41811485386E+03  0.51411907882E+03  0.17278505224E+03 0.  0.
         24    2    3    3    0    0 -0.12862465142E+03  0.19445189168E+03 -0.27785941347E+03  0.37165547332E+03  0.81031463443E+02 0.  0.
         -6    2    1    2    0  502  0.15284114391E+03 -0.19048177510E+03 -0.27437633919E+02  0.29941488571E+03  0.17103428928E+03 0.  0.
        -24    2    5    5    0    0  0.53906745352E+02 -0.74767025330E+02 -0.70382904899E+02  0.14116096053E+03  0.80477439105E+02 0.  0.
          5    1    3    3  501    0 -0.24216492498E+02 -0.39701165744E+01 -0.14025544039E+03  0.14246360550E+03  0.47000000000E+01 0. -1.
        -11    1    4    4    0    0 -0.41527557395E+02  0.97018547746E+02 -0.71777253271E+02  0.12762880050E+03  0.00000000000E+00 0.  1.
         12    1    4    4    0    0 -0.87097094022E+02  0.97433343931E+02 -0.20608216020E+03  0.24402667282E+03  0.00000000000E+00 0. -1.
         -5    1    5    5    0  502  0.98934398562E+02 -0.11571474977E+03  0.42945270980E+02  0.15825392518E+03  0.47000000000E+01 0.  1.
         13    1    6    6    0    0  0.56190962882E+02 -0.72807342988E+02 -0.85604791304E+02  0.12564439421E+03  0.00000000000E+00 0. -1.
        -14    1    6    6    0    0 -0.22842175298E+01 -0.19596823419E+01  0.15221886406E+02  0.15516566319E+02  0.00000000000E+00 0.  1.
<mgrwt>
<rscale>  2 0.29891057E+03</rscale>
<asrwt>0</asrwt>
<pdfrwt beam="1">  1       21 0.28306267E-01 0.29916283E+03</pdfrwt>
<pdfrwt beam="2">  1       21 0.96852805E-01 0.29916283E+03</pdfrwt>
<totfact> 0.99331916E+03</totfact>
</mgrwt>
</event>
<event>
12    1  0.1050690E-001  0.2954135E+03  0.7546771E-02  0.1088160E+00
         21   -1    0    0  503  502  0.00000000000E+00  0.00000000000E+00  0.14058332589E+03  0.14058332589E+03  0.00000000000E+00 0. -1.
         21   -1    0    0  501  503 -0.00000000000E+00 -0.00000000000E+00 -0.12366157440E+04  0.12366157440E+04  0.00000000000E+00 0.  1.
          6    2    1    2  501    0  0.14959040422E+03  0.18054317192E+03 -0.10399880385E+04  0.10811310062E+04  0.17971089660E+03 0.  0.
         24    2    3    3    0    0  0.12620549319E+03  0.20629205127E+03 -0.97184459383E+03  0.10044793402E+04  0.77540913978E+02 0.  0.
         -6    2    1    2    0  502 -0.14959040422E+03 -0.18054317192E+03 -0.56044379578E+02  0.29606806368E+03  0.17187844510E+03 0.  0.
        -24    2    5    5    0    0 -0.30770912947E+02 -0.52089859310E+02 -0.66579453752E+02  0.12070728467E+03  0.80481192742E+02 0.  0.
          5    1    3    3  501    0  0.23384911031E+02 -0.25748879352E+02 -0.68143444649E+02  0.76651665999E+02  0.47000000000E+01 0. -1.
        -13    1    4    4    0    0  0.57452698706E+02  0.48155210794E+02 -0.40898180424E+03  0.41579544624E+03  0.00000000000E+00 0.  1.
         14    1    4    4    0    0  0.68752794481E+02  0.15813684047E+03 -0.56286278959E+03  0.58868389392E+03  0.00000000000E+00 0. -1.
         -5    1    5    5    0  502 -0.11881949127E+03 -0.12845331261E+03  0.10535074173E+02  0.17536077900E+03  0.47000000000E+01 0.  1.
         11    1    6    6    0    0 -0.37231503420E+02 -0.16579162890E+02  0.44851120075E+01  0.41002069689E+02  0.00000000000E+00 0. -1.
        -12    1    6    6    0    0  0.64605904729E+01 -0.35510696419E+02 -0.71064565759E+02  0.79705214986E+02  0.00000000000E+00 0.  1.
<mgrwt>
<rscale>  2 0.29423185E+03</rscale>
<asrwt>0</asrwt>
<pdfrwt beam="1">  1       21 0.21628205E-01 0.29541349E+03</pdfrwt>
<pdfrwt beam="2">  1       21 0.19024857E+00 0.29541349E+03</pdfrwt>
<totfact> 0.28548401E+03</totfact>
</mgrwt>
</event>
<event>
12    1  0.1050690E-001  0.2033021E+03  0.7546771E-02  0.1148406E+00
         21   -1    0    0  503  502  0.00000000000E+00  0.00000000000E+00  0.22156260089E+04  0.22156260089E+04  0.00000000000E+00 0. -1.
         21   -1    0    0  501  503 -0.00000000000E+00 -0.00000000000E+00 -0.18135847284E+02  0.18135847284E+02  0.00000000000E+00 0. -1.
          6    2    1    2  501    0  0.91730354993E+02  0.17618666344E+02  0.99856614057E+03  0.10177229803E+04  0.17291862858E+03 0.  0.
         24    2    3    3    0    0  0.91390029914E+02 -0.19980833159E+02  0.42003702668E+03  0.43795417827E+03  0.81371906854E+02 0.  0.
         -6    2    1    2    0  502 -0.91730354993E+02 -0.17618666344E+02  0.11989240210E+04  0.12160388759E+04  0.18057370790E+03 0.  0.
        -24    2    5    5    0    0 -0.12210068595E+03 -0.77600341212E+01  0.65302362046E+03  0.66918525105E+03  0.80001598142E+02 0.  0.
          5    1    3    3  501    0  0.34032507912E+00  0.37599499503E+02  0.57852911389E+03  0.57976880203E+03  0.47000000000E+01 0. -1.
        -13    1    4    4    0    0  0.17010532163E+01 -0.31879791450E+02  0.14289583056E+03  0.14641869101E+03  0.00000000000E+00 0.  1.
         14    1    4    4    0    0  0.89688976698E+02  0.11898958291E+02  0.27714119612E+03  0.29153548727E+03  0.00000000000E+00 0. -1.
         -5    1    5    5    0  502  0.30370330959E+02 -0.98586322227E+01  0.54590040058E+03  0.54685362483E+03  0.47000000000E+01 0.  1.
         13    1    6    6    0    0 -0.49891057892E+02 -0.40935088111E+02  0.23638583954E+03  0.24503686300E+03  0.00000000000E+00 0. -1.
        -14    1    6    6    0    0 -0.72209628061E+02  0.33175053990E+02  0.41663778093E+03  0.42414838805E+03  0.00000000000E+00 0.  1.
<mgrwt>
<rscale>  2 0.20158860E+03</rscale>
<asrwt>0</asrwt>
<pdfrwt beam="1">  1       21 0.34086532E+00 0.20330209E+03</pdfrwt>
<pdfrwt beam="2">  1       21 0.27901321E-02 0.20330209E+03</pdfrwt>
<totfact> 0.13950133E+04</totfact>
</mgrwt>
</event>
<event>
12    1  0.1050690E-001  0.2075866E+03  0.7546771E-02  0.1144745E+00
         21   -1    0    0  501  502  0.00000000000E+00  0.00000000000E+00  0.10221018509E+03  0.10221018509E+03  0.00000000000E+00 0. -1.
         21   -1    0    0  502  503 -0.00000000000E+00 -0.00000000000E+00 -0.45707969515E+03  0.45707969515E+03  0.00000000000E+00 0. -1.
         -6    2    1    2    0  503 -0.45334138622E+02  0.96782344390E+02 -0.27029173677E+03  0.34080758717E+03  0.17796118171E+03 0.  0.
        -24    2    3    3    0    0  0.37380889986E+02  0.87703857880E+02 -0.15528887688E+03  0.19877962282E+03  0.79431766579E+02 0.  0.
          6    2    1    2  501    0  0.45334138622E+02 -0.96782344390E+02 -0.84577773290E+02  0.21848229306E+03  0.17076037696E+03 0.  0.
         24    2    5    5    0    0  0.60623879377E+02 -0.52481156561E+02 -0.11558846470E+03  0.16208970138E+03  0.80516157248E+02 0.  0.
          5    1    5    5  501    0 -0.15289740755E+02 -0.44301187829E+02  0.31010691406E+02  0.56392591684E+02  0.47000000000E+01 0. -1.
        -13    1    6    6    0    0 -0.15576608960E+02 -0.17469564073E+02 -0.51420733258E+02  0.56496975357E+02  0.00000000000E+00 0.  1.
         14    1    6    6    0    0  0.76200488336E+02 -0.35011592488E+02 -0.64167731438E+02  0.10559272602E+03  0.00000000000E+00 0. -1.
         -5    1    3    3    0  503 -0.82715028607E+02  0.90784865098E+01 -0.11500285989E+03  0.14202796435E+03  0.47000000000E+01 0.  1.
         13    1    4    4    0    0  0.42566931218E+02  0.61352344727E+02 -0.15485521685E+03  0.17191914385E+03  0.00000000000E+00 0. -1.
        -14    1    4    4    0    0 -0.51860412328E+01  0.26351513153E+02 -0.43366002615E+00  0.26860478963E+02  0.00000000000E+00 0.  1.
<mgrwt>
<rscale>  2 0.20603450E+03</rscale>
<asrwt>0</asrwt>
<pdfrwt beam="1">  1       21 0.15724644E-01 0.20758658E+03</pdfrwt>
<pdfrwt beam="2">  1       21 0.70319953E-01 0.20758658E+03</pdfrwt>
<totfact> 0.65572012E+04</totfact>
</mgrwt>
</event>
<event>
12    1  0.1050690E-001  0.2131595E+03  0.7546771E-02  0.1139219E+00
         21   -1    0    0  503  502  0.00000000000E+00  0.00000000000E+00  0.35254369086E+03  0.35254369086E+03  0.00000000000E+00 0. -1.
         21   -1    0    0  501  503 -0.00000000000E+00 -0.00000000000E+00 -0.23452528264E+03  0.23452528264E+03  0.00000000000E+00 0. -1.
          6    2    1    2  501    0  0.65775435903E+02  0.10497223476E+03 -0.13842712898E+03  0.25360041912E+03  0.17264276557E+03 0.  0.
         24    2    3    3    0    0  0.83833002400E+02  0.67821686728E+02 -0.28252778756E+02  0.13584339651E+03  0.77636688406E+02 0.  0.
         -6    2    1    2    0  502 -0.65775435903E+02 -0.10497223476E+03  0.25644553720E+03  0.33346855438E+03  0.17346868642E+03 0.  0.
        -24    2    5    5    0    0 -0.49456641841E+02 -0.13352259864E+03  0.25154368090E+03  0.29988962478E+03  0.79908196559E+02 0.  0.
          5    1    3    3  501    0 -0.18057566497E+02  0.37150548028E+02 -0.11017435022E+03  0.11775702261E+03  0.47000000000E+01 0. -1.
        -11    1    4    4    0    0  0.47032898377E+02 -0.86294570748E+01 -0.13842850446E+02  0.49781377719E+02  0.00000000000E+00 0.  1.
         12    1    4    4    0    0  0.36800104023E+02  0.76451143803E+02 -0.14409928309E+02  0.86062018793E+02  0.00000000000E+00 0. -1.
         -5    1    5    5    0  502 -0.16318794062E+02  0.28550363888E+02  0.49018563011E+01  0.33578929598E+02  0.47000000000E+01 0.  1.
         11    1    6    6    0    0 -0.83072577639E+01 -0.76285618819E+02  0.19488589682E+03  0.20944932311E+03  0.00000000000E+00 0. -1.
        -12    1    6    6    0    0 -0.41149384077E+02 -0.57236979825E+02  0.56657784079E+02  0.90440301670E+02  0.00000000000E+00 0.  1.
<mgrwt>
<rscale>  2 0.21299138E+03</rscale>
<asrwt>0</asrwt>
<pdfrwt beam="1">  1       21 0.54237491E-01 0.21315948E+03</pdfrwt>
<pdfrwt beam="2">  1       21 0.36080812E-01 0.21315948E+03</pdfrwt>
<totfact> 0.23520047E+04</totfact>
</mgrwt>
</event>
<event>
12    1  0.1050690E-001  0.2343862E+03  0.7546771E-02  0.1123879E+00
         21   -1    0    0  503  502  0.00000000000E+00  0.00000000000E+00  0.11068941816E+03  0.11068941816E+03  0.00000000000E+00 0. -1.
         21   -1    0    0  501  503 -0.00000000000E+00 -0.00000000000E+00 -0.49306405434E+03  0.49306405434E+03  0.00000000000E+00 0. -1.
          6    2    1    2  501    0 -0.58019278634E+02 -0.14427547194E+03 -0.19924876788E+03  0.30763123706E+03  0.17537177086E+03 0.  0.
         24    2    3    3    0    0 -0.40786102975E+02 -0.60786944158E+02 -0.19373908894E+03  0.22207562253E+03  0.80151037190E+02 0.  0.
         -6    2    1    2    0  502  0.58019278634E+02  0.14427547194E+03 -0.18312586830E+03  0.29612223544E+03  0.17312321099E+03 0.  0.
        -24    2    5    5    0    0  0.72455550580E+02  0.16772677880E+03 -0.18029728522E+03  0.26804269443E+03  0.77186111718E+02 0.  0.
          5    1    3    3  501    0 -0.17233175658E+02 -0.83488527782E+02 -0.55096789371E+01  0.85555614523E+02  0.47000000000E+01 0. -1.
        -13    1    4    4    0    0 -0.59966508760E+02 -0.20849669044E+02 -0.12674851797E+03  0.14175992974E+03  0.00000000000E+00 0.  1.
         14    1    4    4    0    0  0.19180405784E+02 -0.39937275114E+02 -0.66990570974E+02  0.80315692794E+02  0.00000000000E+00 0. -1.
         -5    1    5    5    0  502 -0.14436271946E+02 -0.23451306857E+02 -0.28285830752E+01  0.28079541008E+02  0.47000000000E+01 0.  1.
         13    1    6    6    0    0  0.16101683688E+02  0.29674376029E+02  0.40238944164E+00  0.33763807954E+02  0.00000000000E+00 0. -1.
        -14    1    6    6    0    0  0.56353866892E+02  0.13805240277E+03 -0.18069967466E+03  0.23427888647E+03  0.00000000000E+00 0.  1.
<mgrwt>
<rscale>  2 0.23396570E+03</rscale>
<asrwt>0</asrwt>
<pdfrwt beam="1">  1       21 0.17029141E-01 0.23438623E+03</pdfrwt>
<pdfrwt beam="2">  1       21 0.75856010E-01 0.23438623E+03</pdfrwt>
<totfact> 0.47259651E+04</totfact>
</mgrwt>
</event>
<event>
12    1  0.1050690E-001  0.2065157E+03  0.7546771E-02  0.1144541E+00
         21   -1    0    0  503  502  0.00000000000E+00  0.00000000000E+00  0.16601777699E+03  0.16601777699E+03  0.00000000000E+00 0. -1.
         21   -1    0    0  501  503 -0.00000000000E+00 -0.00000000000E+00 -0.25778602265E+03  0.25778602265E+03  0.00000000000E+00 0. -1.
          6    2    1    2  501    0 -0.39635280525E+02  0.10377653138E+03 -0.64588773612E+02  0.21550726562E+03  0.17300620778E+03 0.  0.
         24    2    3    3    0    0 -0.27320878071E+02  0.14024060965E+03 -0.71061250570E+02  0.17619751531E+03  0.74712810799E+02 0.  0.
         -6    2    1    2    0  502  0.39635280525E+02 -0.10377653138E+03 -0.27179472048E+02  0.20829653401E+03  0.17409249970E+03 0.  0.
        -24    2    5    5    0    0  0.23657049847E+02  0.14548172530E+02 -0.26861952085E+02  0.88804985230E+02  0.79959087041E+02 0.  0.
          5    1    3    3  501    0 -0.12314402454E+02 -0.36464078262E+02  0.64724769573E+01  0.39309750308E+02  0.47000000000E+01 0. -1.
        -11    1    4    4    0    0 -0.87867497079E+01  0.18112204876E+01 -0.28971135936E+02  0.30328438923E+02  0.00000000000E+00 0.  1.
         12    1    4    4    0    0 -0.18534128363E+02  0.13842938916E+03 -0.42090114633E+02  0.14586907639E+03  0.00000000000E+00 0. -1.
         -5    1    5    5    0  502  0.15978230678E+02 -0.11832470391E+03 -0.31751996231E+00  0.11949154878E+03  0.47000000000E+01 0.  1.
         13    1    6    6    0    0 -0.46580749097E+01 -0.17203059223E+02 -0.40402895799E+02  0.44159222111E+02  0.00000000000E+00 0. -1.
        -14    1    6    6    0    0  0.28315124756E+02  0.31751231752E+02  0.13540943714E+02  0.44645763119E+02  0.00000000000E+00 0.  1.
<mgrwt>
<rscale>  2 0.20628656E+03</rscale>
<asrwt>0</asrwt>
<pdfrwt beam="1">  1       21 0.25541197E-01 0.20651567E+03</pdfrwt>
<pdfrwt beam="2">  1       21 0.39659388E-01 0.20651567E+03</pdfrwt>
<totfact> 0.88590548E+04</totfact>
</mgrwt>
</event>
<event>
12    1  0.1050690E-001  0.2322744E+03  0.7546771E-02  0.1126875E+00
         21   -1    0    0  501  502  0.00000000000E+00  0.00000000000E+00  0.40756794788E+03  0.40756794788E+03  0.00000000000E+00 0.  1.
         21   -1    0    0  502  503 -0.00000000000E+00 -0.00000000000E+00 -0.12664781463E+03  0.12664781463E+03  0.00000000000E+00 0.  1.
         -6    2    1    2    0  503  0.12960859897E+03  0.49870264768E+02  0.13806281371E+03  0.27020865677E+03  0.18618793041E+03 0.  0.
        -24    2    3    3    0    0  0.38241984433E+02  0.94378878180E+02  0.80821802151E+02  0.15347178032E+03  0.81557351799E+02 0.  0.
          6    2    1    2  501    0 -0.12960859897E+03 -0.49870264768E+02  0.14285731954E+03  0.26400710574E+03  0.17322270607E+03 0.  0.
         24    2    5    5    0    0 -0.14455167237E+03 -0.86298291694E+01  0.64894505147E+02  0.17442831696E+03  0.72417408277E+02 0.  0.
          5    1    5    5  501    0  0.14943073406E+02 -0.41240435598E+02  0.77962814392E+02  0.89578788779E+02  0.47000000000E+01 0. -1.
        -11    1    6    6    0    0 -0.12905374141E+03 -0.39971785788E+01  0.80333991757E+02  0.15206707678E+03  0.00000000000E+00 0.  1.
         12    1    6    6    0    0 -0.15497930960E+02 -0.46326505906E+01 -0.15439486609E+02  0.22361240178E+02  0.00000000000E+00 0. -1.
         -5    1    3    3    0  503  0.91366614532E+02 -0.44508613412E+02  0.57241011559E+02  0.11673687645E+03  0.47000000000E+01 0.  1.
         13    1    4    4    0    0  0.23233190565E+02  0.50991732204E+02 -0.48805498297E+01  0.56247290279E+02  0.00000000000E+00 0. -1.
        -14    1    4    4    0    0  0.15008793868E+02  0.43387145975E+02  0.85702351981E+02  0.97224490044E+02  0.00000000000E+00 0.  1.
<mgrwt>
<rscale>  2 0.22966642E+03</rscale>
<asrwt>0</asrwt>
<pdfrwt beam="1">  1       21 0.62702761E-01 0.23227436E+03</pdfrwt>
<pdfrwt beam="2">  1       21 0.19484279E-01 0.23227436E+03</pdfrwt>
<totfact> 0.56095385E+04</totfact>
</mgrwt>
</event>
<event>
12    1  0.1050690E-001  0.2106606E+03  0.7546771E-02  0.1141327E+00
         21   -1    0    0  501  502  0.00000000000E+00  0.00000000000E+00  0.49448926645E+03  0.49448926645E+03  0.00000000000E+00 0.  1.
         21   -1    0    0  502  503 -0.00000000000E+00 -0.00000000000E+00 -0.10558232378E+03  0.10558232378E+03  0.00000000000E+00 0.  1.
         -6    2    1    2    0  503 -0.32543402853E+02  0.11557646600E+03  0.75478345647E+02  0.22242706160E+03  0.17134708783E+03 0.  0.
        -24    2    3    3    0    0 -0.67371121747E+02  0.15181237412E+02  0.26937915686E+02  0.10550642498E+03  0.75077402695E+02 0.  0.
          6    2    1    2  501    0  0.32543402853E+02 -0.11557646600E+03  0.31342859703E+03  0.37764452863E+03  0.17309220665E+03 0.  0.
         24    2    5    5    0    0  0.48489314663E+02 -0.22099440840E+02  0.23711288745E+03  0.25583154137E+03  0.79922820533E+02 0.  0.
          5    1    5    5  501    0 -0.15945911810E+02 -0.93477025162E+02  0.76315709581E+02  0.12181298726E+03  0.47000000000E+01 0. -1.
        -13    1    6    6    0    0  0.25889106652E+02 -0.45892876588E+01  0.11984830962E+02  0.28895390249E+02  0.00000000000E+00 0.  1.
         14    1    6    6    0    0  0.22600208010E+02 -0.17510153181E+02  0.22512805649E+03  0.22693615112E+03  0.00000000000E+00 0. -1.
         -5    1    3    3    0  503  0.34827718894E+02  0.10039522859E+03  0.48540429961E+02  0.11692063662E+03  0.47000000000E+01 0.  1.
         11    1    4    4    0    0 -0.22106790609E+02  0.17490478030E+01  0.48704495962E+02  0.53515392983E+02  0.00000000000E+00 0. -1.
        -12    1    4    4    0    0 -0.45264331138E+02  0.13432189609E+02 -0.21766580276E+02  0.51991031995E+02  0.00000000000E+00 0.  1.
<mgrwt>
<rscale>  2 0.21030184E+03</rscale>
<asrwt>0</asrwt>
<pdfrwt beam="1">  1       21 0.76075271E-01 0.21066064E+03</pdfrwt>
<pdfrwt beam="2">  1       21 0.16243435E-01 0.21066064E+03</pdfrwt>
<totfact> 0.51779042E+04</totfact>
</mgrwt>
</event>
<event>
12    1  0.1050690E-001  0.2523826E+03  0.7546771E-02  0.1111910E+00
         21   -1    0    0  503  502  0.00000000000E+00  0.00000000000E+00  0.12192773669E+03  0.12192773669E+03  0.00000000000E+00 0.  1.
         21   -1    0    0  501  503 -0.00000000000E+00 -0.00000000000E+00 -0.63376478633E+03  0.63376478633E+03  0.00000000000E+00 0. -1.
          6    2    1    2  501    0  0.21489087443E+02  0.18148509480E+03 -0.41552079632E+03  0.48616305649E+03  0.17406425482E+03 0.  0.
         24    2    3    3    0    0 -0.31053836849E+01  0.13408515778E+03 -0.15812622357E+03  0.22324539234E+03  0.82741342000E+02 0.  0.
         -6    2    1    2    0  502 -0.21489087443E+02 -0.18148509480E+03 -0.96316253324E+02  0.26952946653E+03  0.17312045564E+03 0.  0.
        -24    2    5    5    0    0 -0.46554475320E+02 -0.14711173309E+03 -0.11327870432E+02  0.17437213948E+03  0.80424754862E+02 0.  0.
          5    1    3    3  501    0  0.24594471128E+02  0.47399937018E+02 -0.25739457275E+03  0.26291766415E+03  0.47000000000E+01 0. -1.
        -13    1    4    4    0    0 -0.24402616346E+02  0.55670969349E+02 -0.11774619773E+03  0.13251004337E+03  0.00000000000E+00 0.  1.
         14    1    4    4    0    0  0.21297232661E+02  0.78414188433E+02 -0.40380025833E+02  0.90735348971E+02  0.00000000000E+00 0. -1.
         -5    1    5    5    0  502  0.25065387878E+02 -0.34373361709E+02 -0.84988382892E+02  0.95157327049E+02  0.47000000000E+01 0.  1.
         11    1    6    6    0    0 -0.34281691683E+02 -0.52065905409E+02 -0.40327661397E+02  0.74245627241E+02  0.00000000000E+00 0. -1.
        -12    1    6    6    0    0 -0.12272783637E+02 -0.95045827682E+02  0.28999790965E+02  0.10012651224E+03  0.00000000000E+00 0.  1.
<mgrwt>
<rscale>  2 0.25221996E+03</rscale>
<asrwt>0</asrwt>
<pdfrwt beam="1">  1       21 0.18758114E-01 0.25238262E+03</pdfrwt>
<pdfrwt beam="2">  1       21 0.97502274E-01 0.25238262E+03</pdfrwt>
<totfact> 0.21935899E+04</totfact>
</mgrwt>
</event>
<event>
12    1  0.1050690E-001  0.1929588E+03  0.7546771E-02  0.1155855E+00
         21   -1    0    0  503  502  0.00000000000E+00  0.00000000000E+00  0.11689587242E+03  0.11689587242E+03  0.00000000000E+00 0.  1.
         21   -1    0    0  501  503 -0.00000000000E+00 -0.00000000000E+00 -0.63007988466E+03  0.63007988466E+03  0.00000000000E+00 0.  1.
          6    2    1    2  501    0  0.79681525420E+02  0.36241145436E+02 -0.51928565534E+03  0.55392046492E+03  0.17177812288E+03 0.  0.
         24    2    3    3    0    0  0.46061492997E+02  0.31130812217E+01 -0.48950627275E+03  0.49791442198E+03  0.78555891816E+02 0.  0.
         -6    2    1    2    0  502 -0.79681525420E+02 -0.36241145436E+02  0.61016430997E+01  0.19305529216E+03  0.17196089575E+03 0.  0.
        -24    2    5    5    0    0 -0.50963018156E+01 -0.73714344486E+02  0.29356670704E+01  0.10939341535E+03  0.80613425094E+02 0.  0.
          5    1    3    3  501    0  0.33620032423E+02  0.33128064215E+02 -0.29779382592E+02  0.56006042944E+02  0.47000000000E+01 0. -1.
        -13    1    4    4    0    0  0.44091014885E+02 -0.24005254037E+02 -0.17011580696E+03  0.17736870522E+03  0.00000000000E+00 0.  1.
         14    1    4    4    0    0  0.19704781122E+01  0.27118335259E+02 -0.31939046580E+03  0.32054571676E+03  0.00000000000E+00 0. -1.
         -5    1    5    5    0  502 -0.74585223605E+02  0.37473199049E+02  0.31659760293E+01  0.83661876810E+02  0.47000000000E+01 0.  1.
         13    1    6    6    0    0  0.22075749855E+02 -0.58492547637E+02 -0.25213533738E+02  0.67412455409E+02  0.00000000000E+00 0. -1.
        -14    1    6    6    0    0 -0.27172051671E+02 -0.15221796849E+02  0.28149200808E+02  0.41980959939E+02  0.00000000000E+00 0.  1.
<mgrwt>
<rscale>  2 0.19291812E+03</rscale>
<asrwt>0</asrwt>
<pdfrwt beam="1">  1       21 0.17983981E-01 0.19295884E+03</pdfrwt>
<pdfrwt beam="2">  1       21 0.96935366E-01 0.19295884E+03</pdfrwt>
<totfact> 0.24843923E+04</totfact>
</mgrwt>
</event>
<event>
12    1  0.1050690E-001  0.2255159E+03  0.7546771E-02  0.1129993E+00
         21   -1    0    0  501  502  0.00000000000E+00  0.00000000000E+00  0.27393326129E+03  0.27393326129E+03  0.00000000000E+00 0.  1.
         21   -1    0    0  502  503 -0.00000000000E+00 -0.00000000000E+00 -0.23648708289E+03  0.23648708289E+03  0.00000000000E+00 0.  1.
         -6    2    1    2    0  503 -0.90304891072E+02 -0.10981684478E+03 -0.10044861621E+03  0.24608650172E+03  0.17393656626E+03 0.  0.
        -24    2    3    3    0    0 -0.76207389522E+02 -0.83606034725E+02  0.36074170546E+01  0.13775601583E+03  0.78524971695E+02 0.  0.
          6    2    1    2  501    0  0.90304891072E+02  0.10981684478E+03  0.13789479462E+03  0.26433384246E+03  0.17505054453E+03 0.  0.
         24    2    5    5    0    0  0.50030877325E+02  0.21748629061E+02  0.13183982394E+02  0.10636902521E+03  0.90357404683E+02 0.  0.
          5    1    5    5  501    0  0.40274013747E+02  0.88068215720E+02  0.12471081222E+03  0.15796481725E+03  0.47000000000E+01 0. -1.
        -11    1    6    6    0    0  0.74284540742E+02  0.23222554086E+02  0.21401510497E+02  0.80718676049E+02  0.00000000000E+00 0.  1.
         12    1    6    6    0    0 -0.24253663417E+02 -0.14739250245E+01 -0.82175281028E+01  0.25650349164E+02  0.00000000000E+00 0. -1.
         -5    1    3    3    0  503 -0.14097501551E+02 -0.26210810057E+02 -0.10405603327E+03  0.10833048589E+03  0.47000000000E+01 0.  1.
         13    1    4    4    0    0 -0.21605350800E+01 -0.77368576773E+00  0.24582402166E+02  0.24689289130E+02  0.00000000000E+00 0. -1.
        -14    1    4    4    0    0 -0.74046854442E+02 -0.82832348957E+02 -0.20974985111E+02  0.11306672670E+03  0.00000000000E+00 0.  1.
<mgrwt>
<rscale>  2 0.22529966E+03</rscale>
<asrwt>0</asrwt>
<pdfrwt beam="1">  1       21 0.42143579E-01 0.22551587E+03</pdfrwt>
<pdfrwt beam="2">  1       21 0.36382628E-01 0.22551587E+03</pdfrwt>
<totfact> 0.38836947E+04</totfact>
</mgrwt>
</event>
<event>
12    1  0.1050690E-001  0.1831585E+03  0.7546771E-02  0.1165088E+00
         21   -1    0    0  503  502  0.00000000000E+00  0.00000000000E+00  0.11574921386E+03  0.11574921386E+03  0.00000000000E+00 0.  1.
         21   -1    0    0  501  503 -0.00000000000E+00 -0.00000000000E+00 -0.53809055814E+03  0.53809055814E+03  0.00000000000E+00 0.  1.
          6    2    1    2  501    0 -0.21644063354E+02 -0.52928166214E+02 -0.43454114991E+03  0.47156446451E+03  0.17400338205E+03 0.  0.
         24    2    3    3    0    0 -0.65320261278E+01 -0.85684793950E+02 -0.17909074702E+03  0.21353661976E+03  0.78357137716E+02 0.  0.
         -6    2    1    2    0  502  0.21644063354E+02  0.52928166214E+02  0.12199805630E+02  0.18227530749E+03  0.17264297323E+03 0.  0.
        -24    2    5    5    0    0 -0.28294910532E+02 -0.23704452031E+02  0.16331158255E+02  0.90593153466E+02  0.81104313799E+02 0.  0.
          5    1    3    3  501    0 -0.15112037226E+02  0.32756627735E+02 -0.25545040289E+03  0.25802784475E+03  0.47000000000E+01 0. -1.
        -13    1    4    4    0    0 -0.36282757665E+02 -0.69781473245E+02 -0.97646897687E+02  0.12538265087E+03  0.00000000000E+00 0.  1.
         14    1    4    4    0    0  0.29750731537E+02 -0.15903320705E+02 -0.81443849337E+02  0.88153968891E+02  0.00000000000E+00 0. -1.
         -5    1    5    5    0  502  0.49938973886E+02  0.76632618245E+02 -0.41313526245E+01  0.91682154023E+02  0.47000000000E+01 0.  1.
         11    1    6    6    0    0 -0.10562382391E+02 -0.53338132924E+02  0.70144666166E+01  0.54824475260E+02  0.00000000000E+00 0. -1.
        -12    1    6    6    0    0 -0.17732528141E+02  0.29633680893E+02  0.93166916383E+01  0.35768678206E+02  0.00000000000E+00 0.  1.
<mgrwt>
<rscale>  2 0.18283466E+03</rscale>
<asrwt>0</asrwt>
<pdfrwt beam="1">  1       21 0.17807572E-01 0.18315849E+03</pdfrwt>
<pdfrwt beam="2">  1       21 0.82783162E-01 0.18315849E+03</pdfrwt>
<totfact> 0.36631257E+04</totfact>
</mgrwt>
</event>
<event>
12    1  0.1050690E-001  0.1757633E+03  0.7546771E-02  0.1172485E+00
         21   -1    0    0  501  502  0.00000000000E+00  0.00000000000E+00  0.49984676785E+02  0.49984676785E+02  0.00000000000E+00 0.  1.
         21   -1    0    0  502  503 -0.00000000000E+00 -0.00000000000E+00 -0.76526330671E+03  0.76526330671E+03  0.00000000000E+00 0.  1.
         -6    2    1    2    0  503  0.13292727511E+02 -0.13152761603E+02 -0.53907645463E+03  0.56637062917E+03  0.17269213621E+03 0.  0.
        -24    2    3    3    0    0  0.46389043963E+02 -0.65567525558E+01 -0.51142580043E+03  0.52248985689E+03  0.96147630256E+02 0.  0.
          6    2    1    2  501    0 -0.13292727511E+02  0.13152761603E+02 -0.17620217530E+03  0.24887735432E+03  0.17476566932E+03 0.  0.
         24    2    5    5    0    0 -0.84283145413E+01 -0.34746210135E+02 -0.17958494526E+03  0.20038501328E+03  0.81394504599E+02 0.  0.
          5    1    5    5  501    0 -0.48644129697E+01  0.47898971738E+02  0.33827699645E+01  0.48492341042E+02  0.47000000000E+01 0. -1.
        -11    1    6    6    0    0 -0.24061119360E+02 -0.43622851283E+01 -0.84500290657E+01  0.25872185598E+02  0.00000000000E+00 0.  1.
         12    1    6    6    0    0  0.15632804818E+02 -0.30383925007E+02 -0.17113491619E+03  0.17451282768E+03  0.00000000000E+00 0. -1.
         -5    1    3    3    0  503 -0.33096316452E+02 -0.65960090476E+01 -0.27650654191E+02  0.43880772272E+02  0.47000000000E+01 0.  1.
         13    1    4    4    0    0  0.45842904233E+02  0.22018356757E+02 -0.12417363428E+03  0.13418446763E+03  0.00000000000E+00 0. -1.
        -14    1    4    4    0    0  0.54613973040E+00 -0.28575109313E+02 -0.38725216616E+03  0.38830538927E+03  0.00000000000E+00 0.  1.
<mgrwt>
<rscale>  2 0.17524559E+03</rscale>
<asrwt>0</asrwt>
<pdfrwt beam="1">  1       21 0.76899502E-02 0.17576328E+03</pdfrwt>
<pdfrwt beam="2">  1       21 0.11773282E+00 0.17576328E+03</pdfrwt>
<totfact> 0.71728952E+04</totfact>
</mgrwt>
</event>
<event>
12    1  0.1050690E-001  0.3573433E+03  0.7546771E-02  0.1059644E+00
         21   -1    0    0  503  502  0.00000000000E+00  0.00000000000E+00  0.11919097063E+03  0.11919097063E+03  0.00000000000E+00 0. -1.
         21   -1    0    0  501  503 -0.00000000000E+00 -0.00000000000E+00 -0.13765322540E+04  0.13765322540E+04  0.00000000000E+00 0.  1.
          6    2    1    2  501    0 -0.20667362932E+02  0.31183027258E+03 -0.98088572619E+03  0.10439497236E+04  0.17328865740E+03 0.  0.
         24    2    3    3    0    0  0.55690594295E+02  0.18372775246E+03 -0.56416872350E+03  0.60132579336E+03  0.80305864475E+02 0.  0.
         -6    2    1    2    0  502  0.20667362932E+02 -0.31183027258E+03 -0.27645555716E+03  0.45177350100E+03  0.17322344627E+03 0.  0.
        -24    2    5    5    0    0 -0.45667703047E+02 -0.21282132477E+03 -0.14464243755E+03  0.27400989048E+03  0.82350045308E+02 0.  0.
          5    1    3    3  501    0 -0.76357957227E+02  0.12810252012E+03 -0.41671700269E+03  0.44262393025E+03  0.47000000000E+01 0. -1.
        -11    1    4    4    0    0  0.82399039335E+01  0.14494420759E+03 -0.42937856481E+03  0.45325784191E+03  0.00000000000E+00 0.  1.
         12    1    4    4    0    0  0.47450690361E+02  0.38783544864E+02 -0.13479015869E+03  0.14806795145E+03  0.00000000000E+00 0. -1.
         -5    1    5    5    0  502  0.66335065979E+02 -0.99008947813E+02 -0.13181311961E+03  0.17776361052E+03  0.47000000000E+01 0.  1.
         11    1    6    6    0    0 -0.14847587481E+02 -0.19703631282E+03 -0.11644331695E+03  0.22935301499E+03  0.00000000000E+00 0. -1.
        -12    1    6    6    0    0 -0.30820115566E+02 -0.15785011949E+02 -0.28199120598E+02  0.44656875487E+02  0.00000000000E+00 0.  1.
<mgrwt>
<rscale>  2 0.35733537E+03</rscale>
<asrwt>0</asrwt>
<pdfrwt beam="1">  1       21 0.18337074E-01 0.35734328E+03</pdfrwt>
<pdfrwt beam="2">  1       21 0.21177418E+00 0.35734328E+03</pdfrwt>
<totfact> 0.27159408E+03</totfact>
</mgrwt>
</event>
<event>
12    1  0.1050690E-001  0.1806735E+03  0.7546771E-02  0.1167667E+00
         21   -1    0    0  503  502  0.00000000000E+00  0.00000000000E+00  0.74866415121E+02  0.74866415121E+02  0.00000000000E+00 0.  1.
         21   -1    0    0  501  503 -0.00000000000E+00 -0.00000000000E+00 -0.89720896511E+03  0.89720896511E+03  0.00000000000E+00 0.  1.
          6    2    1    2  501    0  0.24620915245E+02 -0.43308419740E+02 -0.76039500784E+03  0.78107696054E+03  0.17146090415E+03 0.  0.
         24    2    3    3    0    0 -0.37937202232E+01 -0.83687337941E+02 -0.37932766168E+03  0.39679547406E+03  0.80865384883E+02 0.  0.
         -6    2    1    2    0  502 -0.24620915245E+02  0.43308419740E+02 -0.61947542149E+02  0.19099841969E+03  0.17366948396E+03 0.  0.
        -24    2    5    5    0    0 -0.36007368906E+02 -0.28887448428E+02 -0.71153014051E+02  0.11718293744E+03  0.80858358414E+02 0.  0.
          5    1    3    3  501    0  0.28414635468E+02  0.40378918201E+02 -0.38106734616E+03  0.38428148648E+03  0.47000000000E+01 0. -1.
        -11    1    4    4    0    0  0.34443037274E+02 -0.32886644369E+02 -0.22307448612E+03  0.22810103146E+03  0.00000000000E+00 0.  1.
         12    1    4    4    0    0 -0.38236757498E+02 -0.50800693572E+02 -0.15625317556E+03  0.16869444260E+03  0.00000000000E+00 0. -1.
         -5    1    5    5    0  502  0.11386453661E+02  0.72195868168E+02  0.92054719025E+01  0.73815482254E+02  0.47000000000E+01 0.  1.
         13    1    6    6    0    0 -0.74798720464E+01 -0.44288901223E+01 -0.78427842870E+02  0.78908111692E+02  0.00000000000E+00 0. -1.
        -14    1    6    6    0    0 -0.28527496860E+02 -0.24458558306E+02  0.72748288183E+01  0.38274825745E+02  0.00000000000E+00 0.  1.
<mgrwt>
<rscale>  2 0.18014062E+03</rscale>
<asrwt>0</asrwt>
<pdfrwt beam="1">  1       21 0.11517910E-01 0.18067346E+03</pdfrwt>
<pdfrwt beam="2">  1       21 0.13803215E+00 0.18067346E+03</pdfrwt>
<totfact> 0.23614104E+04</totfact>
</mgrwt>
</event>
<event>
12    1  0.1050690E-001  0.2527404E+03  0.7546771E-02  0.1111715E+00
         21   -1    0    0  501  502  0.00000000000E+00  0.00000000000E+00  0.16061308915E+03  0.16061308915E+03  0.00000000000E+00 0. -1.
         21   -1    0    0  502  503 -0.00000000000E+00 -0.00000000000E+00 -0.47384152562E+03  0.47384152562E+03  0.00000000000E+00 0. -1.
         -6    2    1    2    0  503  0.19267342489E+02 -0.18182641609E+03 -0.28464232535E+03  0.38010273509E+03  0.17327654131E+03 0.  0.
        -24    2    3    3    0    0  0.52668734713E+02 -0.12227454531E+03 -0.10229746757E+03  0.18533668191E+03  0.78484735721E+02 0.  0.
          6    2    1    2  501    0 -0.19267342489E+02  0.18182641609E+03 -0.28586111119E+02  0.25435187968E+03  0.17448678137E+03 0.  0.
         24    2    5    5    0    0 -0.80164752800E+02  0.98297158278E+02 -0.18073845015E+02  0.15034116277E+03  0.78658009329E+02 0.  0.
          5    1    5    5  501    0  0.60897410311E+02  0.83529257817E+02 -0.10512266104E+02  0.10401071691E+03  0.47000000000E+01 0. -1.
        -13    1    6    6    0    0 -0.40603869441E+02  0.97392531881E+01  0.19805134039E+02  0.46214398196E+02  0.00000000000E+00 0.  1.
         14    1    6    6    0    0 -0.39560883359E+02  0.88557905090E+02 -0.37878979054E+02  0.10412676457E+03  0.00000000000E+00 0. -1.
         -5    1    3    3    0  503 -0.33401392224E+02 -0.59551870785E+02 -0.18234485777E+03  0.19476605318E+03  0.47000000000E+01 0.  1.
         13    1    4    4    0    0 -0.36246457694E+01 -0.77941392098E+02 -0.30137082120E+02  0.83643543551E+02  0.00000000000E+00 0. -1.
        -14    1    4    4    0    0  0.56293380482E+02 -0.44333153212E+02 -0.72160385451E+02  0.10169313835E+03  0.00000000000E+00 0.  1.
<mgrwt>
<rscale>  2 0.25253165E+03</rscale>
<asrwt>0</asrwt>
<pdfrwt beam="1">  1       21 0.24709706E-01 0.25274041E+03</pdfrwt>
<pdfrwt beam="2">  1       21 0.72898696E-01 0.25274041E+03</pdfrwt>
<totfact> 0.25425078E+04</totfact>
</mgrwt>
</event>
<event>
12    1  0.1050690E-001  0.3001501E+03  0.7546771E-02  0.1085273E+00
         21   -1    0    0  501  502  0.00000000000E+00  0.00000000000E+00  0.19282204419E+04  0.19282204419E+04  0.00000000000E+00 0. -1.
         21   -1    0    0  502  503 -0.00000000000E+00 -0.00000000000E+00 -0.22689278314E+03  0.22689278314E+03  0.00000000000E+00 0.  1.
         -6    2    1    2    0  503  0.10427879040E+03 -0.22226948801E+03 -0.11016495419E+03  0.31892272732E+03  0.17116540960E+03 0.  0.
        -24    2    3    3    0    0  0.30745175582E+02 -0.20587329156E+03 -0.10123613885E+03  0.24291061309E+03  0.73673143992E+02 0.  0.
          6    2    1    2  501    0 -0.10427879040E+03  0.22226948801E+03  0.18114926130E+04  0.18361904977E+04  0.17266228798E+03 0.  0.
         24    2    5    5    0    0 -0.13524618757E+03  0.15052776398E+03  0.11973859853E+04  0.12171146584E+04  0.81760351022E+02 0.  0.
          5    1    5    5  501    0  0.30967397175E+02  0.71741724032E+02  0.61410662768E+03  0.61907583931E+03  0.47000000000E+01 0. -1.
        -11    1    6    6    0    0 -0.13355067875E+03  0.16012489158E+03  0.11438133027E+04  0.11626627353E+04  0.00000000000E+00 0.  1.
         12    1    6    6    0    0 -0.16955088285E+01 -0.95971276037E+01  0.53572682579E+02  0.54451923080E+02  0.00000000000E+00 0. -1.
         -5    1    3    3    0  503  0.73533614817E+02 -0.16396196454E+02 -0.89288153423E+01  0.76012114230E+02  0.47000000000E+01 0.  1.
         13    1    4    4    0    0 -0.63238329702E+01  0.15086504088E+01  0.37773511390E+01  0.75189940230E+01  0.00000000000E+00 0. -1.
        -14    1    4    4    0    0  0.37069008552E+02 -0.20738194196E+03 -0.10501348999E+03  0.23539161907E+03  0.00000000000E+00 0.  1.
<mgrwt>
<rscale>  2 0.29993518E+03</rscale>
<asrwt>0</asrwt>
<pdfrwt beam="1">  1       21 0.29664929E+00 0.30015006E+03</pdfrwt>
<pdfrwt beam="2">  1       21 0.34906583E-01 0.30015006E+03</pdfrwt>
<totfact> 0.24829225E+02</totfact>
</mgrwt>
</event>
<event>
12    1  0.1050690E-001  0.1933014E+03  0.7546771E-02  0.1156103E+00
         21   -1    0    0  501  502  0.00000000000E+00  0.00000000000E+00  0.18697747752E+03  0.18697747752E+03  0.00000000000E+00 0.  1.
         21   -1    0    0  502  503 -0.00000000000E+00 -0.00000000000E+00 -0.23400082474E+03  0.23400082474E+03  0.00000000000E+00 0.  1.
         -6    2    1    2    0  503  0.76602074029E+02 -0.12664853681E+02 -0.10693944778E+03  0.21860393062E+03  0.17413602938E+03 0.  0.
        -24    2    3    3    0    0 -0.20502389023E+02 -0.28422458796E+02 -0.66553820438E+02  0.11215832122E+03  0.83197919958E+02 0.  0.
          6    2    1    2  501    0 -0.76602074029E+02  0.12664853681E+02  0.59916100552E+02  0.20237437164E+03  0.17702308021E+03 0.  0.
         24    2    5    5    0    0 -0.11037857965E+03 -0.16977343250E+02  0.13225774129E+02  0.13740061730E+03  0.78945218383E+02 0.  0.
          5    1    5    5  501    0  0.33776505619E+02  0.29642196931E+02  0.46690326423E+02  0.64973754333E+02  0.47000000000E+01 0. -1.
        -13    1    6    6    0    0 -0.10240075354E+03 -0.25424484660E+02  0.36288953306E+02  0.11157601390E+03  0.00000000000E+00 0.  1.
         14    1    6    6    0    0 -0.79778261126E+01  0.84471414099E+01 -0.23063179177E+02  0.25824603409E+02  0.00000000000E+00 0. -1.
         -5    1    3    3    0  503  0.97104463052E+02  0.15757605116E+02 -0.40385627341E+02  0.10644560939E+03  0.47000000000E+01 0.  1.
         11    1    4    4    0    0 -0.24909710472E+01  0.45040300611E+01 -0.73762152943E+02  0.73941506817E+02  0.00000000000E+00 0. -1.
        -12    1    4    4    0    0 -0.18011417976E+02 -0.32926488858E+02  0.72083325052E+01  0.38216814408E+02  0.00000000000E+00 0.  1.
<mgrwt>
<rscale>  2 0.19263793E+03</rscale>
<asrwt>0</asrwt>
<pdfrwt beam="1">  1       21 0.28765766E-01 0.19330144E+03</pdfrwt>
<pdfrwt beam="2">  1       21 0.36000127E-01 0.19330144E+03</pdfrwt>
<totfact> 0.86021107E+04</totfact>
</mgrwt>
</event>
<event>
12    1  0.1050690E-001  0.2046823E+03  0.7546771E-02  0.1145852E+00
         21   -1    0    0  503  502  0.00000000000E+00  0.00000000000E+00  0.26848165509E+03  0.26848165509E+03  0.00000000000E+00 0. -1.
         21   -1    0    0  501  503 -0.00000000000E+00 -0.00000000000E+00 -0.19170425519E+03  0.19170425519E+03  0.00000000000E+00 0. -1.
          6    2    1    2  501    0  0.51634831269E+02 -0.96092329268E+02 -0.60869547304E+02  0.21354148136E+03  0.17319056247E+03 0.  0.
         24    2    3    3    0    0  0.56295612377E+02 -0.99559619094E+01  0.99651598583E+01  0.10182379073E+03  0.83668768348E+02 0.  0.
         -6    2    1    2    0  502 -0.51634831269E+02  0.96092329268E+02  0.13764694720E+03  0.24664442891E+03  0.17316726219E+03 0.  0.
        -24    2    5    5    0    0 -0.92676434068E+02  0.32267704407E+02  0.86234680131E+02  0.15486585241E+03  0.83167818329E+02 0.  0.
          5    1    3    3  501    0 -0.46607811088E+01 -0.86136367359E+02 -0.70834707162E+02  0.11171769064E+03  0.47000000000E+01 0. -1.
        -13    1    4    4    0    0 -0.15367967476E+02  0.57541762750E+01 -0.17029884470E+02  0.23649565197E+02  0.00000000000E+00 0.  1.
         14    1    4    4    0    0  0.71663579854E+02 -0.15710138184E+02  0.26995044328E+02  0.78174225532E+02  0.00000000000E+00 0. -1.
         -5    1    5    5    0  502  0.41041602799E+02  0.63824624861E+02  0.51412267073E+02  0.91778576501E+02  0.47000000000E+01 0.  1.
         11    1    6    6    0    0 -0.48596243152E+02 -0.15420666235E+02  0.72265082821E+02  0.88440002209E+02  0.00000000000E+00 0. -1.
        -12    1    6    6    0    0 -0.44080190916E+02  0.47688370642E+02  0.13969597309E+02  0.66425850199E+02  0.00000000000E+00 0.  1.
<mgrwt>
<rscale>  2 0.20467742E+03</rscale>
<asrwt>0</asrwt>
<pdfrwt beam="1">  1       21 0.41304870E-01 0.20468235E+03</pdfrwt>
<pdfrwt beam="2">  1       21 0.29492962E-01 0.20468235E+03</pdfrwt>
<totfact> 0.61834040E+04</totfact>
</mgrwt>
</event>
<event>
12    1  0.1050690E-001  0.1954114E+03  0.7546771E-02  0.1153762E+00
         21   -1    0    0  503  502  0.00000000000E+00  0.00000000000E+00  0.14523634037E+03  0.14523634037E+03  0.00000000000E+00 0.  1.
         21   -1    0    0  501  503 -0.00000000000E+00 -0.00000000000E+00 -0.31931548560E+03  0.31931548560E+03  0.00000000000E+00 0. -1.
          6    2    1    2  501    0  0.86658212960E+02  0.24159702738E+02 -0.18523016629E+03  0.26925051080E+03  0.17347128280E+03 0.  0.
         24    2    3    3    0    0  0.21284733959E+02 -0.40187248015E+02 -0.45277718720E+02  0.10184979573E+03  0.79090165474E+02 0.  0.
         -6    2    1    2    0  502 -0.86658212960E+02 -0.24159702738E+02  0.11151021053E+02  0.19530131516E+03  0.17298821152E+03 0.  0.
        -24    2    5    5    0    0 -0.21280422769E+02  0.24705683404E+02 -0.42737046889E+02  0.97382495319E+02  0.81201404126E+02 0.  0.
          5    1    3    3  501    0  0.65373479000E+02  0.64346950753E+02 -0.13995244757E+03  0.16740071508E+03  0.47000000000E+01 0. -1.
        -13    1    4    4    0    0  0.24479997978E+02 -0.28555083998E+02 -0.67095873766E+02  0.76918914446E+02  0.00000000000E+00 0.  1.
         14    1    4    4    0    0 -0.31952640189E+01 -0.11632164017E+02  0.21818155046E+02  0.24930881282E+02  0.00000000000E+00 0. -1.
         -5    1    5    5    0  502 -0.65377790190E+02 -0.48865386142E+02  0.53888067941E+02  0.97918819843E+02  0.47000000000E+01 0.  1.
         13    1    6    6    0    0 -0.32023198608E+02 -0.20355335656E+01 -0.56860209757E+02  0.65289448609E+02  0.00000000000E+00 0. -1.
        -14    1    6    6    0    0  0.10742775839E+02  0.26741216970E+02  0.14123162868E+02  0.32093046710E+02  0.00000000000E+00 0.  1.
<mgrwt>
<rscale>  2 0.19530416E+03</rscale>
<asrwt>0</asrwt>
<pdfrwt beam="1">  1       21 0.22344052E-01 0.19541142E+03</pdfrwt>
<pdfrwt beam="2">  1       21 0.49125459E-01 0.19541142E+03</pdfrwt>
<totfact> 0.74017841E+04</totfact>
</mgrwt>
</event>
<event>
12    1  0.1050690E-001  0.1996326E+03  0.7546771E-02  0.1150084E+00
         21   -1    0    0  501  502  0.00000000000E+00  0.00000000000E+00  0.96485452322E+03  0.96485452322E+03  0.00000000000E+00 0. -1.
         21   -1    0    0  502  503 -0.00000000000E+00 -0.00000000000E+00 -0.48450828749E+02  0.48450828749E+02  0.00000000000E+00 0.  1.
         -6    2    1    2    0  503 -0.55608969132E+02 -0.82172112349E+02  0.26300698487E+03  0.33009203287E+03  0.17304179430E+03 0.  0.
        -24    2    3    3    0    0 -0.64317039110E+02  0.53584907446E+01  0.17467436518E+03  0.20534357131E+03  0.86541628603E+02 0.  0.
          6    2    1    2  501    0  0.55608969132E+02  0.82172112349E+02  0.65339670959E+03  0.68321331910E+03  0.17322980629E+03 0.  0.
         24    2    5    5    0    0 -0.24786023445E+02  0.53816962486E+01  0.23023953555E+03  0.24566994207E+03  0.81854548399E+02 0.  0.
          5    1    5    5  501    0  0.80394992578E+02  0.76790416100E+02  0.42315717405E+03  0.43754337703E+03  0.47000000000E+01 0. -1.
        -11    1    6    6    0    0  0.28376516533E+02  0.12906112051E+02  0.10159730643E+03  0.10627232515E+03  0.00000000000E+00 0.  1.
         12    1    6    6    0    0 -0.53162539978E+02 -0.75244158027E+01  0.12864222912E+03  0.13939761692E+03  0.00000000000E+00 0. -1.
         -5    1    3    3    0  503  0.87080699775E+01 -0.87530603093E+02  0.88332619687E+02  0.12474846156E+03  0.47000000000E+01 0.  1.
         11    1    4    4    0    0  0.83594645890E+01  0.25448458320E+02  0.79675681154E+02  0.84057830370E+02  0.00000000000E+00 0. -1.
        -12    1    4    4    0    0 -0.72676503699E+02 -0.20089967575E+02  0.94998684030E+02  0.12128574094E+03  0.00000000000E+00 0.  1.
<mgrwt>
<rscale>  2 0.19959182E+03</rscale>
<asrwt>0</asrwt>
<pdfrwt beam="1">  1       21 0.14843914E+00 0.19963261E+03</pdfrwt>
<pdfrwt beam="2">  1       21 0.74539743E-02 0.19963261E+03</pdfrwt>
<totfact> 0.41514963E+04</totfact>
</mgrwt>
</event>
<event>
12    1  0.1050690E-001  0.2210644E+03  0.7546771E-02  0.1133464E+00
         21   -1    0    0  503  502  0.00000000000E+00  0.00000000000E+00  0.63313154356E+03  0.63313154356E+03  0.00000000000E+00 0.  1.
         21   -1    0    0  501  503 -0.00000000000E+00 -0.00000000000E+00 -0.76493977006E+02  0.76493977006E+02  0.00000000000E+00 0. -1.
          6    2    1    2  501    0 -0.13384933417E+03  0.14106586323E+02  0.27755251372E+03  0.35483075812E+03  0.17537054769E+03 0.  0.
         24    2    3    3    0    0 -0.10354136882E+03 -0.11401695211E+02  0.28504471600E+03  0.31424174131E+03  0.81526487403E+02 0.  0.
         -6    2    1    2    0  502  0.13384933417E+03 -0.14106586323E+02  0.27908505284E+03  0.35479476245E+03  0.17284737981E+03 0.  0.
        -24    2    5    5    0    0  0.58501921131E+02 -0.28659517800E+02  0.53625869731E+02  0.11658696721E+03  0.80454610074E+02 0.  0.
          5    1    3    3  501    0 -0.30307965357E+02  0.25508281534E+02 -0.74922022809E+01  0.40589016814E+02  0.47000000000E+01 0. -1.
        -13    1    4    4    0    0 -0.10072103173E+03 -0.46192778891E+01  0.16090864151E+03  0.18988853276E+03  0.00000000000E+00 0.  1.
         14    1    4    4    0    0 -0.28203370905E+01 -0.67824173216E+01  0.12413607449E+03  0.12435320855E+03  0.00000000000E+00 0. -1.
         -5    1    5    5    0  502  0.75347413042E+02  0.14552931477E+02  0.22545918310E+03  0.23820779524E+03  0.47000000000E+01 0.  1.
         11    1    6    6    0    0  0.23631860733E+02  0.18567040975E+02 -0.83798847436E+01  0.31199716675E+02  0.00000000000E+00 0. -1.
        -12    1    6    6    0    0  0.34870060398E+02 -0.47226558775E+02  0.62005754475E+02  0.85387250535E+02  0.00000000000E+00 0.  1.
<mgrwt>
<rscale>  2 0.22056364E+03</rscale>
<asrwt>0</asrwt>
<pdfrwt beam="1">  1       21 0.97404850E-01 0.22106440E+03</pdfrwt>
<pdfrwt beam="2">  1       21 0.11768305E-01 0.22106440E+03</pdfrwt>
<totfact> 0.52345392E+04</totfact>
</mgrwt>
</event>
<event>
12    1  0.1050690E-001  0.2231590E+03  0.7546771E-02  0.1131812E+00
         21   -1    0    0  503  502  0.00000000000E+00  0.00000000000E+00  0.33907091144E+03  0.33907091144E+03  0.00000000000E+00 0.  1.
         21   -1    0    0  501  503 -0.00000000000E+00 -0.00000000000E+00 -0.16573303476E+03  0.16573303476E+03  0.00000000000E+00 0.  1.
          6    2    1    2  501    0  0.14012596423E+03  0.70578195354E+01 -0.82157740261E+00  0.22172898066E+03  0.17169148846E+03 0.  0.
         24    2    3    3    0    0  0.54315989332E+02  0.18690318420E+02 -0.61719454451E+02  0.11576055022E+03  0.79319980016E+02 0.  0.
         -6    2    1    2    0  502 -0.14012596423E+03 -0.70578195354E+01  0.17415945409E+03  0.28307496553E+03  0.17353622676E+03 0.  0.
        -24    2    5    5    0    0 -0.16391593943E+02 -0.40967577353E+02  0.53211769222E+02  0.10669328129E+03  0.81270764372E+02 0.  0.
          5    1    3    3  501    0  0.85809974894E+02 -0.11632498885E+02  0.60897877049E+02  0.10596843044E+03  0.47000000000E+01 0. -1.
        -13    1    4    4    0    0  0.18224164817E+02 -0.12908625149E+02 -0.63951415251E+02  0.67738735588E+02  0.00000000000E+00 0.  1.
         14    1    4    4    0    0  0.36091824515E+02  0.31598943570E+02  0.22319607990E+01  0.48021814632E+02  0.00000000000E+00 0. -1.
         -5    1    5    5    0  502 -0.12373437028E+03  0.33909757817E+02  0.12094768486E+03  0.17638168425E+03  0.47000000000E+01 0.  1.
         11    1    6    6    0    0 -0.47541722230E+02 -0.36367036370E+02  0.26745631434E+02  0.65559938131E+02  0.00000000000E+00 0. -1.
        -12    1    6    6    0    0  0.31150128287E+02 -0.46005409825E+01  0.26466137788E+02  0.41133343154E+02  0.00000000000E+00 0.  1.
<mgrwt>
<rscale>  2 0.22280022E+03</rscale>
<asrwt>0</asrwt>
<pdfrwt beam="1">  1       21 0.52164755E-01 0.22315896E+03</pdfrwt>
<pdfrwt beam="2">  1       21 0.25497390E-01 0.22315896E+03</pdfrwt>
<totfact> 0.50140953E+04</totfact>
</mgrwt>
</event>
<event>
12    1  0.1050690E-001  0.2002295E+03  0.7546771E-02  0.1149693E+00
         21   -1    0    0  503  502  0.00000000000E+00  0.00000000000E+00  0.48724586978E+03  0.48724586978E+03  0.00000000000E+00 0.  1.
         21   -1    0    0  501  503 -0.00000000000E+00 -0.00000000000E+00 -0.10300062560E+03  0.10300062560E+03  0.00000000000E+00 0.  1.
          6    2    1    2  501    0 -0.39901359375E+02  0.93854710866E+02  0.58579127941E+02  0.20795045361E+03  0.17149650636E+03 0.  0.
         24    2    3    3    0    0 -0.13312258475E+02  0.12087190982E+03  0.95533139058E+01  0.14580119965E+03  0.79871704643E+02 0.  0.
         -6    2    1    2    0  502  0.39901359375E+02 -0.93854710866E+02  0.32566611623E+03  0.38229604177E+03  0.17231082107E+03 0.  0.
        -24    2    5    5    0    0 -0.14880936971E+02 -0.33599178574E+02  0.71922763532E+02  0.11576347677E+03  0.82933416388E+02 0.  0.
          5    1    3    3  501    0 -0.26589100900E+02 -0.27017198954E+02  0.49025814036E+02  0.62149253961E+02  0.47000000000E+01 0. -1.
        -13    1    4    4    0    0  0.28249252137E+02  0.15532092803E+02  0.14880698579E+01  0.32271977086E+02  0.00000000000E+00 0.  1.
         14    1    4    4    0    0 -0.41561510613E+02  0.10533981702E+03  0.80652440480E+01  0.11352922256E+03  0.00000000000E+00 0. -1.
         -5    1    5    5    0  502  0.54782296346E+02 -0.60255532292E+02  0.25374335270E+03  0.26653256500E+03  0.47000000000E+01 0.  1.
         11    1    6    6    0    0  0.11817513426E+02  0.23265570198E+02  0.32165702257E+02  0.41419473462E+02  0.00000000000E+00 0. -1.
        -12    1    6    6    0    0 -0.26698450397E+02 -0.56864748772E+02  0.39757061275E+02  0.74344003307E+02  0.00000000000E+00 0.  1.
<mgrwt>
<rscale>  2 0.20005416E+03</rscale>
<asrwt>0</asrwt>
<pdfrwt beam="1">  1       21 0.74960902E-01 0.20022948E+03</pdfrwt>
<pdfrwt beam="2">  1       21 0.15846250E-01 0.20022948E+03</pdfrwt>
<totfact> 0.56284949E+04</totfact>
</mgrwt>
</event>
<event>
12    1  0.1050690E-001  0.1928177E+03  0.7546771E-02  0.1156063E+00
         21   -1    0    0  501  502  0.00000000000E+00  0.00000000000E+00  0.79100835304E+02  0.79100835304E+02  0.00000000000E+00 0. -1.
         21   -1    0    0  502  503 -0.00000000000E+00 -0.00000000000E+00 -0.57818899705E+03  0.57818899705E+03  0.00000000000E+00 0. -1.
         -6    2    1    2    0  503 -0.68390198390E+02  0.48384851106E+02 -0.39226977545E+03  0.43686109228E+03  0.17307144237E+03 0.  0.
        -24    2    3    3    0    0 -0.62895168616E+01 -0.31986063891E+02 -0.23430226238E+03  0.24899996323E+03  0.77722359881E+02 0.  0.
          6    2    1    2  501    0  0.68390198390E+02 -0.48384851106E+02 -0.10681838629E+03  0.22042874007E+03  0.17366735083E+03 0.  0.
         24    2    5    5    0    0 -0.15449110525E+02 -0.11450512051E+02 -0.98222965602E+02  0.12829217633E+03  0.80257973396E+02 0.  0.
          5    1    5    5  501    0  0.83839308915E+02 -0.36934339055E+02 -0.85954206898E+01  0.92136563739E+02  0.47000000000E+01 0. -1.
        -13    1    6    6    0    0 -0.82598729029E+00 -0.19462586129E+02 -0.10747293757E+03  0.10922411283E+03  0.00000000000E+00 0.  1.
         14    1    6    6    0    0 -0.14623123235E+02  0.80120740776E+01  0.92499719687E+01  0.19068063498E+02  0.00000000000E+00 0. -1.
         -5    1    3    3    0  503 -0.62100681528E+02  0.80370914997E+02 -0.15796751307E+03  0.18786112906E+03  0.47000000000E+01 0.  1.
         11    1    4    4    0    0 -0.14617977206E+02 -0.38976834178E+02 -0.23445847134E+03  0.23812528980E+03  0.00000000000E+00 0. -1.
        -12    1    4    4    0    0  0.83284603446E+01  0.69907702872E+01  0.15620895841E+00  0.10874673428E+02  0.00000000000E+00 0.  1.
<mgrwt>
<rscale>  2 0.19268341E+03</rscale>
<asrwt>0</asrwt>
<pdfrwt beam="1">  1       21 0.12169359E-01 0.19281769E+03</pdfrwt>
<pdfrwt beam="2">  1       21 0.88952155E-01 0.19281769E+03</pdfrwt>
<totfact> 0.61772024E+04</totfact>
</mgrwt>
</event>
<event>
12    1  0.1050690E-001  0.1917706E+03  0.7546771E-02  0.1157503E+00
         21   -1    0    0  501  502  0.00000000000E+00  0.00000000000E+00  0.17068204563E+03  0.17068204563E+03  0.00000000000E+00 0.  1.
         21   -1    0    0  502  503 -0.00000000000E+00 -0.00000000000E+00 -0.21549501254E+03  0.21549501254E+03  0.00000000000E+00 0.  1.
         -6    2    1    2    0  503  0.42400964481E+01  0.82069002623E+02 -0.45652827294E+02  0.19440465968E+03  0.17016371956E+03 0.  0.
        -24    2    3    3    0    0 -0.55836052850E+02  0.51505394145E+02  0.10258093976E+01  0.11228119774E+03  0.82677352743E+02 0.  0.
          6    2    1    2  501    0 -0.42400964481E+01 -0.82069002623E+02  0.83986038506E+00  0.19177239849E+03  0.17327044713E+03 0.  0.
         24    2    5    5    0    0  0.64853007544E+02 -0.48602985793E+02 -0.58509611714E+01  0.11456690390E+03  0.80766199042E+02 0.  0.
          5    1    5    5  501    0 -0.69093103992E+02 -0.33466016830E+02  0.66908215565E+01  0.77205494589E+02  0.47000000000E+01 0. -1.
        -13    1    6    6    0    0  0.62675263700E+02 -0.42671943053E+02  0.27475131100E+02  0.80647171263E+02  0.00000000000E+00 0.  1.
         14    1    6    6    0    0  0.21777438440E+01 -0.59310427400E+01 -0.33326092272E+02  0.33919732639E+02  0.00000000000E+00 0. -1.
         -5    1    3    3    0  503  0.60076149299E+02  0.30563608479E+02 -0.46678636692E+02  0.82123461941E+02  0.47000000000E+01 0.  1.
         11    1    4    4    0    0  0.13121934412E+02  0.36210589360E+02  0.12979430641E+02  0.40643050627E+02  0.00000000000E+00 0. -1.
        -12    1    4    4    0    0 -0.68957987262E+02  0.15294804785E+02 -0.11953621243E+02  0.71638147111E+02  0.00000000000E+00 0.  1.
<mgrwt>
<rscale>  2 0.19106610E+03</rscale>
<asrwt>0</asrwt>
<pdfrwt beam="1">  1       21 0.26258776E-01 0.19177056E+03</pdfrwt>
<pdfrwt beam="2">  1       21 0.33153079E-01 0.19177056E+03</pdfrwt>
<totfact> 0.12082598E+05</totfact>
</mgrwt>
</event>
<event>
12    1  0.1050690E-001  0.2363963E+03  0.7546771E-02  0.1123674E+00
         21   -1    0    0  501  502  0.00000000000E+00  0.00000000000E+00  0.12939974413E+03  0.12939974413E+03  0.00000000000E+00 0.  1.
         21   -1    0    0  502  503 -0.00000000000E+00 -0.00000000000E+00 -0.47735848226E+03  0.47735848226E+03  0.00000000000E+00 0.  1.
         -6    2    1    2    0  503  0.10696565073E+03  0.11507462066E+03 -0.27941837024E+03  0.36062613730E+03  0.16520522547E+03 0.  0.
        -24    2    3    3    0    0  0.43407392753E+02  0.13324867323E+03 -0.20351164484E+03  0.25985972770E+03  0.80440523549E+02 0.  0.
          6    2    1    2  501    0 -0.10696565073E+03 -0.11507462066E+03 -0.68540367893E+02  0.24613208910E+03  0.17663353163E+03 0.  0.
         24    2    5    5    0    0 -0.41363266601E+02 -0.11646761295E+03 -0.93994297624E+02  0.17559411514E+03  0.81992320353E+02 0.  0.
          5    1    5    5  501    0 -0.65602384127E+02  0.13929922950E+01  0.25453929731E+02  0.70537973953E+02  0.47000000000E+01 0. -1.
        -13    1    6    6    0    0 -0.42851038889E+02 -0.22100551702E+02 -0.99761082307E+01  0.49235847254E+02  0.00000000000E+00 0.  1.
         14    1    6    6    0    0  0.14877722875E+01 -0.94367061248E+02 -0.84018189393E+02  0.12635826789E+03  0.00000000000E+00 0. -1.
         -5    1    3    3    0  503  0.63558257976E+02 -0.18174052579E+02 -0.75906725394E+02  0.10076640960E+03  0.47000000000E+01 0.  1.
         11    1    4    4    0    0  0.25087850848E+02  0.56829639737E+01 -0.10513925809E+02  0.27789188106E+02  0.00000000000E+00 0. -1.
        -12    1    4    4    0    0  0.18319541906E+02  0.12756570926E+03 -0.19299771903E+03  0.23207053959E+03  0.00000000000E+00 0.  1.
<mgrwt>
<rscale>  2 0.23426452E+03</rscale>
<asrwt>0</asrwt>
<pdfrwt beam="1">  1       21 0.19907653E-01 0.23639633E+03</pdfrwt>
<pdfrwt beam="2">  1       21 0.73439767E-01 0.23639633E+03</pdfrwt>
<totfact> 0.37961577E+04</totfact>
</mgrwt>
</event>
<event>
12    1  0.1050690E-001  0.2198509E+03  0.7546771E-02  0.1135550E+00
         21   -1    0    0  501  502  0.00000000000E+00  0.00000000000E+00  0.26538344900E+03  0.26538344900E+03  0.00000000000E+00 0.  1.
         21   -1    0    0  502  503 -0.00000000000E+00 -0.00000000000E+00 -0.18352415344E+03  0.18352415344E+03  0.00000000000E+00 0. -1.
         -6    2    1    2    0  503 -0.65924297192E+02 -0.10387748117E+03  0.87339161047E+02  0.22898846357E+03  0.17225284711E+03 0.  0.
        -24    2    3    3    0    0 -0.17698706229E+01 -0.36709257728E+01 -0.32022616246E+01  0.79399080879E+02  0.79229738273E+02 0.  0.
          6    2    1    2  501    0  0.65924297192E+02  0.10387748117E+03 -0.54798654811E+01  0.21991913887E+03  0.18220278445E+03 0.  0.
         24    2    5    5    0    0 -0.20930751374E+02  0.72510899403E+02  0.39810209517E+02  0.11695825889E+03  0.79990341011E+02 0.  0.
          5    1    5    5  501    0  0.86855048566E+02  0.31366581768E+02 -0.45290074998E+02  0.10296087998E+03  0.47000000000E+01 0. -1.
        -11    1    6    6    0    0 -0.17147159184E+02  0.18629663609E+02  0.55254667153E+02  0.60779664992E+02  0.00000000000E+00 0.  1.
         12    1    6    6    0    0 -0.37835921906E+01  0.53881235794E+02 -0.15444457636E+02  0.56178593897E+02  0.00000000000E+00 0. -1.
         -5    1    3    3    0  503 -0.64154426569E+02 -0.10020655540E+03  0.90541422672E+02  0.14958938269E+03  0.47000000000E+01 0.  1.
         13    1    4    4    0    0 -0.22780050086E+02 -0.24754155961E+02 -0.25496370134E+02  0.42210944189E+02  0.00000000000E+00 0. -1.
        -14    1    4    4    0    0  0.21010179463E+02  0.21083230188E+02  0.22294108510E+02  0.37188136690E+02  0.00000000000E+00 0.  1.
<mgrwt>
<rscale>  2 0.21777853E+03</rscale>
<asrwt>0</asrwt>
<pdfrwt beam="1">  1       21 0.40828223E-01 0.21985086E+03</pdfrwt>
<pdfrwt beam="2">  1       21 0.28234485E-01 0.21985086E+03</pdfrwt>
<totfact> 0.68462276E+04</totfact>
</mgrwt>
</event>
<event>
12    1  0.1050690E-001  0.1767079E+03  0.7546771E-02  0.1172128E+00
         21   -1    0    0  503  502  0.00000000000E+00  0.00000000000E+00  0.52980076670E+03  0.52980076670E+03  0.00000000000E+00 0. -1.
         21   -1    0    0  501  503 -0.00000000000E+00 -0.00000000000E+00 -0.19673148765E+03  0.19673148765E+03  0.00000000000E+00 0. -1.
          6    2    1    2  501    0 -0.16375713732E+02 -0.93618496668E+01 -0.13968613490E+03  0.22183100588E+03  0.17129206245E+03 0.  0.
         24    2    3    3    0    0  0.51368656545E+01  0.40514965673E+02 -0.22733629432E+02  0.92794319956E+02  0.80163071777E+02 0.  0.
         -6    2    1    2    0  502  0.16375713732E+02  0.93618496668E+01  0.47275541394E+03  0.50470124847E+03  0.17569820877E+03 0.  0.
        -24    2    5    5    0    0 -0.39949903581E+02  0.57102114235E+02  0.28189161381E+03  0.29999954299E+03  0.75367085719E+02 0.  0.
          5    1    3    3  501    0 -0.21512579387E+02 -0.49876815339E+02 -0.11695250546E+03  0.12903668593E+03  0.47000000000E+01 0. -1.
        -11    1    4    4    0    0  0.17988163032E+02 -0.12550390294E+02  0.14869553038E+02  0.26498866265E+02  0.00000000000E+00 0.  1.
         12    1    4    4    0    0 -0.12851297378E+02  0.53065355967E+02 -0.37603182469E+02  0.66295453690E+02  0.00000000000E+00 0. -1.
         -5    1    5    5    0  502  0.56325617314E+02 -0.47740264568E+02  0.19086380013E+03  0.20470170548E+03  0.47000000000E+01 0.  1.
         13    1    6    6    0    0 -0.16535105993E+02  0.48726643046E+02  0.26497149711E+03  0.26992145108E+03  0.00000000000E+00 0. -1.
        -14    1    6    6    0    0 -0.23414797588E+02  0.83754711889E+01  0.16920116705E+02  0.30078091912E+02  0.00000000000E+00 0.  1.
<mgrwt>
<rscale>  2 0.17560245E+03</rscale>
<asrwt>0</asrwt>
<pdfrwt beam="1">  1       21 0.81507810E-01 0.17670786E+03</pdfrwt>
<pdfrwt beam="2">  1       21 0.30266383E-01 0.17670786E+03</pdfrwt>
<totfact> 0.13955224E+04</totfact>
</mgrwt>
</event>
<event>
12    1  0.1050690E-001  0.1972513E+03  0.7546771E-02  0.1153432E+00
         21   -1    0    0  503  502  0.00000000000E+00  0.00000000000E+00  0.13745727740E+03  0.13745727740E+03  0.00000000000E+00 0. -1.
         21   -1    0    0  501  503 -0.00000000000E+00 -0.00000000000E+00 -0.87713543520E+03  0.87713543520E+03  0.00000000000E+00 0. -1.
          6    2    1    2  501    0  0.27100042858E+02  0.90446321938E+02 -0.78855932719E+03  0.81137499140E+03  0.16609820796E+03 0.  0.
         24    2    3    3    0    0 -0.13719726596E+02  0.30933895718E+02 -0.64205595839E+03  0.64799411882E+03  0.80717950438E+02 0.  0.
         -6    2    1    2    0  502 -0.27100042858E+02 -0.90446321938E+02  0.48881169394E+02  0.20321772121E+03  0.17318523037E+03 0.  0.
        -24    2    5    5    0    0 -0.52506645009E+02 -0.11710480580E+03  0.15529819370E+02  0.15331208282E+03  0.82419270415E+02 0.  0.
          5    1    3    3  501    0  0.40819769455E+02  0.59512426219E+02 -0.14650336880E+03  0.16338087257E+03  0.47000000000E+01 0. -1.
        -11    1    4    4    0    0  0.13136080158E+02  0.19821122996E+02 -0.51513570150E+02  0.56736949410E+02  0.00000000000E+00 0.  1.
         12    1    4    4    0    0 -0.26855806755E+02  0.11112772722E+02 -0.59054238824E+03  0.59125716941E+03  0.00000000000E+00 0. -1.
         -5    1    5    5    0  502  0.25406602151E+02  0.26658483867E+02  0.33351350024E+02  0.49905638392E+02  0.47000000000E+01 0.  1.
         13    1    6    6    0    0 -0.16055341485E+02 -0.58271531990E+00 -0.20472689180E+02  0.26023922641E+02  0.00000000000E+00 0. -1.
        -14    1    6    6    0    0 -0.36451303524E+02 -0.11652209048E+03  0.36002508550E+02  0.12728816018E+03  0.00000000000E+00 0.  1.
<mgrwt>
<rscale>  2 0.19568467E+03</rscale>
<asrwt>0</asrwt>
<pdfrwt beam="1">  1       21 0.21147274E-01 0.19725130E+03</pdfrwt>
<pdfrwt beam="2">  1       21 0.13494391E+00 0.19725130E+03</pdfrwt>
<totfact> 0.81484306E+03</totfact>
</mgrwt>
</event>
<event>
12    1  0.1050690E-001  0.2872722E+03  0.7546771E-02  0.1091974E+00
         21   -1    0    0  501  502  0.00000000000E+00  0.00000000000E+00  0.70827618537E+03  0.70827618537E+03  0.00000000000E+00 0. -1.
         21   -1    0    0  502  503 -0.00000000000E+00 -0.00000000000E+00 -0.57946150445E+03  0.57946150445E+03  0.00000000000E+00 0.  1.
         -6    2    1    2    0  503  0.21664286087E+03  0.73482080288E+02 -0.51143087333E+03  0.58658918011E+03  0.17375725232E+03 0.  0.
        -24    2    3    3    0    0  0.93968966470E+02 -0.15239047454E+02 -0.14875591323E+03  0.19355541622E+03  0.79202160315E+02 0.  0.
          6    2    1    2  501    0 -0.21664286087E+03 -0.73482080288E+02  0.64024555425E+03  0.70114850971E+03  0.17135086122E+03 0.  0.
         24    2    5    5    0    0 -0.35358894072E+02 -0.57713601435E+02  0.20440530185E+03  0.22882305290E+03  0.77442565370E+02 0.  0.
          5    1    5    5  501    0 -0.18128396680E+03 -0.15768478854E+02  0.43584025240E+03  0.47232545681E+03  0.47000000000E+01 0. -1.
        -11    1    6    6    0    0 -0.41102218811E+02 -0.13719558091E+02  0.41554322496E+02  0.60036492098E+02  0.00000000000E+00 0.  1.
         12    1    6    6    0    0  0.57433247381E+01 -0.43994043344E+02  0.16285097936E+03  0.16878656080E+03  0.00000000000E+00 0. -1.
         -5    1    3    3    0  503  0.12267389440E+03  0.88721127743E+02 -0.36267496010E+03  0.39303376389E+03  0.47000000000E+01 0.  1.
         11    1    4    4    0    0  0.47857144519E+02 -0.29531024263E+02 -0.13021931719E+03  0.14184307613E+03  0.00000000000E+00 0. -1.
        -12    1    4    4    0    0  0.46111821952E+02  0.14291976809E+02 -0.18536596041E+02  0.51712340090E+02  0.00000000000E+00 0.  1.
<mgrwt>
<rscale>  2 0.28690926E+03</rscale>
<asrwt>0</asrwt>
<pdfrwt beam="1">  1       21 0.10896557E+00 0.28727222E+03</pdfrwt>
<pdfrwt beam="2">  1       21 0.89147924E-01 0.28727222E+03</pdfrwt>
<totfact> 0.66027465E+02</totfact>
</mgrwt>
</event>
<event>
12    1  0.1050690E-001  0.2418404E+03  0.7546771E-02  0.1119187E+00
         21   -1    0    0  503  502  0.00000000000E+00  0.00000000000E+00  0.15748941927E+03  0.15748941927E+03  0.00000000000E+00 0.  1.
         21   -1    0    0  501  503 -0.00000000000E+00 -0.00000000000E+00 -0.39540260691E+03  0.39540260691E+03  0.00000000000E+00 0. -1.
          6    2    1    2  501    0 -0.15958154350E+03  0.43255744981E+02 -0.19384913422E+03  0.30707010869E+03  0.17139788888E+03 0.  0.
         24    2    3    3    0    0 -0.10044607064E+02  0.34382432789E+02 -0.53416480931E+02  0.10168400609E+03  0.78760845887E+02 0.  0.
         -6    2    1    2    0  502  0.15958154350E+03 -0.43255744981E+02 -0.44064053419E+02  0.24582191750E+03  0.17649205596E+03 0.  0.
        -24    2    5    5    0    0  0.99203825402E+02  0.21792560923E+01 -0.90074350354E+02  0.15722820672E+03  0.82226347754E+02 0.  0.
          5    1    3    3  501    0 -0.14953693644E+03  0.88733121919E+01 -0.14043265329E+03  0.20538610260E+03  0.47000000000E+01 0. -1.
        -13    1    4    4    0    0  0.29418932733E+00  0.10579798693E+02  0.20649162626E+02  0.23203590345E+02  0.00000000000E+00 0.  1.
         14    1    4    4    0    0 -0.10338796391E+02  0.23802634096E+02 -0.74065643557E+02  0.78480415750E+02  0.00000000000E+00 0. -1.
         -5    1    5    5    0  502  0.60377718100E+02 -0.45435001073E+02  0.46010296934E+02  0.88593710778E+02  0.47000000000E+01 0.  1.
         13    1    6    6    0    0  0.97633239482E+02 -0.25114898166E+02 -0.63761295814E+02  0.11928331990E+03  0.00000000000E+00 0. -1.
        -14    1    6    6    0    0  0.15705859200E+01  0.27294154258E+02 -0.26313054539E+02  0.37944886823E+02  0.00000000000E+00 0.  1.
<mgrwt>
<rscale>  2 0.24091201E+03</rscale>
<asrwt>0</asrwt>
<pdfrwt beam="1">  1       21 0.24229142E-01 0.24184039E+03</pdfrwt>
<pdfrwt beam="2">  1       21 0.60831170E-01 0.24184039E+03</pdfrwt>
<totfact> 0.39502269E+04</totfact>
</mgrwt>
</event>
<event>
12    1  0.1050690E-001  0.1944609E+03  0.7546771E-02  0.1154881E+00
         21   -1    0    0  501  502  0.00000000000E+00  0.00000000000E+00  0.31019199772E+03  0.31019199772E+03  0.00000000000E+00 0. -1.
         21   -1    0    0  502  503 -0.00000000000E+00 -0.00000000000E+00 -0.19972992134E+03  0.19972992134E+03  0.00000000000E+00 0. -1.
         -6    2    1    2    0  503 -0.70368856816E+02  0.49950924222E+02 -0.10517463863E+03  0.21955280647E+03  0.17232196429E+03 0.  0.
        -24    2    3    3    0    0  0.63011271276E+00  0.79143996327E+02 -0.42690887710E+02  0.12045992952E+03  0.80149320206E+02 0.  0.
          6    2    1    2  501    0  0.70368856816E+02 -0.49950924222E+02  0.21563671501E+03  0.29036911259E+03  0.17426462018E+03 0.  0.
         24    2    5    5    0    0  0.80030864032E+02 -0.49116285853E+02  0.64898668510E+02  0.13924631594E+03  0.79751806217E+02 0.  0.
          5    1    5    5  501    0 -0.96620072158E+01 -0.83463836913E+00  0.15073804650E+03  0.15112279665E+03  0.47000000000E+01 0. -1.
        -13    1    6    6    0    0  0.24270976546E+02  0.19127288336E+02  0.33790494317E+02  0.45790074992E+02  0.00000000000E+00 0.  1.
         14    1    6    6    0    0  0.55759887485E+02 -0.68243574189E+02  0.31108174192E+02  0.93456240948E+02  0.00000000000E+00 0. -1.
         -5    1    3    3    0  503 -0.70998969529E+02 -0.29193072105E+02 -0.62483750919E+02  0.99092876949E+02  0.47000000000E+01 0.  1.
         13    1    4    4    0    0 -0.88259167012E+00  0.63631407895E+02  0.10974592000E+02  0.64576905379E+02  0.00000000000E+00 0. -1.
        -14    1    4    4    0    0  0.15127043829E+01  0.15512588432E+02 -0.53665479710E+02  0.55883024139E+02  0.00000000000E+00 0.  1.
<mgrwt>
<rscale>  2 0.19402466E+03</rscale>
<asrwt>0</asrwt>
<pdfrwt beam="1">  1       21 0.47721846E-01 0.19446087E+03</pdfrwt>
<pdfrwt beam="2">  1       21 0.30727680E-01 0.19446087E+03</pdfrwt>
<totfact> 0.42655147E+04</totfact>
</mgrwt>
</event>
<event>
12    1  0.1050690E-001  0.1743597E+03  0.7546771E-02  0.1173723E+00
         21   -1    0    0  503  502  0.00000000000E+00  0.00000000000E+00  0.19240019400E+03  0.19240019400E+03  0.00000000000E+00 0.  1.
         21   -1    0    0  501  503 -0.00000000000E+00 -0.00000000000E+00 -0.17582041680E+03  0.17582041680E+03  0.00000000000E+00 0.  1.
          6    2    1    2  501    0  0.24770445795E+02  0.65874244308E+00  0.68917066310E+02  0.18748561852E+03  0.17258993655E+03 0.  0.
         24    2    3    3    0    0  0.31006032917E+02 -0.37699409451E+02  0.10027978438E+03  0.13732646734E+03  0.80124302970E+02 0.  0.
         -6    2    1    2    0  502 -0.24770445795E+02 -0.65874244308E+00 -0.52337289117E+02  0.18073499228E+03  0.17120729153E+03 0.  0.
        -24    2    5    5    0    0 -0.43160969315E+02 -0.60363306201E+02 -0.40304244888E+02  0.11694055331E+03  0.80895382105E+02 0.  0.
          5    1    3    3  501    0 -0.62355871221E+01  0.38358151894E+02 -0.31362718065E+02  0.50159151188E+02  0.47000000000E+01 0. -1.
        -11    1    4    4    0    0  0.12547576761E+02 -0.62012144420E+02  0.66086111163E+02  0.91489462928E+02  0.00000000000E+00 0.  1.
         12    1    4    4    0    0  0.18458456156E+02  0.24312734970E+02  0.34193673213E+02  0.45837004408E+02  0.00000000000E+00 0. -1.
         -5    1    5    5    0  502  0.18390523520E+02  0.59704563758E+02 -0.12033044229E+02  0.63794438960E+02  0.47000000000E+01 0.  1.
         13    1    6    6    0    0 -0.59063944631E+01 -0.70668994116E+01  0.23866830625E+02  0.25582262741E+02  0.00000000000E+00 0. -1.
        -14    1    6    6    0    0 -0.37254574851E+02 -0.53296406789E+02 -0.64171075513E+02  0.91358290574E+02  0.00000000000E+00 0.  1.
<mgrwt>
<rscale>  2 0.17401654E+03</rscale>
<asrwt>0</asrwt>
<pdfrwt beam="1">  1       21 0.29600030E-01 0.17435967E+03</pdfrwt>
<pdfrwt beam="2">  1       21 0.27049295E-01 0.17435967E+03</pdfrwt>
<totfact> 0.14331910E+05</totfact>
</mgrwt>
</event>
<event>
12    1  0.1050690E-001  0.1815616E+03  0.7546771E-02  0.1166496E+00
         21   -1    0    0  501  502  0.00000000000E+00  0.00000000000E+00  0.73970306654E+02  0.73970306654E+02  0.00000000000E+00 0. -1.
         21   -1    0    0  502  503 -0.00000000000E+00 -0.00000000000E+00 -0.44591807372E+03  0.44591807372E+03  0.00000000000E+00 0. -1.
         -6    2    1    2    0  503  0.13452741604E+02  0.52816484536E+02 -0.20496704292E+03  0.27381765852E+03  0.17318794455E+03 0.  0.
        -24    2    3    3    0    0 -0.10171699678E+02  0.98583294234E+02 -0.16162976331E+03  0.20634229338E+03  0.81429922483E+02 0.  0.
          6    2    1    2  501    0 -0.13452741604E+02 -0.52816484536E+02 -0.16698072415E+03  0.24607072186E+03  0.17233015007E+03 0.  0.
         24    2    5    5    0    0  0.35062463656E+02  0.18169170477E+02 -0.56316512949E+02  0.10585180017E+03  0.80458429356E+02 0.  0.
          5    1    5    5  501    0 -0.48515205261E+02 -0.70985655013E+02 -0.11066421120E+03  0.14021892169E+03  0.47000000000E+01 0. -1.
        -11    1    6    6    0    0 -0.59604905354E+01  0.23859238258E+02  0.10900477765E+02  0.26900020691E+02  0.00000000000E+00 0.  1.
         12    1    6    6    0    0  0.41022954192E+02 -0.56900677806E+01 -0.67216990713E+02  0.78951779477E+02  0.00000000000E+00 0. -1.
         -5    1    3    3    0  503  0.23624441282E+02 -0.45766809698E+02 -0.43337279609E+02  0.67475365132E+02  0.47000000000E+01 0.  1.
         11    1    4    4    0    0 -0.22838979273E+02  0.85141683369E+01 -0.45003486206E+01  0.24786350567E+02  0.00000000000E+00 0. -1.
        -12    1    4    4    0    0  0.12667279596E+02  0.90069125897E+02 -0.15712941469E+03  0.18155594282E+03  0.00000000000E+00 0.  1.
<mgrwt>
<rscale>  2 0.18135676E+03</rscale>
<asrwt>0</asrwt>
<pdfrwt beam="1">  1       21 0.11380047E-01 0.18156162E+03</pdfrwt>
<pdfrwt beam="2">  1       21 0.68602782E-01 0.18156162E+03</pdfrwt>
<totfact> 0.12545494E+05</totfact>
</mgrwt>
</event>
<event>
12    1  0.1050690E-001  0.1851262E+03  0.7546771E-02  0.1163233E+00
         21   -1    0    0  501  502  0.00000000000E+00  0.00000000000E+00  0.29973157935E+03  0.29973157935E+03  0.00000000000E+00 0. -1.
         21   -1    0    0  502  503 -0.00000000000E+00 -0.00000000000E+00 -0.27066492629E+03  0.27066492629E+03  0.00000000000E+00 0. -1.
         -6    2    1    2    0  503  0.62713726834E+02 -0.11908431328E+02 -0.20277891334E+03  0.27370798494E+03  0.17240055410E+03 0.  0.
        -24    2    3    3    0    0 -0.84357469877E+01 -0.31067842668E+02 -0.47145611889E+02  0.10144903687E+03  0.83861944210E+02 0.  0.
          6    2    1    2  501    0 -0.62713726834E+02  0.11908431328E+02  0.23184556641E+03  0.29668852070E+03  0.17377252194E+03 0.  0.
         24    2    5    5    0    0  0.30610632625E+02 -0.14304298845E+02  0.99973225569E+02  0.13295413955E+03  0.80873565504E+02 0.  0.
          5    1    5    5  501    0 -0.93324359459E+02  0.26212730173E+02  0.13187234084E+03  0.16373438115E+03  0.47000000000E+01 0. -1.
        -11    1    6    6    0    0  0.15595894997E+02  0.33587842753E+02  0.36052536659E+02  0.51683271192E+02  0.00000000000E+00 0.  1.
         12    1    6    6    0    0  0.15014737628E+02 -0.47892141597E+02  0.63920688910E+02  0.81270868357E+02  0.00000000000E+00 0. -1.
         -5    1    3    3    0  503  0.71149473822E+02  0.19159411340E+02 -0.15563330145E+03  0.17225894807E+03  0.47000000000E+01 0.  1.
         13    1    4    4    0    0  0.12409028347E+02  0.25011557649E+02 -0.52488720768E+01  0.28409728239E+02  0.00000000000E+00 0. -1.
        -14    1    4    4    0    0 -0.20844775334E+02 -0.56079400318E+02 -0.41896739812E+02  0.73039308633E+02  0.00000000000E+00 0.  1.
<mgrwt>
<rscale>  2 0.18480356E+03</rscale>
<asrwt>0</asrwt>
<pdfrwt beam="1">  1       21 0.46112551E-01 0.18512620E+03</pdfrwt>
<pdfrwt beam="2">  1       21 0.41640758E-01 0.18512620E+03</pdfrwt>
<totfact> 0.25127138E+04</totfact>
</mgrwt>
</event>
<event>
12    1  0.1050690E-001  0.2085523E+03  0.7546771E-02  0.1144433E+00
         21   -1    0    0  503  502  0.00000000000E+00  0.00000000000E+00  0.32708574667E+03  0.32708574667E+03  0.00000000000E+00 0.  1.
         21   -1    0    0  501  503 -0.00000000000E+00 -0.00000000000E+00 -0.14225736063E+03  0.14225736063E+03  0.00000000000E+00 0.  1.
          6    2    1    2  501    0 -0.45660883890E+02  0.95117121534E+02  0.16583501299E+03  0.25992775531E+03  0.17008528250E+03 0.  0.
         24    2    3    3    0    0 -0.44332035560E+02  0.84161059241E+02  0.19337102214E+03  0.22989239383E+03  0.80060897252E+02 0.  0.
         -6    2    1    2    0  502  0.45660883890E+02 -0.95117121534E+02  0.18993373057E+02  0.20941535199E+03  0.17989401964E+03 0.  0.
        -24    2    5    5    0    0  0.64260269879E+02 -0.10045002232E+02 -0.33470798992E+02  0.10764216303E+03  0.78969972287E+02 0.  0.
          5    1    3    3  501    0 -0.13288483301E+01  0.10956062293E+02 -0.27536009155E+02  0.30035361476E+02  0.47000000000E+01 0. -1.
        -11    1    4    4    0    0  0.95290820049E+01  0.30509628188E+02  0.12019943754E+03  0.12437662803E+03  0.00000000000E+00 0.  1.
         12    1    4    4    0    0 -0.53861117564E+02  0.53651431053E+02  0.73171584605E+02  0.10551576580E+03  0.00000000000E+00 0. -1.
         -5    1    5    5    0  502 -0.18599385989E+02 -0.85072119302E+02  0.52464172048E+02  0.10177318896E+03  0.47000000000E+01 0.  1.
         11    1    6    6    0    0 -0.12467292643E+02  0.12926658016E+02  0.52080683218E+01  0.18699086848E+02  0.00000000000E+00 0. -1.
        -12    1    6    6    0    0  0.76727562521E+02 -0.22971660248E+02 -0.38678867314E+02  0.88943076187E+02  0.00000000000E+00 0.  1.
<mgrwt>
<rscale>  2 0.20641994E+03</rscale>
<asrwt>0</asrwt>
<pdfrwt beam="1">  1       21 0.50320884E-01 0.20855225E+03</pdfrwt>
<pdfrwt beam="2">  1       21 0.21885748E-01 0.20855225E+03</pdfrwt>
<totfact> 0.72781949E+04</totfact>
</mgrwt>
</event>
<event>
12    1  0.1050690E-001  0.2164371E+03  0.7546771E-02  0.1136818E+00
         21   -1    0    0  501  502  0.00000000000E+00  0.00000000000E+00  0.69035571297E+02  0.69035571297E+02  0.00000000000E+00 0.  1.
         21   -1    0    0  502  503 -0.00000000000E+00 -0.00000000000E+00 -0.12098944859E+04  0.12098944859E+04  0.00000000000E+00 0. -1.
         -6    2    1    2    0  503  0.11422893488E+03  0.57888250243E+02 -0.99679825164E+03  0.10200253886E+04  0.17448707628E+03 0.  0.
        -24    2    3    3    0    0  0.14229815482E+03  0.31315391782E+02 -0.90814989836E+03  0.92320277524E+03  0.79609721058E+02 0.  0.
          6    2    1    2  501    0 -0.11422893488E+03 -0.57888250243E+02 -0.14406066292E+03  0.25890466858E+03  0.17285500782E+03 0.  0.
         24    2    5    5    0    0  0.87350232770E+01 -0.35034695025E+02 -0.42961215800E+02  0.98014618544E+02  0.80358377896E+02 0.  0.
          5    1    5    5  501    0 -0.12296395816E+03 -0.22853555218E+02 -0.10109944712E+03  0.16089005003E+03  0.47000000000E+01 0. -1.
        -13    1    6    6    0    0 -0.35802845483E+02 -0.10965642217E+02 -0.17052886282E+02  0.41144744312E+02  0.00000000000E+00 0.  1.
         14    1    6    6    0    0  0.44537868760E+02 -0.24069052808E+02 -0.25908329519E+02  0.56869874232E+02  0.00000000000E+00 0. -1.
         -5    1    3    3    0  503 -0.28069219937E+02  0.26572858461E+02 -0.88648353276E+02  0.96822613336E+02  0.47000000000E+01 0.  1.
         13    1    4    4    0    0  0.66127889931E+02  0.54786655315E+02 -0.43680574711E+03  0.44516708789E+03  0.00000000000E+00 0. -1.
        -14    1    4    4    0    0  0.76170264886E+02 -0.23471263534E+02 -0.47134415125E+03  0.47803568735E+03  0.00000000000E+00 0.  1.
<mgrwt>
<rscale>  2 0.21610800E+03</rscale>
<asrwt>0</asrwt>
<pdfrwt beam="1">  1       21 0.10620857E-01 0.21643715E+03</pdfrwt>
<pdfrwt beam="2">  1       21 0.18613761E+00 0.21643715E+03</pdfrwt>
<totfact> 0.11847335E+04</totfact>
</mgrwt>
</event>
<event>
12    1  0.1050690E-001  0.1953706E+03  0.7546771E-02  0.1154063E+00
         21   -1    0    0  501  502  0.00000000000E+00  0.00000000000E+00  0.73548177158E+02  0.73548177158E+02  0.00000000000E+00 0. -1.
         21   -1    0    0  502  503 -0.00000000000E+00 -0.00000000000E+00 -0.53705042928E+03  0.53705042928E+03  0.00000000000E+00 0. -1.
         -6    2    1    2    0  503 -0.81806634692E+02  0.35449058952E+02 -0.29506733711E+03  0.35388471667E+03  0.17384101358E+03 0.  0.
        -24    2    3    3    0    0 -0.19538914466E+02  0.85007064983E+02 -0.17788903307E+03  0.21215924302E+03  0.75888510560E+02 0.  0.
          6    2    1    2  501    0  0.81806634692E+02 -0.35449058952E+02 -0.16843491501E+03  0.25671388977E+03  0.17199633527E+03 0.  0.
         24    2    5    5    0    0  0.13209240487E+02  0.40119426510E+02 -0.85069173931E+02  0.12484981099E+03  0.81034921690E+02 0.  0.
          5    1    5    5  501    0  0.68597394204E+02 -0.75568485462E+02 -0.83365741080E+02  0.13186407878E+03  0.47000000000E+01 0. -1.
        -13    1    6    6    0    0 -0.10254523216E+02  0.27831758077E+02  0.57797152890E+01  0.30218655048E+02  0.00000000000E+00 0.  1.
         14    1    6    6    0    0  0.23463763703E+02  0.12287668433E+02 -0.90848889220E+02  0.94631155943E+02  0.00000000000E+00 0. -1.
         -5    1    3    3    0  503 -0.62267720226E+02 -0.49558006031E+02 -0.11717830405E+03  0.14172547366E+03  0.47000000000E+01 0.  1.
         11    1    4    4    0    0 -0.30850744148E+02  0.21615637231E+01 -0.61636553321E+02  0.68960173125E+02  0.00000000000E+00 0. -1.
        -12    1    4    4    0    0  0.11311829682E+02  0.82845501259E+02 -0.11625247975E+03  0.14319906989E+03  0.00000000000E+00 0.  1.
<mgrwt>
<rscale>  2 0.19495938E+03</rscale>
<asrwt>0</asrwt>
<pdfrwt beam="1">  1       21 0.11315104E-01 0.19537057E+03</pdfrwt>
<pdfrwt beam="2">  1       21 0.82623145E-01 0.19537057E+03</pdfrwt>
<totfact> 0.83217052E+04</totfact>
</mgrwt>
</event>
<event>
12    1  0.1050690E-001  0.1838836E+03  0.7546771E-02  0.1164422E+00
         21   -1    0    0  503  502  0.00000000000E+00  0.00000000000E+00  0.56254978806E+03  0.56254978806E+03  0.00000000000E+00 0.  1.
         21   -1    0    0  501  503 -0.00000000000E+00 -0.00000000000E+00 -0.59710080176E+02  0.59710080176E+02  0.00000000000E+00 0. -1.
          6    2    1    2  501    0 -0.38717231269E+02 -0.49442634722E+02  0.25975236971E+03  0.31745726718E+03  0.17135992761E+03 0.  0.
         24    2    3    3    0    0  0.29095764788E+01 -0.17221428259E+01  0.23336090804E+03  0.24869219088E+03  0.85901460936E+02 0.  0.
         -6    2    1    2    0  502  0.38717231269E+02  0.49442634722E+02  0.24308733817E+03  0.30480260105E+03  0.17282816178E+03 0.  0.
        -24    2    5    5    0    0 -0.11384267026E+02  0.28898928868E+00  0.34817351749E+02  0.84973762558E+02  0.76672076337E+02 0.  0.
          5    1    3    3  501    0 -0.41626807748E+02 -0.47720491896E+02  0.26391461677E+02  0.68765076307E+02  0.47000000000E+01 0. -1.
        -13    1    4    4    0    0 -0.34699272075E+02 -0.85416090620E+01  0.17714264015E+03  0.18071113282E+03  0.00000000000E+00 0.  1.
         14    1    4    4    0    0  0.37608848553E+02  0.68194662361E+01  0.56218267890E+02  0.67981058051E+02  0.00000000000E+00 0. -1.
         -5    1    5    5    0  502  0.50101498296E+02  0.49153645433E+02  0.20826998642E+03  0.21982883849E+03  0.47000000000E+01 0.  1.
         13    1    6    6    0    0  0.62029290619E+01 -0.35370573652E+02  0.25760660210E+02  0.44194631166E+02  0.00000000000E+00 0. -1.
        -14    1    6    6    0    0 -0.17587196088E+02  0.35659562941E+02  0.90566915389E+01  0.40779131391E+02  0.00000000000E+00 0.  1.
<mgrwt>
<rscale>  2 0.18353779E+03</rscale>
<asrwt>0</asrwt>
<pdfrwt beam="1">  1       21 0.86546118E-01 0.18388358E+03</pdfrwt>
<pdfrwt beam="2">  1       21 0.91861666E-02 0.18388358E+03</pdfrwt>
<totfact> 0.10871432E+05</totfact>
</mgrwt>
</event>
<event>
12    1  0.1050690E-001  0.1809924E+03  0.7546771E-02  0.1166990E+00
         21   -1    0    0  501  502  0.00000000000E+00  0.00000000000E+00  0.48275960094E+02  0.48275960094E+02  0.00000000000E+00 0.  1.
         21   -1    0    0  502  503 -0.00000000000E+00 -0.00000000000E+00 -0.74418674870E+03  0.74418674870E+03  0.00000000000E+00 0.  1.
         -6    2    1    2    0  503  0.23778835898E+02  0.48877529653E+02 -0.46708785902E+03  0.50071253358E+03  0.17201025345E+03 0.  0.
        -24    2    3    3    0    0 -0.40372207936E+02  0.48935761971E+02 -0.37140570169E+03  0.38541932021E+03  0.81124799981E+02 0.  0.
          6    2    1    2  501    0 -0.23778835898E+02 -0.48877529653E+02 -0.22882292958E+03  0.29175017521E+03  0.17263772964E+03 0.  0.
         24    2    5    5    0    0 -0.49890085321E+02  0.24743661707E+02 -0.16155081962E+03  0.18855374145E+03  0.79703053178E+02 0.  0.
          5    1    5    5  501    0  0.26111249423E+02 -0.73621191360E+02 -0.67272109958E+02  0.10319643377E+03  0.47000000000E+01 0. -1.
        -11    1    6    6    0    0 -0.21696272584E+02 -0.27216359380E+02 -0.84876682634E+02  0.91736087321E+02  0.00000000000E+00 0.  1.
         12    1    6    6    0    0 -0.28193812737E+02  0.51960021088E+02 -0.76674136986E+02  0.96817654127E+02  0.00000000000E+00 0. -1.
         -5    1    3    3    0  503  0.64151043834E+02 -0.58232318349E-01 -0.95682157333E+02  0.11529321336E+03  0.47000000000E+01 0.  1.
         11    1    4    4    0    0  0.89078031684E+01 -0.45702952954E+01 -0.38370233628E+01  0.10721907697E+02  0.00000000000E+00 0. -1.
        -12    1    4    4    0    0 -0.49280011105E+02  0.53506057266E+02 -0.36756867833E+03  0.37469741252E+03  0.00000000000E+00 0.  1.
<mgrwt>
<rscale>  2 0.18084256E+03</rscale>
<asrwt>0</asrwt>
<pdfrwt beam="1">  1       21 0.74270707E-02 0.18099235E+03</pdfrwt>
<pdfrwt beam="2">  1       21 0.11449027E+00 0.18099235E+03</pdfrwt>
<totfact> 0.81343626E+04</totfact>
</mgrwt>
</event>
<event>
12    1  0.1050690E-001  0.2473241E+03  0.7546771E-02  0.1115025E+00
         21   -1    0    0  503  502  0.00000000000E+00  0.00000000000E+00  0.79972243005E+02  0.79972243005E+02  0.00000000000E+00 0. -1.
         21   -1    0    0  501  503 -0.00000000000E+00 -0.00000000000E+00 -0.88637485970E+03  0.88637485970E+03  0.00000000000E+00 0. -1.
          6    2    1    2  501    0  0.52657762902E+02 -0.16871143104E+03 -0.58240261584E+03  0.63274166315E+03  0.17301103545E+03 0.  0.
         24    2    3    3    0    0 -0.11099265709E+02 -0.16252350206E+03 -0.47411441161E+03  0.50683823056E+03  0.74588432329E+02 0.  0.
         -6    2    1    2    0  502 -0.52657762902E+02  0.16871143104E+03 -0.22400000085E+03  0.33360543955E+03  0.17285890768E+03 0.  0.
        -24    2    5    5    0    0 -0.49390678946E+02  0.24696916039E+02 -0.60281699782E+02  0.11548477003E+03  0.81568817280E+02 0.  0.
          5    1    3    3  501    0  0.63757028611E+02 -0.61879289748E+01 -0.10828820423E+03  0.12590343259E+03  0.47000000000E+01 0. -1.
        -13    1    4    4    0    0 -0.16955366981E+02 -0.42405349250E+00 -0.45157200797E+02  0.48237299620E+02  0.00000000000E+00 0.  1.
         14    1    4    4    0    0  0.58561012725E+01 -0.16209944857E+03 -0.42895721082E+03  0.45860093094E+03  0.00000000000E+00 0. -1.
         -5    1    5    5    0  502 -0.32670839552E+01  0.14401451500E+03 -0.16371830107E+03  0.21812066952E+03  0.47000000000E+01 0.  1.
         11    1    6    6    0    0 -0.24107655816E+02  0.53234729847E+02 -0.25082871055E+02  0.63594543408E+02  0.00000000000E+00 0. -1.
        -12    1    6    6    0    0 -0.25283023131E+02 -0.28537813808E+02 -0.35198828727E+02  0.51890226626E+02  0.00000000000E+00 0.  1.
<mgrwt>
<rscale>  2 0.24729749E+03</rscale>
<asrwt>0</asrwt>
<pdfrwt beam="1">  1       21 0.12303423E-01 0.24732409E+03</pdfrwt>
<pdfrwt beam="2">  1       21 0.13636536E+00 0.24732409E+03</pdfrwt>
<totfact> 0.20799226E+04</totfact>
</mgrwt>
</event>
<event>
12    1  0.1050690E-001  0.3064099E+03  0.7546771E-02  0.1082124E+00
         21   -1    0    0  501  502  0.00000000000E+00  0.00000000000E+00  0.11593652224E+03  0.11593652224E+03  0.00000000000E+00 0. -1.
         21   -1    0    0  502  503 -0.00000000000E+00 -0.00000000000E+00 -0.81169159887E+03  0.81169159887E+03  0.00000000000E+00 0.  1.
         -6    2    1    2    0  503  0.21736337225E+03  0.12933297122E+03 -0.37551341803E+03  0.48466211784E+03  0.17295429542E+03 0.  0.
        -24    2    3    3    0    0  0.21097012799E+03  0.96409795165E+02 -0.37814205490E+03  0.45069435627E+03  0.79565982614E+02 0.  0.
          6    2    1    2  501    0 -0.21736337225E+03 -0.12933297122E+03 -0.32024165860E+03  0.44296600327E+03  0.17230875518E+03 0.  0.
         24    2    5    5    0    0 -0.17731141793E+03 -0.12673993499E+03 -0.17078259697E+03  0.28814034653E+03  0.79723358063E+02 0.  0.
          5    1    5    5  501    0 -0.40051954321E+02 -0.25930362278E+01 -0.14945906163E+03  0.15482565674E+03  0.47000000000E+01 0. -1.
        -13    1    6    6    0    0 -0.73421483855E+02 -0.10074915071E+03 -0.99364936882E+02  0.15941924709E+03  0.00000000000E+00 0.  1.
         14    1    6    6    0    0 -0.10388993408E+03 -0.25990784285E+02 -0.71417660084E+02  0.12872109945E+03  0.00000000000E+00 0. -1.
         -5    1    3    3    0  503  0.63932442671E+01  0.32923176055E+02  0.26286368672E+01  0.33967761563E+02  0.47000000000E+01 0.  1.
         11    1    4    4    0    0  0.42328859271E+02  0.14913704559E+02 -0.26072343497E+02  0.51902967221E+02  0.00000000000E+00 0. -1.
        -12    1    4    4    0    0  0.16864126872E+03  0.81496090605E+02 -0.35206971140E+03  0.39879138905E+03  0.00000000000E+00 0.  1.
<mgrwt>
<rscale>  2 0.30631890E+03</rscale>
<asrwt>0</asrwt>
<pdfrwt beam="1">  1       21 0.17836388E-01 0.30640992E+03</pdfrwt>
<pdfrwt beam="2">  1       21 0.12487563E+00 0.30640992E+03</pdfrwt>
<totfact> 0.12807863E+04</totfact>
</mgrwt>
</event>
<event>
12    1  0.1050690E-001  0.1775836E+03  0.7546771E-02  0.1171684E+00
         21   -1    0    0  501  502  0.00000000000E+00  0.00000000000E+00  0.15768732664E+03  0.15768732664E+03  0.00000000000E+00 0. -1.
         21   -1    0    0  502  503 -0.00000000000E+00 -0.00000000000E+00 -0.29834045731E+03  0.29834045731E+03  0.00000000000E+00 0. -1.
         -6    2    1    2    0  503  0.38181246015E+02 -0.21112778711E+02 -0.20645158554E+03  0.27232002926E+03  0.17214059426E+03 0.  0.
        -24    2    3    3    0    0  0.53539408257E+02 -0.70937973451E+02 -0.11050734126E+03  0.16302313457E+03  0.80411476907E+02 0.  0.
          6    2    1    2  501    0 -0.38181246015E+02  0.21112778711E+02  0.65798454865E+02  0.18370775470E+03  0.16587810434E+03 0.  0.
         24    2    5    5    0    0 -0.19953397105E+02 -0.18353431492E+02 -0.17982721489E+02  0.89202666288E+02  0.83058719574E+02 0.  0.
          5    1    5    5  501    0 -0.18227848910E+02  0.39466210203E+02  0.83781176354E+02  0.94505088408E+02  0.47000000000E+01 0. -1.
        -11    1    6    6    0    0  0.86655463010E+00 -0.38360013324E+02  0.18564984732E+02  0.42625112285E+02  0.00000000000E+00 0.  1.
         12    1    6    6    0    0 -0.20819951736E+02  0.20006581833E+02 -0.36547706222E+02  0.46577554004E+02  0.00000000000E+00 0. -1.
         -5    1    3    3    0  503 -0.15358162242E+02  0.49825194741E+02 -0.95944244277E+02  0.10929689469E+03  0.47000000000E+01 0.  1.
         11    1    4    4    0    0  0.73864531474E+02 -0.53950318412E+02 -0.96865310216E+02  0.13322722766E+03  0.00000000000E+00 0. -1.
        -12    1    4    4    0    0 -0.20325123217E+02 -0.16987655039E+02 -0.13642031043E+02  0.29795906908E+02  0.00000000000E+00 0.  1.
<mgrwt>
<rscale>  2 0.17604790E+03</rscale>
<asrwt>0</asrwt>
<pdfrwt beam="1">  1       21 0.24259589E-01 0.17758362E+03</pdfrwt>
<pdfrwt beam="2">  1       21 0.45898532E-01 0.17758362E+03</pdfrwt>
<totfact> 0.73444363E+04</totfact>
</mgrwt>
</event>
<event>
12    1  0.1050690E-001  0.2941249E+03  0.7546771E-02  0.1089104E+00
         21   -1    0    0  501  502  0.00000000000E+00  0.00000000000E+00  0.70314366315E+02  0.70314366315E+02  0.00000000000E+00 0.  1.
         21   -1    0    0  502  503 -0.00000000000E+00 -0.00000000000E+00 -0.24230529267E+04  0.24230529267E+04  0.00000000000E+00 0. -1.
         -6    2    1    2    0  503  0.23369238898E+03 -0.64969112100E+01 -0.20545192286E+04  0.20745066852E+04  0.16695623335E+03 0.  0.
        -24    2    3    3    0    0  0.78995526617E+02  0.48158579369E+02 -0.83577001377E+03  0.84475464497E+03  0.80866261742E+02 0.  0.
          6    2    1    2  501    0 -0.23369238898E+03  0.64969112100E+01 -0.29821933183E+03  0.41886060783E+03  0.17847996076E+03 0.  0.
         24    2    5    5    0    0 -0.88803902460E+02 -0.59482416860E+02 -0.12429857001E+03  0.18302917089E+03  0.81395650265E+02 0.  0.
          5    1    5    5  501    0 -0.14488848652E+03  0.65979328070E+02 -0.17392076182E+03  0.23583143694E+03  0.47000000000E+01 0. -1.
        -11    1    6    6    0    0 -0.65864279507E+02 -0.40314756664E+01 -0.33010428828E+02  0.73783768693E+02  0.00000000000E+00 0.  1.
         12    1    6    6    0    0 -0.22939622953E+02 -0.55450941193E+02 -0.91288141183E+02  0.10924540220E+03  0.00000000000E+00 0. -1.
         -5    1    3    3    0  503  0.15469686236E+03 -0.54655490579E+02 -0.12187492148E+04  0.12297520403E+04  0.47000000000E+01 0.  1.
         13    1    4    4    0    0  0.80873055743E+02  0.73220275553E+01 -0.50884939873E+03  0.51528804936E+03  0.00000000000E+00 0. -1.
        -14    1    4    4    0    0 -0.18775291264E+01  0.40836551813E+02 -0.32692061504E+03  0.32946659560E+03  0.00000000000E+00 0.  1.
<mgrwt>
<rscale>  2 0.29239804E+03</rscale>
<asrwt>0</asrwt>
<pdfrwt beam="1">  1       21 0.10817595E-01 0.29412487E+03</pdfrwt>
<pdfrwt beam="2">  1       21 0.37277736E+00 0.29412487E+03</pdfrwt>
<totfact> 0.79813704E+02</totfact>
</mgrwt>
</event>
<event>
12    1  0.1050690E-001  0.1992848E+03  0.7546771E-02  0.1153066E+00
         21   -1    0    0  503  502  0.00000000000E+00  0.00000000000E+00  0.21394325998E+03  0.21394325998E+03  0.00000000000E+00 0.  1.
         21   -1    0    0  501  503 -0.00000000000E+00 -0.00000000000E+00 -0.32971690299E+03  0.32971690299E+03  0.00000000000E+00 0.  1.
          6    2    1    2  501    0 -0.22725825303E+02  0.97735801261E+02 -0.24351059519E+03  0.30695115704E+03  0.15764787615E+03 0.  0.
         24    2    3    3    0    0 -0.25393233011E+02  0.94907294817E+02 -0.25960166133E+03  0.28974278924E+03  0.83100243435E+02 0.  0.
         -6    2    1    2    0  502  0.22725825303E+02 -0.97735801261E+02  0.12773695218E+03  0.23670900593E+03  0.17217919314E+03 0.  0.
        -24    2    5    5    0    0 -0.24789339830E+01 -0.69078507496E+01  0.26599994960E+01  0.80020363779E+02  0.79638680969E+02 0.  0.
          5    1    3    3  501    0  0.26674077076E+01  0.28285064431E+01  0.16091066145E+02  0.17208367798E+02  0.47000000000E+01 0. -1.
        -13    1    4    4    0    0  0.27097977712E+02  0.55745354510E+02 -0.10652813727E+03  0.12324807899E+03  0.00000000000E+00 0.  1.
         14    1    4    4    0    0 -0.52491210723E+02  0.39161940308E+02 -0.15307352406E+03  0.16649471025E+03  0.00000000000E+00 0. -1.
         -5    1    5    5    0  502  0.25204759286E+02 -0.90827950511E+02  0.12507695269E+03  0.15668864215E+03  0.47000000000E+01 0.  1.
         11    1    6    6    0    0 -0.25756634220E+02 -0.30933691290E+02 -0.14039437751E+02  0.42631013072E+02  0.00000000000E+00 0. -1.
        -12    1    6    6    0    0  0.23277700237E+02  0.24025840540E+02  0.16699437247E+02  0.37389350708E+02  0.00000000000E+00 0.  1.
<mgrwt>
<rscale>  2 0.19610667E+03</rscale>
<asrwt>0</asrwt>
<pdfrwt beam="1">  1       21 0.32914348E-01 0.19928478E+03</pdfrwt>
<pdfrwt beam="2">  1       21 0.50725678E-01 0.19928478E+03</pdfrwt>
<totfact> 0.32738494E+04</totfact>
</mgrwt>
</event>
<event>
12    1  0.1050690E-001  0.3587909E+03  0.7546771E-02  0.1059096E+00
         21   -1    0    0  501  502  0.00000000000E+00  0.00000000000E+00  0.23955815117E+03  0.23955815117E+03  0.00000000000E+00 0. -1.
         21   -1    0    0  502  503 -0.00000000000E+00 -0.00000000000E+00 -0.55285578207E+03  0.55285578207E+03  0.00000000000E+00 0.  1.
         -6    2    1    2    0  503  0.10289161646E+03  0.29647826394E+03 -0.22393947601E+03  0.42266296033E+03  0.17323118482E+03 0.  0.
        -24    2    3    3    0    0  0.31509281702E+02  0.27650393584E+02 -0.77419638476E+02  0.10825237783E+03  0.62987282734E+02 0.  0.
          6    2    1    2  501    0 -0.10289161646E+03 -0.29647826394E+03 -0.89358154889E+02  0.36975097291E+03  0.17391048387E+03 0.  0.
         24    2    5    5    0    0 -0.13615718017E+03 -0.27759678508E+03 -0.87249428175E+02  0.33115505731E+03  0.80327183850E+02 0.  0.
          5    1    5    5  501    0  0.33265563713E+02 -0.18881478856E+02 -0.21087267141E+01  0.38595915604E+02  0.47000000000E+01 0. -1.
        -11    1    6    6    0    0 -0.69393557401E+02 -0.71127757166E+02 -0.63627819389E+01  0.99574638549E+02  0.00000000000E+00 0.  1.
         12    1    6    6    0    0 -0.66763622768E+02 -0.20646902792E+03 -0.80886646236E+02  0.23158041876E+03  0.00000000000E+00 0. -1.
         -5    1    3    3    0  503  0.71382334755E+02  0.26882787035E+03 -0.14651983753E+03  0.31441058249E+03  0.47000000000E+01 0.  1.
         13    1    4    4    0    0 -0.11243316559E+02  0.21244389497E+02 -0.53950746559E+02  0.59062842013E+02  0.00000000000E+00 0. -1.
        -14    1    4    4    0    0  0.42752598261E+02  0.64060040864E+01 -0.23468891917E+02  0.49189535820E+02  0.00000000000E+00 0.  1.
<mgrwt>
<rscale>  2 0.35870867E+03</rscale>
<asrwt>0</asrwt>
<pdfrwt beam="1">  1       21 0.36855101E-01 0.35879089E+03</pdfrwt>
<pdfrwt beam="2">  1       21 0.85054735E-01 0.35879089E+03</pdfrwt>
<totfact> 0.77739215E+03</totfact>
</mgrwt>
</event>
<event>
12    1  0.1050690E-001  0.2376806E+03  0.7546771E-02  0.1121909E+00
         21   -1    0    0  501  502  0.00000000000E+00  0.00000000000E+00  0.17665921180E+04  0.17665921180E+04  0.00000000000E+00 0.  1.
         21   -1    0    0  502  503 -0.00000000000E+00 -0.00000000000E+00 -0.15957513438E+03  0.15957513438E+03  0.00000000000E+00 0.  1.
         -6    2    1    2    0  503  0.15734195689E+03  0.84373857216E+01 -0.58065265106E+02  0.24467049928E+03  0.17794492780E+03 0.  0.
        -24    2    3    3    0    0  0.29073301966E+02 -0.11143510553E+02  0.25187852632E+02  0.90432271371E+02  0.81081027808E+02 0.  0.
          6    2    1    2  501    0 -0.15734195689E+03 -0.84373857216E+01  0.16650822487E+04  0.16814967531E+04  0.17350721834E+03 0.  0.
         24    2    5    5    0    0 -0.18188654513E+03 -0.29811413512E+02  0.14582025908E+04  0.14720198600E+04  0.80723211002E+02 0.  0.
          5    1    5    5  501    0  0.24544588236E+02  0.21374027790E+02  0.20687965789E+03  0.20947689305E+03  0.47000000000E+01 0. -1.
        -11    1    6    6    0    0 -0.19820624276E+02  0.11014332825E+02  0.40545122085E+03  0.40608480046E+03  0.00000000000E+00 0.  1.
         12    1    6    6    0    0 -0.16206592085E+03 -0.40825746337E+02  0.10527513700E+04  0.10659350596E+04  0.00000000000E+00 0. -1.
         -5    1    3    3    0  503  0.12826865493E+03  0.19580896275E+02 -0.83253117738E+02  0.15423822791E+03  0.47000000000E+01 0.  1.
         11    1    4    4    0    0  0.45581533475E+02  0.18313943532E+02  0.28008461660E+02  0.56546888917E+02  0.00000000000E+00 0. -1.
        -12    1    4    4    0    0 -0.16508231510E+02 -0.29457454085E+02 -0.28206090275E+01  0.33885382454E+02  0.00000000000E+00 0.  1.
<mgrwt>
<rscale>  2 0.23685030E+03</rscale>
<asrwt>0</asrwt>
<pdfrwt beam="1">  1       21 0.27178339E+00 0.23768062E+03</pdfrwt>
<pdfrwt beam="2">  1       21 0.24550022E-01 0.23768062E+03</pdfrwt>
<totfact> 0.73733145E+02</totfact>
</mgrwt>
</event>
<event>
12    1  0.1050690E-001  0.2991926E+03  0.7546771E-02  0.1085730E+00
         21   -1    0    0  501  502  0.00000000000E+00  0.00000000000E+00  0.32963864749E+03  0.32963864749E+03  0.00000000000E+00 0. -1.
         21   -1    0    0  502  503 -0.00000000000E+00 -0.00000000000E+00 -0.27731721274E+03  0.27731721274E+03  0.00000000000E+00 0.  1.
         -6    2    1    2    0  503 -0.16491341034E+03 -0.17968076601E+03  0.72146595369E+02  0.30710711750E+03  0.17212797510E+03 0.  0.
        -24    2    3    3    0    0 -0.80602895908E+02 -0.15619400556E+03  0.84147954290E+02  0.21864235968E+03  0.99147410623E+02 0.  0.
          6    2    1    2  501    0  0.16491341034E+03  0.17968076601E+03 -0.19825160614E+02  0.29984874274E+03  0.17330499400E+03 0.  0.
         24    2    5    5    0    0  0.18885727391E+03  0.17094423335E+03  0.96358228065E-01  0.26715940933E+03  0.80530366220E+02 0.  0.
          5    1    5    5  501    0 -0.23943863575E+02  0.87365326591E+01 -0.19921518842E+02  0.32689333410E+02  0.47000000000E+01 0. -1.
        -13    1    6    6    0    0  0.17719409761E+03  0.11786604560E+03 -0.25437580235E-03  0.21281483250E+03  0.00000000000E+00 0.  1.
         14    1    6    6    0    0  0.11663176301E+02  0.53078187753E+02  0.96612603867E-01  0.54344576827E+02  0.00000000000E+00 0. -1.
         -5    1    3    3    0  503 -0.84310514431E+02 -0.23486760452E+02 -0.12001358921E+02  0.88464757820E+02  0.47000000000E+01 0.  1.
         11    1    4    4    0    0 -0.44545734000E+02 -0.11026991343E+03  0.10295460860E+03  0.15730043756E+03  0.00000000000E+00 0. -1.
        -12    1    4    4    0    0 -0.36057161907E+02 -0.45924092126E+02 -0.18806654309E+02  0.61341922115E+02  0.00000000000E+00 0.  1.
<mgrwt>
<rscale>  2 0.29902243E+03</rscale>
<asrwt>0</asrwt>
<pdfrwt beam="1">  1       21 0.50713638E-01 0.29919263E+03</pdfrwt>
<pdfrwt beam="2">  1       21 0.42664187E-01 0.29919263E+03</pdfrwt>
<totfact> 0.18533866E+04</totfact>
</mgrwt>
</event>
<event>
12    1  0.1050690E-001  0.1775713E+03  0.7546771E-02  0.1171718E+00
         21   -1    0    0  501  502  0.00000000000E+00  0.00000000000E+00  0.34034032762E+03  0.34034032762E+03  0.00000000000E+00 0. -1.
         21   -1    0    0  502  503 -0.00000000000E+00 -0.00000000000E+00 -0.30900441156E+03  0.30900441156E+03  0.00000000000E+00 0. -1.
         -6    2    1    2    0  503 -0.38379482740E+01  0.32477967237E+02 -0.25790435058E+03  0.31312334570E+03  0.17453374279E+03 0.  0.
        -24    2    3    3    0    0 -0.50462765196E+00  0.13446065874E+02 -0.27120595072E+02  0.81484497271E+02  0.75651472437E+02 0.  0.
          6    2    1    2  501    0  0.38379482740E+01 -0.32477967237E+02  0.28924026664E+03  0.33622139349E+03  0.16827164167E+03 0.  0.
         24    2    5    5    0    0  0.49575217393E+02 -0.57504538306E+02  0.14661775851E+03  0.18429543497E+03  0.81875308456E+02 0.  0.
          5    1    5    5  501    0 -0.45737269119E+02  0.25026571069E+02  0.14262250813E+03  0.15192595852E+03  0.47000000000E+01 0. -1.
        -13    1    6    6    0    0  0.17378746876E+02  0.18274279780E+02  0.15912124354E+02  0.29818884049E+02  0.00000000000E+00 0.  1.
         14    1    6    6    0    0  0.32196470517E+02 -0.75778818086E+02  0.13070563416E+03  0.15447655092E+03  0.00000000000E+00 0. -1.
         -5    1    3    3    0  503 -0.33333206221E+01  0.19031901363E+02 -0.23078375551E+03  0.23163884843E+03  0.47000000000E+01 0.  1.
         11    1    4    4    0    0  0.26203250923E+02  0.16421951956E+01 -0.41366377496E+02  0.48994737994E+02  0.00000000000E+00 0. -1.
        -12    1    4    4    0    0 -0.26707878575E+02  0.11803870679E+02  0.14245782424E+02  0.32489759276E+02  0.00000000000E+00 0.  1.
<mgrwt>
<rscale>  2 0.17601316E+03</rscale>
<asrwt>0</asrwt>
<pdfrwt beam="1">  1       21 0.52360050E-01 0.17757133E+03</pdfrwt>
<pdfrwt beam="2">  1       21 0.47539140E-01 0.17757133E+03</pdfrwt>
<totfact> 0.14783404E+04</totfact>
</mgrwt>
</event>
<event>
12    1  0.1050690E-001  0.2093215E+03  0.7546771E-02  0.1142278E+00
         21   -1    0    0  501  502  0.00000000000E+00  0.00000000000E+00  0.24397801317E+03  0.24397801317E+03  0.00000000000E+00 0.  1.
         21   -1    0    0  502  503 -0.00000000000E+00 -0.00000000000E+00 -0.20410539194E+03  0.20410539194E+03  0.00000000000E+00 0. -1.
         -6    2    1    2    0  503  0.10897635181E+03 -0.42325194550E+02 -0.58923204780E+02  0.21661829502E+03  0.17258121082E+03 0.  0.
        -24    2    3    3    0    0  0.86605501816E+02 -0.80502900143E+02 -0.83588901233E+02  0.16574120081E+03  0.80633810285E+02 0.  0.
          6    2    1    2  501    0 -0.10897635181E+03  0.42325194550E+02  0.98795826015E+02  0.23146511009E+03  0.17363241230E+03 0.  0.
         24    2    5    5    0    0 -0.68069585745E+02  0.93278177265E+02  0.45669829394E+02  0.14712039197E+03  0.78894800582E+02 0.  0.
          5    1    5    5  501    0 -0.40906766061E+02 -0.50952982715E+02  0.53125996622E+02  0.84344718117E+02  0.47000000000E+01 0. -1.
        -13    1    6    6    0    0  0.15720610624E+02  0.22397476389E+02  0.21353844987E+02  0.34709814789E+02  0.00000000000E+00 0.  1.
         14    1    6    6    0    0 -0.83790196369E+02  0.70880700876E+02  0.24315984407E+02  0.11241057718E+03  0.00000000000E+00 0. -1.
         -5    1    3    3    0  503  0.22370849990E+02  0.38177705593E+02  0.24665696453E+02  0.50877094209E+02  0.47000000000E+01 0.  1.
         13    1    4    4    0    0  0.72829422899E+02 -0.12705861436E+02 -0.42360221917E+02  0.85205352857E+02  0.00000000000E+00 0. -1.
        -14    1    4    4    0    0  0.13776078917E+02 -0.67797038707E+02 -0.41228679316E+02  0.80535847955E+02  0.00000000000E+00 0.  1.
<mgrwt>
<rscale>  2 0.20910335E+03</rscale>
<asrwt>0</asrwt>
<pdfrwt beam="1">  1       21 0.37535079E-01 0.20932148E+03</pdfrwt>
<pdfrwt beam="2">  1       21 0.31400830E-01 0.20932148E+03</pdfrwt>
<totfact> 0.66224605E+04</totfact>
</mgrwt>
</event>
<event>
12    1  0.1050690E-001  0.2136469E+03  0.7546771E-02  0.1138848E+00
         21   -1    0    0  501  502  0.00000000000E+00  0.00000000000E+00  0.38493446616E+02  0.38493446616E+02  0.00000000000E+00 0.  1.
         21   -1    0    0  502  503 -0.00000000000E+00 -0.00000000000E+00 -0.15489229369E+04  0.15489229369E+04  0.00000000000E+00 0.  1.
         -6    2    1    2    0  503 -0.28140497134E+02  0.12332050794E+03 -0.11406467064E+04  0.11603516136E+04  0.17129250747E+03 0.  0.
        -24    2    3    3    0    0  0.24127443962E+02  0.12621970112E+03 -0.96389662238E+03  0.97595252144E+03  0.82904034756E+02 0.  0.
          6    2    1    2  501    0  0.28140497134E+02 -0.12332050794E+03 -0.36978278386E+03  0.42706476989E+03  0.17217774300E+03 0.  0.
         24    2    5    5    0    0  0.65103998372E+02 -0.29451795328E+02 -0.14095889367E+03  0.17694460206E+03  0.79586705191E+02 0.  0.
          5    1    5    5  501    0 -0.36963501238E+02 -0.93868712608E+02 -0.22882389020E+03  0.25012016783E+03  0.47000000000E+01 0. -1.
        -13    1    6    6    0    0  0.58972330309E+02 -0.48838682444E+02 -0.13590773859E+03  0.15599316028E+03  0.00000000000E+00 0.  1.
         14    1    6    6    0    0  0.61316680628E+01  0.19386887115E+02 -0.50511550785E+01  0.20951441785E+02  0.00000000000E+00 0. -1.
         -5    1    3    3    0  503 -0.52267941096E+02 -0.28991931841E+01 -0.17675008405E+03  0.18439909219E+03  0.47000000000E+01 0.  1.
         13    1    4    4    0    0  0.30080234026E+02  0.65231470005E+01 -0.13690481102E+03  0.14032212657E+03  0.00000000000E+00 0. -1.
        -14    1    4    4    0    0 -0.59527900642E+01  0.11969655412E+03 -0.82699181136E+03  0.83563039487E+03  0.00000000000E+00 0.  1.
<mgrwt>
<rscale>  2 0.21346851E+03</rscale>
<asrwt>0</asrwt>
<pdfrwt beam="1">  1       21 0.59220679E-02 0.21364693E+03</pdfrwt>
<pdfrwt beam="2">  1       21 0.23829587E+00 0.21364693E+03</pdfrwt>
<totfact> 0.15447789E+04</totfact>
</mgrwt>
</event>
<event>
12    1  0.1050690E-001  0.2330751E+03  0.7546771E-02  0.1124988E+00
         21   -1    0    0  503  502  0.00000000000E+00  0.00000000000E+00  0.14522049911E+03  0.14522049911E+03  0.00000000000E+00 0.  1.
         21   -1    0    0  501  503 -0.00000000000E+00 -0.00000000000E+00 -0.38225335919E+03  0.38225335919E+03  0.00000000000E+00 0.  1.
          6    2    1    2  501    0 -0.14353714790E+03 -0.56004616206E+02 -0.16732681042E+03  0.28691859566E+03  0.17488450242E+03 0.  0.
         24    2    3    3    0    0 -0.14082256810E+03 -0.45061446048E+02 -0.59652139267E+02  0.17855325653E+03  0.80382573319E+02 0.  0.
         -6    2    1    2    0  502  0.14353714790E+03  0.56004616206E+02 -0.69706049662E+02  0.24055526264E+03  0.17108030617E+03 0.  0.
        -24    2    5    5    0    0  0.68483524729E+01  0.46617046033E+02 -0.49785965897E+02  0.10202420834E+03  0.75566181419E+02 0.  0.
          5    1    3    3  501    0 -0.27145798002E+01 -0.10943170158E+02 -0.10767467116E+03  0.10836533913E+03  0.47000000000E+01 0. -1.
        -13    1    4    4    0    0 -0.54270939843E+02 -0.59498300764E+02 -0.27365635688E+02  0.85054457389E+02  0.00000000000E+00 0.  1.
         14    1    4    4    0    0 -0.86551628254E+02  0.14436854716E+02 -0.32286503580E+02  0.93498799142E+02  0.00000000000E+00 0. -1.
         -5    1    5    5    0  502  0.13668879542E+03  0.93875701737E+01 -0.19920083765E+02  0.13853105430E+03  0.47000000000E+01 0.  1.
         13    1    6    6    0    0  0.11729217818E+02  0.60086314106E+02 -0.13053171911E+02  0.62596525386E+02  0.00000000000E+00 0. -1.
        -14    1    6    6    0    0 -0.48808653448E+01 -0.13469268073E+02 -0.36732793985E+02  0.39427682951E+02  0.00000000000E+00 0.  1.
<mgrwt>
<rscale>  2 0.23236169E+03</rscale>
<asrwt>0</asrwt>
<pdfrwt beam="1">  1       21 0.22341615E-01 0.23307514E+03</pdfrwt>
<pdfrwt beam="2">  1       21 0.58808209E-01 0.23307514E+03</pdfrwt>
<totfact> 0.49777528E+04</totfact>
</mgrwt>
</event>
<event>
12    1  0.1050690E-001  0.2047709E+03  0.7546771E-02  0.1145783E+00
         21   -1    0    0  501  502  0.00000000000E+00  0.00000000000E+00  0.12103841858E+03  0.12103841858E+03  0.00000000000E+00 0.  1.
         21   -1    0    0  502  503 -0.00000000000E+00 -0.00000000000E+00 -0.10840225669E+04  0.10840225669E+04  0.00000000000E+00 0.  1.
         -6    2    1    2    0  503 -0.10382760107E+03  0.34086580989E+02 -0.97854265417E+03  0.99973839964E+03  0.17317354286E+03 0.  0.
        -24    2    3    3    0    0  0.11805766527E+02 -0.25426934696E+02 -0.24593622175E+03  0.25566366612E+03  0.63979526977E+02 0.  0.
          6    2    1    2  501    0  0.10382760107E+03 -0.34086580989E+02  0.15558505889E+02  0.20532258580E+03  0.17312778918E+03 0.  0.
         24    2    5    5    0    0  0.70293084069E+02  0.44585260503E+02  0.25712544524E+02  0.11907284972E+03  0.81168007687E+02 0.  0.
          5    1    5    5  501    0  0.33534517001E+02 -0.78671841491E+02 -0.10154038635E+02  0.86249736085E+02  0.47000000000E+01 0. -1.
        -13    1    6    6    0    0 -0.55452546469E-01 -0.25226147563E+01  0.33917984181E+02  0.34011708441E+02  0.00000000000E+00 0.  1.
         14    1    6    6    0    0  0.70348536615E+02  0.47107875259E+02 -0.82054396563E+01  0.85061141276E+02  0.00000000000E+00 0. -1.
         -5    1    3    3    0  503 -0.11563336760E+03  0.59513515684E+02 -0.73260643242E+03  0.74407473353E+03  0.47000000000E+01 0.  1.
         11    1    4    4    0    0  0.15835683751E+02  0.13448266794E+02 -0.15893186571E+03  0.16028400637E+03  0.00000000000E+00 0. -1.
        -12    1    4    4    0    0 -0.40299172242E+01 -0.38875201489E+02 -0.87004356041E+02  0.95379659749E+02  0.00000000000E+00 0.  1.
<mgrwt>
<rscale>  2 0.20476128E+03</rscale>
<asrwt>0</asrwt>
<pdfrwt beam="1">  1       21 0.18621295E-01 0.20477095E+03</pdfrwt>
<pdfrwt beam="2">  1       21 0.16677271E+00 0.20477095E+03</pdfrwt>
<totfact> 0.58695593E+03</totfact>
</mgrwt>
</event>
<event>
12    1  0.1050690E-001  0.1862261E+03  0.7546771E-02  0.1162358E+00
         21   -1    0    0  503  502  0.00000000000E+00  0.00000000000E+00  0.15591960500E+03  0.15591960500E+03  0.00000000000E+00 0. -1.
         21   -1    0    0  501  503 -0.00000000000E+00 -0.00000000000E+00 -0.47379753246E+03  0.47379753246E+03  0.00000000000E+00 0. -1.
          6    2    1    2  501    0  0.41678939603E+02 -0.53161858552E+02 -0.38970615360E+03  0.43191553390E+03  0.17354199797E+03 0.  0.
         24    2    3    3    0    0  0.64125286150E+02  0.20507874196E+02 -0.20345842849E+03  0.23031847760E+03  0.84372055660E+02 0.  0.
         -6    2    1    2    0  502 -0.41678939603E+02  0.53161858552E+02  0.71828226145E+02  0.19780160355E+03  0.17147263072E+03 0.  0.
        -24    2    5    5    0    0 -0.76643200761E+02  0.35153515845E+02  0.96495067640E+02  0.15113959508E+03  0.80136940438E+02 0.  0.
          5    1    3    3  501    0 -0.22446346547E+02 -0.73669732748E+02 -0.18624772512E+03  0.20159705630E+03  0.47000000000E+01 0. -1.
        -13    1    4    4    0    0 -0.17809094190E+02  0.17748718722E+02 -0.60590611870E+02  0.65600328497E+02  0.00000000000E+00 0.  1.
         14    1    4    4    0    0  0.81934380341E+02  0.27591554738E+01 -0.14286781662E+03  0.16471814911E+03  0.00000000000E+00 0. -1.
         -5    1    5    5    0  502  0.34964261158E+02  0.18008342708E+02 -0.24666841494E+02  0.46662008473E+02  0.47000000000E+01 0.  1.
         11    1    6    6    0    0 -0.84943942631E+02  0.31667664491E+02  0.49497626830E+02  0.10328760538E+03  0.00000000000E+00 0. -1.
        -12    1    6    6    0    0  0.83007418695E+01  0.34858513538E+01  0.46997440809E+02  0.47851989696E+02  0.00000000000E+00 0.  1.
<mgrwt>
<rscale>  2 0.18574245E+03</rscale>
<asrwt>0</asrwt>
<pdfrwt beam="1">  1       21 0.23987632E-01 0.18622605E+03</pdfrwt>
<pdfrwt beam="2">  1       21 0.72891928E-01 0.18622605E+03</pdfrwt>
<totfact> 0.27862123E+04</totfact>
</mgrwt>
</event>
<event>
12    1  0.1050690E-001  0.2392844E+03  0.7546771E-02  0.1120983E+00
         21   -1    0    0  501  502  0.00000000000E+00  0.00000000000E+00  0.66982119417E+02  0.66982119417E+02  0.00000000000E+00 0. -1.
         21   -1    0    0  502  503 -0.00000000000E+00 -0.00000000000E+00 -0.84474282357E+03  0.84474282357E+03  0.00000000000E+00 0.  1.
         -6    2    1    2    0  503 -0.13025681369E+03 -0.93378860042E+02 -0.35055316116E+03  0.42206863676E+03  0.17195338414E+03 0.  0.
        -24    2    3    3    0    0 -0.11238910018E+03  0.13224046249E+01 -0.22006026171E+03  0.25977855227E+03  0.80158086561E+02 0.  0.
          6    2    1    2  501    0  0.13025681369E+03  0.93378860042E+02 -0.42720754299E+03  0.48965630623E+03  0.17768107504E+03 0.  0.
         24    2    5    5    0    0  0.36229600713E+02  0.94917423782E+02 -0.15754780858E+03  0.20403077110E+03  0.80531622737E+02 0.  0.
          5    1    5    5  501    0  0.94027212979E+02 -0.15385637405E+01 -0.26965973440E+03  0.28562553513E+03  0.47000000000E+01 0. -1.
        -11    1    6    6    0    0  0.15445471732E+02  0.44435578326E+02 -0.13840073058E+03  0.14617744506E+03  0.00000000000E+00 0.  1.
         12    1    6    6    0    0  0.20784128981E+02  0.50481845456E+02 -0.19147078004E+02  0.57853326043E+02  0.00000000000E+00 0. -1.
         -5    1    3    3    0  503 -0.17867713512E+02 -0.94701264667E+02 -0.13049289945E+03  0.16229008449E+03  0.47000000000E+01 0.  1.
         13    1    4    4    0    0  0.15476985009E+01  0.93192295720E+01  0.23677053928E+01  0.97390676808E+01  0.00000000000E+00 0. -1.
        -14    1    4    4    0    0 -0.11393679868E+03 -0.79968249471E+01 -0.22242796711E+03  0.25003948459E+03  0.00000000000E+00 0.  1.
<mgrwt>
<rscale>  2 0.23822187E+03</rscale>
<asrwt>0</asrwt>
<pdfrwt beam="1">  1       21 0.10304941E-01 0.23928438E+03</pdfrwt>
<pdfrwt beam="2">  1       21 0.12996044E+00 0.23928438E+03</pdfrwt>
<totfact> 0.32440782E+04</totfact>
</mgrwt>
</event>
<event>
12    1  0.1050690E-001  0.2126469E+03  0.7546771E-02  0.1140964E+00
         21   -1    0    0  503  502  0.00000000000E+00  0.00000000000E+00  0.42872250633E+03  0.42872250633E+03  0.00000000000E+00 0.  1.
         21   -1    0    0  501  503 -0.00000000000E+00 -0.00000000000E+00 -0.10201765863E+03  0.10201765863E+03  0.00000000000E+00 0.  1.
          6    2    1    2  501    0  0.11094596356E+03  0.99964999552E+01  0.15440932717E+03  0.26279447329E+03  0.18113464062E+03 0.  0.
         24    2    3    3    0    0  0.65419616745E+01  0.12457755434E+02  0.13151576671E+03  0.15577831330E+03  0.82295158239E+02 0.  0.
         -6    2    1    2    0  502 -0.11094596356E+03 -0.99964999552E+01  0.17229552053E+03  0.26794569166E+03  0.17233748996E+03 0.  0.
        -24    2    5    5    0    0 -0.61500216521E+02 -0.61235224642E+02  0.51014194024E+02  0.12722775049E+03  0.77797320872E+02 0.  0.
          5    1    3    3  501    0  0.10440400188E+03 -0.24612554784E+01  0.22893560465E+02  0.10701615999E+03  0.47000000000E+01 0. -1.
        -11    1    4    4    0    0  0.43645804924E+02  0.15361029971E+02  0.73440928207E+02  0.86801425479E+02  0.00000000000E+00 0.  1.
         12    1    4    4    0    0 -0.37103843249E+02 -0.29032745375E+01  0.58074838501E+02  0.68976887824E+02  0.00000000000E+00 0. -1.
         -5    1    5    5    0  502 -0.49445747037E+02  0.51238724687E+02  0.12128132650E+03  0.14071794117E+03  0.47000000000E+01 0.  1.
         13    1    6    6    0    0 -0.55668218123E+01  0.17114229924E+02  0.18010989655E+02  0.25461384867E+02  0.00000000000E+00 0. -1.
        -14    1    6    6    0    0 -0.55933394708E+02 -0.78349454567E+02  0.33003204370E+02  0.10176636563E+03  0.00000000000E+00 0.  1.
<mgrwt>
<rscale>  2 0.21076152E+03</rscale>
<asrwt>0</asrwt>
<pdfrwt beam="1">  1       21 0.65957308E-01 0.21264688E+03</pdfrwt>
<pdfrwt beam="2">  1       21 0.15695025E-01 0.21264688E+03</pdfrwt>
<totfact> 0.75583998E+04</totfact>
</mgrwt>
</event>
<event>
12    1  0.1050690E-001  0.2063203E+03  0.7546771E-02  0.1144532E+00
         21   -1    0    0  503  502  0.00000000000E+00  0.00000000000E+00  0.19652163932E+03  0.19652163932E+03  0.00000000000E+00 0. -1.
         21   -1    0    0  501  503 -0.00000000000E+00 -0.00000000000E+00 -0.95975862095E+03  0.95975862095E+03  0.00000000000E+00 0. -1.
          6    2    1    2  501    0  0.37866907195E+02 -0.10510162442E+03 -0.89036623877E+03  0.91393771836E+03  0.17334895379E+03 0.  0.
         24    2    3    3    0    0  0.13742142231E+02 -0.51798840383E+02 -0.80157245736E+03  0.80749704621E+03  0.81615616736E+02 0.  0.
         -6    2    1    2    0  502 -0.37866907195E+02  0.10510162442E+03  0.12712925714E+03  0.24234254191E+03  0.17345836815E+03 0.  0.
        -24    2    5    5    0    0 -0.36125101647E+02 -0.11460219283E+02  0.69151473928E+02  0.11206126681E+03  0.79620610262E+02 0.  0.
          5    1    3    3  501    0  0.24124764964E+02 -0.53302784041E+02 -0.88793781409E+02  0.10644067215E+03  0.47000000000E+01 0. -1.
        -11    1    4    4    0    0 -0.29930221865E+02 -0.16661811175E+02 -0.16842408644E+03  0.17187235678E+03  0.00000000000E+00 0.  1.
         12    1    4    4    0    0  0.43672364096E+02 -0.35137029208E+02 -0.63314837092E+03  0.63562468943E+03  0.00000000000E+00 0. -1.
         -5    1    5    5    0  502 -0.17418055485E+01  0.11656184371E+03  0.57977783213E+02  0.13028127510E+03  0.47000000000E+01 0.  1.
         13    1    6    6    0    0 -0.34506248180E+02  0.28076579491E+02  0.53323135246E+02  0.69443014277E+02  0.00000000000E+00 0. -1.
        -14    1    6    6    0    0 -0.16188534663E+01 -0.39536798774E+02  0.15828338682E+02  0.42618252536E+02  0.00000000000E+00 0.  1.
<mgrwt>
<rscale>  2 0.20629729E+03</rscale>
<asrwt>0</asrwt>
<pdfrwt beam="1">  1       21 0.30234098E-01 0.20632028E+03</pdfrwt>
<pdfrwt beam="2">  1       21 0.14765517E+00 0.20632028E+03</pdfrwt>
<totfact> 0.32305857E+03</totfact>
</mgrwt>
</event>
<event>
12    1  0.1050690E-001  0.1875295E+03  0.7546771E-02  0.1160957E+00
         21   -1    0    0  503  502  0.00000000000E+00  0.00000000000E+00  0.71265688799E+03  0.71265688799E+03  0.00000000000E+00 0. -1.
         21   -1    0    0  501  503 -0.00000000000E+00 -0.00000000000E+00 -0.49193976514E+02  0.49193976514E+02  0.00000000000E+00 0.  1.
          6    2    1    2  501    0  0.34919039289E+02 -0.59859377583E+02  0.31307277702E+03  0.36494093227E+03  0.17425508872E+03 0.  0.
         24    2    3    3    0    0  0.11508125764E+02  0.36592507021E+02  0.14126897764E+03  0.16647261642E+03  0.79276474723E+02 0.  0.
         -6    2    1    2    0  502 -0.34919039289E+02  0.59859377583E+02  0.35039013445E+03  0.39690993223E+03  0.17309466656E+03 0.  0.
        -24    2    5    5    0    0 -0.40141937065E+02  0.10700781951E+03  0.26050114597E+03  0.29516331318E+03  0.78730463301E+02 0.  0.
          5    1    3    3  501    0  0.23410913525E+02 -0.96451884604E+02  0.17180379938E+03  0.19846831585E+03  0.47000000000E+01 0. -1.
        -13    1    4    4    0    0  0.34543110079E+02  0.16701649754E+01  0.10682168036E+03  0.11228039589E+03  0.00000000000E+00 0.  1.
         14    1    4    4    0    0 -0.23034984315E+02  0.34922342045E+02  0.34447297280E+02  0.54192220532E+02  0.00000000000E+00 0. -1.
         -5    1    5    5    0  502  0.52228977764E+01 -0.47148441923E+02  0.89888988481E+02  0.10174661905E+03  0.47000000000E+01 0.  1.
         13    1    6    6    0    0 -0.29217578524E+02  0.52995087446E+01  0.10432437210E+03  0.10846808887E+03  0.00000000000E+00 0. -1.
        -14    1    6    6    0    0 -0.10924358541E+02  0.10170831076E+03  0.15617677387E+03  0.18669522432E+03  0.00000000000E+00 0.  1.
<mgrwt>
<rscale>  2 0.18725949E+03</rscale>
<asrwt>0</asrwt>
<pdfrwt beam="1">  1       21 0.10963951E+00 0.18752952E+03</pdfrwt>
<pdfrwt beam="2">  1       21 0.75683046E-02 0.18752952E+03</pdfrwt>
<totfact> 0.87188851E+04</totfact>
</mgrwt>
</event>
<event>
11    1  0.1050690E-001  0.3055878E+03  0.7546771E-02  0.1082488E+00
         21   -1    0    0  503  502  0.00000000000E+00  0.00000000000E+00  0.32671096902E+03  0.32671096902E+03  0.00000000000E+00 0.  1.
         21   -1    0    0  501  503 -0.00000000000E+00 -0.00000000000E+00 -0.61642681022E+03  0.61642681022E+03  0.00000000000E+00 0.  1.
          6    2    1    2  501    0  0.23559255652E+03  0.89308198565E+02 -0.49024365044E+03  0.57768739595E+03  0.17292797233E+03 0.  0.
         24    2    3    3    0    0  0.81024793997E+02  0.77433837106E+02 -0.31253599018E+03  0.34181816058E+03  0.81239727831E+02 0.  0.
         -6    2    1    2    0  502 -0.23559255652E+03 -0.89308198565E+02  0.20052780925E+03  0.36545038329E+03  0.17280848748E+03 0.  0.
          5    1    3    3  501    0  0.15456776253E+03  0.11874361459E+02 -0.17770766027E+03  0.23586923536E+03  0.47000000000E+01 0. -1.
        -13    1    4    4    0    0  0.55885119275E+02  0.32333174730E+02 -0.26099504141E+03  0.26886240418E+03  0.00000000000E+00 0.  1.
         14    1    4    4    0    0  0.25139674721E+02  0.45100662376E+02 -0.51540948771E+02  0.72955756401E+02  0.00000000000E+00 0. -1.
         -5    1    5    5    0  502 -0.10018860842E+03 -0.12244007896E+03  0.13267945630E+03  0.20653149473E+03  0.47000000000E+01 0.  1.
         11    1    5    5    0    0 -0.75101255075E+02  0.27850309773E+02  0.22246859124E+02  0.83130987058E+02  0.00000000000E+00 0. -1.
        -12    1    5    5    0    0 -0.60302693026E+02  0.52815706194E+01  0.45601493825E+02  0.75787901498E+02  0.00000000000E+00 0.  1.
<mgrwt>
<rscale>  2 0.30557088E+03</rscale>
<asrwt>0</asrwt>
<pdfrwt beam="1">  1       21 0.50263227E-01 0.30558778E+03</pdfrwt>
<pdfrwt beam="2">  1       21 0.94834892E-01 0.30558778E+03</pdfrwt>
<totfact> 0.32478413E+03</totfact>
</mgrwt>
</event>
<event>
12    1  0.1050690E-001  0.1910516E+03  0.7546771E-02  0.1157775E+00
         21   -1    0    0  501  502  0.00000000000E+00  0.00000000000E+00  0.19733872816E+03  0.19733872816E+03  0.00000000000E+00 0.  1.
         21   -1    0    0  502  503 -0.00000000000E+00 -0.00000000000E+00 -0.29295267729E+03  0.29295267729E+03  0.00000000000E+00 0.  1.
         -6    2    1    2    0  503 -0.72665475581E+02 -0.23682517954E+02 -0.19750122778E+03  0.27478619463E+03  0.17509878579E+03 0.  0.
        -24    2    3    3    0    0  0.17008472870E+02 -0.46784037081E+02 -0.12491040752E+03  0.15702960499E+03  0.81102729068E+02 0.  0.
          6    2    1    2  501    0  0.72665475581E+02  0.23682517954E+02  0.10188727864E+03  0.21550521082E+03  0.17383999927E+03 0.  0.
         24    2    5    5    0    0  0.68034483204E+02 -0.44297709177E+02  0.90664134041E+02  0.14628955981E+03  0.81176795722E+02 0.  0.
          5    1    5    5  501    0  0.46309923770E+01  0.67980227131E+02  0.11223144603E+02  0.69215651019E+02  0.47000000000E+01 0. -1.
        -11    1    6    6    0    0  0.22362612475E+02  0.23642587755E+02  0.31429015489E+02  0.45242031421E+02  0.00000000000E+00 0.  1.
         12    1    6    6    0    0  0.45671870729E+02 -0.67940296931E+02  0.59235118552E+02  0.10104752839E+03  0.00000000000E+00 0. -1.
         -5    1    3    3    0  503 -0.89673948451E+02  0.23101519126E+02 -0.72590820257E+02  0.11775658963E+03  0.47000000000E+01 0.  1.
         11    1    4    4    0    0  0.68307875041E+01  0.21194675347E+02 -0.53319376276E+02  0.57782608174E+02  0.00000000000E+00 0. -1.
        -12    1    4    4    0    0  0.10177685366E+02 -0.67978712428E+02 -0.71591031245E+02  0.99246996818E+02  0.00000000000E+00 0.  1.
<mgrwt>
<rscale>  2 0.19076270E+03</rscale>
<asrwt>0</asrwt>
<pdfrwt beam="1">  1       21 0.30359805E-01 0.19105161E+03</pdfrwt>
<pdfrwt beam="2">  1       21 0.45069642E-01 0.19105161E+03</pdfrwt>
<totfact> 0.49217935E+04</totfact>
</mgrwt>
</event>
<event>
12    1  0.1050690E-001  0.1955358E+03  0.7546771E-02  0.1153629E+00
         21   -1    0    0  501  502  0.00000000000E+00  0.00000000000E+00  0.16739339247E+02  0.16739339247E+02  0.00000000000E+00 0.  1.
         21   -1    0    0  502  503 -0.00000000000E+00 -0.00000000000E+00 -0.22804830846E+04  0.22804830846E+04  0.00000000000E+00 0.  1.
         -6    2    1    2    0  503 -0.11920376634E+01 -0.90726965149E+02 -0.11357917032E+04  0.11524473111E+04  0.17285603415E+03 0.  0.
        -24    2    3    3    0    0 -0.58794323786E+02 -0.22059147741E+02 -0.75058252762E+03  0.75692045803E+03  0.74907079141E+02 0.  0.
          6    2    1    2  501    0  0.11920376634E+01  0.90726965149E+02 -0.11279520421E+04  0.11447751127E+04  0.17320925584E+03 0.  0.
         24    2    5    5    0    0 -0.39797356040E+02  0.11735081154E+03 -0.77109223279E+03  0.78455299641E+03  0.74733728583E+02 0.  0.
          5    1    5    5  501    0  0.40989393703E+02 -0.26623846389E+02 -0.35685980929E+03  0.36022211631E+03  0.47000000000E+01 0. -1.
        -13    1    6    6    0    0 -0.29494094806E+01  0.25349736347E+02 -0.38835711769E+03  0.38919475717E+03  0.00000000000E+00 0.  1.
         14    1    6    6    0    0 -0.36847946559E+02  0.92001075192E+02 -0.38273511510E+03  0.39535823923E+03  0.00000000000E+00 0. -1.
         -5    1    3    3    0  503  0.57602286123E+02 -0.68667817408E+02 -0.38520917561E+03  0.39552685306E+03  0.47000000000E+01 0.  1.
         13    1    4    4    0    0 -0.85497896710E+00  0.22584207297E+01 -0.44194088026E+03  0.44194747776E+03  0.00000000000E+00 0. -1.
        -14    1    4    4    0    0 -0.57939344819E+02 -0.24317568471E+02 -0.30864164736E+03  0.31497298027E+03  0.00000000000E+00 0.  1.
<mgrwt>
<rscale>  2 0.19545755E+03</rscale>
<asrwt>0</asrwt>
<pdfrwt beam="1">  1       21 0.25752828E-02 0.19553580E+03</pdfrwt>
<pdfrwt beam="2">  1       21 0.35084358E+00 0.19553580E+03</pdfrwt>
<totfact> 0.14023448E+04</totfact>
</mgrwt>
</event>
<event>
12    1  0.1050690E-001  0.1841117E+03  0.7546771E-02  0.1163974E+00
         21   -1    0    0  501  502  0.00000000000E+00  0.00000000000E+00  0.38406465259E+03  0.38406465259E+03  0.00000000000E+00 0.  1.
         21   -1    0    0  502  503 -0.00000000000E+00 -0.00000000000E+00 -0.10704451471E+03  0.10704451471E+03  0.00000000000E+00 0.  1.
         -6    2    1    2    0  503 -0.28829302431E+02  0.54275291980E+02  0.24200801689E+03  0.30408055729E+03  0.17355163234E+03 0.  0.
        -24    2    3    3    0    0 -0.59253419217E+02  0.73095275420E+02  0.10546767242E+03  0.16285317211E+03  0.80893997069E+02 0.  0.
          6    2    1    2  501    0  0.28829302431E+02 -0.54275291980E+02  0.35012120993E+02  0.18702861000E+03  0.17313843116E+03 0.  0.
         24    2    5    5    0    0  0.12131813454E+02 -0.10363623861E+03  0.30514070837E+02  0.13451545312E+03  0.79218986106E+02 0.  0.
          5    1    5    5  501    0  0.16697488977E+02  0.49360946626E+02  0.44980501566E+01  0.52513156877E+02  0.47000000000E+01 0. -1.
        -11    1    6    6    0    0 -0.57847727639E+01 -0.59571906861E+02 -0.21901707908E+02  0.63733511532E+02  0.00000000000E+00 0.  1.
         12    1    6    6    0    0  0.17916586218E+02 -0.44064331745E+02  0.52415778745E+02  0.70781941590E+02  0.00000000000E+00 0. -1.
         -5    1    3    3    0  503  0.30424116787E+02 -0.18819983440E+02  0.13654034447E+03  0.14122738519E+03  0.47000000000E+01 0.  1.
         13    1    4    4    0    0 -0.11556822114E+02  0.18506090724E+01 -0.12432697158E+02  0.17075035870E+02  0.00000000000E+00 0. -1.
        -14    1    4    4    0    0 -0.47696597103E+02  0.71244666347E+02  0.11790036958E+03  0.14577813624E+03  0.00000000000E+00 0.  1.
<mgrwt>
<rscale>  2 0.18401423E+03</rscale>
<asrwt>0</asrwt>
<pdfrwt beam="1">  1       21 0.59086869E-01 0.18411166E+03</pdfrwt>
<pdfrwt beam="2">  1       21 0.16468387E-01 0.18411166E+03</pdfrwt>
<totfact> 0.88862127E+04</totfact>
</mgrwt>
</event>
<event>
12    1  0.1050690E-001  0.1898589E+03  0.7546771E-02  0.1158767E+00
         21   -1    0    0  501  502  0.00000000000E+00  0.00000000000E+00  0.25050029268E+02  0.25050029268E+02  0.00000000000E+00 0.  1.
         21   -1    0    0  502  503 -0.00000000000E+00 -0.00000000000E+00 -0.15337305774E+04  0.15337305774E+04  0.00000000000E+00 0. -1.
         -6    2    1    2    0  503  0.75289829897E+02 -0.12915229749E+02 -0.55313201190E+03  0.58455300410E+03  0.17295036969E+03 0.  0.
        -24    2    3    3    0    0 -0.20253600947E+02 -0.95711493848E+01 -0.35284861741E+03  0.36257269381E+03  0.80342991211E+02 0.  0.
          6    2    1    2  501    0 -0.75289829897E+02  0.12915229749E+02 -0.95554853619E+03  0.97422760252E+03  0.17381327582E+03 0.  0.
         24    2    5    5    0    0 -0.30657504118E+02  0.50389537086E+02 -0.30586266849E+03  0.32191618540E+03  0.81234662799E+02 0.  0.
          5    1    5    5  501    0 -0.44632325779E+02 -0.37474307337E+02 -0.64968586770E+03  0.65231141712E+03  0.47000000000E+01 0. -1.
        -13    1    6    6    0    0  0.30605891194E+01 -0.38297144482E+01  0.35063073532E+01  0.60272804620E+01  0.00000000000E+00 0.  1.
         14    1    6    6    0    0 -0.33718093237E+02  0.54219251534E+02 -0.30936897584E+03  0.31588890494E+03  0.00000000000E+00 0. -1.
         -5    1    3    3    0  503  0.95543430844E+02 -0.33440803643E+01 -0.20028339449E+03  0.22198031029E+03  0.47000000000E+01 0.  1.
         13    1    4    4    0    0 -0.67277895539E+01 -0.75176864271E+01 -0.65106518000E+00  0.10109532500E+02  0.00000000000E+00 0. -1.
        -14    1    4    4    0    0 -0.13525811393E+02 -0.20534629577E+01 -0.35219755223E+03  0.35246316131E+03  0.00000000000E+00 0.  1.
<mgrwt>
<rscale>  2 0.18966121E+03</rscale>
<asrwt>0</asrwt>
<pdfrwt beam="1">  1       21 0.38538524E-02 0.18985894E+03</pdfrwt>
<pdfrwt beam="2">  1       21 0.23595845E+00 0.18985894E+03</pdfrwt>
<totfact> 0.33661373E+04</totfact>
</mgrwt>
</event>
<event>
12    1  0.1050690E-001  0.1871293E+03  0.7546771E-02  0.1161172E+00
         21   -1    0    0  503  502  0.00000000000E+00  0.00000000000E+00  0.25173208802E+03  0.25173208802E+03  0.00000000000E+00 0. -1.
         21   -1    0    0  501  503 -0.00000000000E+00 -0.00000000000E+00 -0.17010294364E+03  0.17010294364E+03  0.00000000000E+00 0. -1.
          6    2    1    2  501    0 -0.23530935293E+02 -0.67539420165E+02 -0.49704307430E+02  0.19321774003E+03  0.17247405223E+03 0.  0.
         24    2    3    3    0    0 -0.58194131569E+02 -0.17342242664E+02  0.17454455787E+02  0.10236795587E+03  0.80543342572E+02 0.  0.
         -6    2    1    2    0  502  0.23530935293E+02  0.67539420165E+02  0.13133345182E+03  0.22861729163E+03  0.17292227235E+03 0.  0.
        -24    2    5    5    0    0 -0.29355428680E+02  0.40423051440E+02  0.14029387770E+03  0.16832928138E+03  0.78464071840E+02 0.  0.
          5    1    3    3  501    0  0.34663196276E+02 -0.50197177501E+02 -0.67158763218E+02  0.90849784161E+02  0.47000000000E+01 0. -1.
        -13    1    4    4    0    0 -0.29298510209E+02  0.30273750799E+02  0.19949772636E+02  0.46614333806E+02  0.00000000000E+00 0.  1.
         14    1    4    4    0    0 -0.28895621359E+02 -0.47615993463E+02 -0.24953168489E+01  0.55753622065E+02  0.00000000000E+00 0. -1.
         -5    1    5    5    0  502  0.52886363973E+02  0.27116368725E+02 -0.89604258856E+01  0.60288010244E+02  0.47000000000E+01 0.  1.
         11    1    6    6    0    0  0.99331384065E+01  0.46991070733E+02  0.10350676728E+03  0.11410731283E+03  0.00000000000E+00 0. -1.
        -12    1    6    6    0    0 -0.39288567087E+02 -0.65680192935E+01  0.36787110421E+02  0.54221968558E+02  0.00000000000E+00 0.  1.
<mgrwt>
<rscale>  2 0.18702573E+03</rscale>
<asrwt>0</asrwt>
<pdfrwt beam="1">  1       21 0.38728013E-01 0.18712934E+03</pdfrwt>
<pdfrwt beam="2">  1       21 0.26169684E-01 0.18712934E+03</pdfrwt>
<totfact> 0.89410615E+04</totfact>
</mgrwt>
</event>
<event>
12    1  0.1050690E-001  0.1776226E+03  0.7546771E-02  0.1170283E+00
         21   -1    0    0  501  502  0.00000000000E+00  0.00000000000E+00  0.12336329006E+03  0.12336329006E+03  0.00000000000E+00 0.  1.
         21   -1    0    0  502  503 -0.00000000000E+00 -0.00000000000E+00 -0.28953809001E+03  0.28953809001E+03  0.00000000000E+00 0.  1.
         -6    2    1    2    0  503  0.76307435867E+01 -0.39579798793E+02 -0.15471019741E+03  0.23555264054E+03  0.17298847523E+03 0.  0.
        -24    2    3    3    0    0 -0.59449268659E+02 -0.35015278148E+01 -0.10280514815E+03  0.14326182942E+03  0.80053588548E+02 0.  0.
          6    2    1    2  501    0 -0.76307435867E+01  0.39579798793E+02 -0.11464602534E+02  0.17734873953E+03  0.17232628814E+03 0.  0.
         24    2    5    5    0    0 -0.52177376316E+02 -0.13545414134E+02  0.22782688927E+02  0.99878372886E+02  0.80936281187E+02 0.  0.
          5    1    5    5  501    0  0.44546632729E+02  0.53125212927E+02 -0.34247291461E+02  0.77470366647E+02  0.47000000000E+01 0. -1.
        -13    1    6    6    0    0 -0.71455130544E+02 -0.76108039046E+01  0.30788250079E+02  0.78177211258E+02  0.00000000000E+00 0.  1.
         14    1    6    6    0    0  0.19277754228E+02 -0.59346102290E+01 -0.80055611528E+01  0.21701161628E+02  0.00000000000E+00 0. -1.
         -5    1    3    3    0  503  0.67080012246E+02 -0.36078270978E+02 -0.51905049260E+02  0.92290811127E+02  0.47000000000E+01 0.  1.
         13    1    4    4    0    0 -0.38476866594E+02 -0.40119183879E+02 -0.72265184340E+02  0.91171678967E+02  0.00000000000E+00 0. -1.
        -14    1    4    4    0    0 -0.20972402066E+02  0.36617656064E+02 -0.30539963814E+02  0.52090150449E+02  0.00000000000E+00 0.  1.
<mgrwt>
<rscale>  2 0.17746121E+03</rscale>
<asrwt>0</asrwt>
<pdfrwt beam="1">  1       21 0.18978968E-01 0.17762264E+03</pdfrwt>
<pdfrwt beam="2">  1       21 0.44544321E-01 0.17762264E+03</pdfrwt>
<totfact> 0.12379748E+05</totfact>
</mgrwt>
</event>
<event>
12    1  0.1050690E-001  0.1839062E+03  0.7546771E-02  0.1164113E+00
         21   -1    0    0  501  502  0.00000000000E+00  0.00000000000E+00  0.15523424181E+03  0.15523424181E+03  0.00000000000E+00 0.  1.
         21   -1    0    0  502  503 -0.00000000000E+00 -0.00000000000E+00 -0.21999808384E+03  0.21999808384E+03  0.00000000000E+00 0.  1.
         -6    2    1    2    0  503  0.30666470265E+02  0.50906842380E+02 -0.51600520477E+02  0.19085565135E+03  0.17387158174E+03 0.  0.
        -24    2    3    3    0    0  0.68048105166E+02  0.95720539188E+01 -0.75465227017E+02  0.13004804012E+03  0.80593569327E+02 0.  0.
          6    2    1    2  501    0 -0.30666470265E+02 -0.50906842380E+02 -0.13163321561E+02  0.18437667430E+03  0.17403892092E+03 0.  0.
         24    2    5    5    0    0 -0.32728984767E+00 -0.53626727166E+02  0.54543804832E+02  0.10998441257E+03  0.79029180543E+02 0.  0.
          5    1    5    5  501    0 -0.30339180417E+02  0.27198847863E+01 -0.67707126394E+02  0.74392261736E+02  0.47000000000E+01 0. -1.
        -11    1    6    6    0    0  0.29288699913E+02 -0.25223555390E+02  0.57007231081E+02  0.68875830918E+02  0.00000000000E+00 0.  1.
         12    1    6    6    0    0 -0.29615989760E+02 -0.28403171776E+02 -0.24634262488E+01  0.41108581650E+02  0.00000000000E+00 0. -1.
         -5    1    3    3    0  503 -0.37381634901E+02  0.41334788461E+02  0.23864706540E+02  0.60807611228E+02  0.47000000000E+01 0.  1.
         11    1    4    4    0    0 -0.93799619158E+01 -0.19557697145E+02 -0.25193987904E+02  0.33244912839E+02  0.00000000000E+00 0. -1.
        -12    1    4    4    0    0  0.77428067082E+02  0.29129751064E+02 -0.50271239113E+02  0.96803127279E+02  0.00000000000E+00 0.  1.
<mgrwt>
<rscale>  2 0.18386658E+03</rscale>
<asrwt>0</asrwt>
<pdfrwt beam="1">  1       21 0.23882191E-01 0.18390619E+03</pdfrwt>
<pdfrwt beam="2">  1       21 0.33845859E-01 0.18390619E+03</pdfrwt>
<totfact> 0.13937848E+05</totfact>
</mgrwt>
</event>
<event>
12    1  0.1050690E-001  0.1888390E+03  0.7546771E-02  0.1161267E+00
         21   -1    0    0  503  502  0.00000000000E+00  0.00000000000E+00  0.29774875691E+02  0.29774875691E+02  0.00000000000E+00 0.  1.
         21   -1    0    0  501  503 -0.00000000000E+00 -0.00000000000E+00 -0.12154481514E+04  0.12154481514E+04  0.00000000000E+00 0.  1.
          6    2    1    2  501    0  0.37757282038E+02 -0.35327640352E+02 -0.72557797886E+03  0.74788222979E+03  0.17375491854E+03 0.  0.
         24    2    3    3    0    0 -0.15160561086E+01  0.32950641908E+02 -0.52806531669E+03  0.53519076162E+03  0.80548925517E+02 0.  0.
         -6    2    1    2    0  502 -0.37757282038E+02  0.35327640352E+02 -0.46009529690E+03  0.49734079735E+03  0.18162194789E+03 0.  0.
        -24    2    5    5    0    0  0.78805092946E+01 -0.12011500057E+02 -0.39941880064E+03  0.40774431633E+03  0.80707314631E+02 0.  0.
          5    1    3    3  501    0  0.39273338147E+02 -0.68278282260E+02 -0.19751266217E+03  0.21269146817E+03  0.47000000000E+01 0. -1.
        -13    1    4    4    0    0  0.38705900572E+01 -0.26061955345E+02 -0.21065428566E+03  0.21229563125E+03  0.00000000000E+00 0.  1.
         14    1    4    4    0    0 -0.53866461657E+01  0.59012597253E+02 -0.31741103103E+03  0.32289513036E+03  0.00000000000E+00 0. -1.
         -5    1    5    5    0  502 -0.45637791333E+02  0.47339140409E+02 -0.60676496265E+02  0.89596481021E+02  0.47000000000E+01 0.  1.
         13    1    6    6    0    0 -0.30674073548E+02 -0.26740037402E+02 -0.20159484922E+03  0.20566091418E+03  0.00000000000E+00 0. -1.
        -14    1    6    6    0    0  0.38554582842E+02  0.14728537344E+02 -0.19782395142E+03  0.20208340215E+03  0.00000000000E+00 0.  1.
<mgrwt>
<rscale>  2 0.18692165E+03</rscale>
<asrwt>0</asrwt>
<pdfrwt beam="1">  1       21 0.45807506E-02 0.18883905E+03</pdfrwt>
<pdfrwt beam="2">  1       21 0.18699200E+00 0.18883905E+03</pdfrwt>
<totfact> 0.51057139E+04</totfact>
</mgrwt>
</event>
<event>
12    1  0.1050690E-001  0.1847677E+03  0.7546771E-02  0.1163738E+00
         21   -1    0    0  501  502  0.00000000000E+00  0.00000000000E+00  0.11143937861E+03  0.11143937861E+03  0.00000000000E+00 0. -1.
         21   -1    0    0  502  503 -0.00000000000E+00 -0.00000000000E+00 -0.52597884101E+03  0.52597884101E+03  0.00000000000E+00 0. -1.
         -6    2    1    2    0  503  0.58551908660E+02 -0.28459739219E+02 -0.41411252459E+03  0.45265005774E+03  0.17077648839E+03 0.  0.
        -24    2    3    3    0    0  0.61585360690E+02  0.30824347920E+02 -0.34893372197E+03  0.36436545472E+03  0.79148879923E+02 0.  0.
          6    2    1    2  501    0 -0.58551908660E+02  0.28459739219E+02 -0.42693780547E+00  0.18476816188E+03  0.17291850278E+03 0.  0.
         24    2    5    5    0    0  0.16154473513E+02  0.35702085219E+02  0.41422203404E+02  0.98704605517E+02  0.80567948415E+02 0.  0.
          5    1    5    5  501    0 -0.74706382174E+02 -0.72423460002E+01 -0.41849141210E+02  0.86063556359E+02  0.47000000000E+01 0. -1.
        -11    1    6    6    0    0  0.12100331101E+02  0.38614721657E+02 -0.14180011324E+02  0.42878753043E+02  0.00000000000E+00 0.  1.
         12    1    6    6    0    0  0.40541424123E+01 -0.29126364376E+01  0.55602214728E+02  0.55825852474E+02  0.00000000000E+00 0. -1.
         -5    1    3    3    0  503 -0.30334520295E+01 -0.59284087139E+02 -0.65178802621E+02  0.88284603019E+02  0.47000000000E+01 0.  1.
         13    1    4    4    0    0  0.40258454077E+02 -0.23178807799E+02 -0.13943772387E+03  0.14697237527E+03  0.00000000000E+00 0. -1.
        -14    1    4    4    0    0  0.21326906613E+02  0.54003155719E+02 -0.20949599810E+03  0.21739307945E+03  0.00000000000E+00 0.  1.
<mgrwt>
<rscale>  2 0.18426485E+03</rscale>
<asrwt>0</asrwt>
<pdfrwt beam="1">  1       21 0.17144520E-01 0.18476767E+03</pdfrwt>
<pdfrwt beam="2">  1       21 0.80919821E-01 0.18476767E+03</pdfrwt>
<totfact> 0.41329578E+04</totfact>
</mgrwt>
</event>
<event>
12    1  0.1050690E-001  0.2495604E+03  0.7546771E-02  0.1113910E+00
         21   -1    0    0  501  502  0.00000000000E+00  0.00000000000E+00  0.62501867275E+02  0.62501867275E+02  0.00000000000E+00 0. -1.
         21   -1    0    0  502  503 -0.00000000000E+00 -0.00000000000E+00 -0.11796457163E+04  0.11796457163E+04  0.00000000000E+00 0. -1.
         -6    2    1    2    0  503 -0.17430870886E+03  0.46145888688E+02 -0.81067708951E+03  0.84822033923E+03  0.17253240683E+03 0.  0.
        -24    2    3    3    0    0 -0.43165126896E+02  0.64201546524E+02 -0.47118855953E+03  0.48380409665E+03  0.77863204064E+02 0.  0.
          6    2    1    2  501    0  0.17430870886E+03 -0.46145888688E+02 -0.30646675951E+03  0.39392724434E+03  0.16954005461E+03 0.  0.
         24    2    5    5    0    0  0.97912267796E+02 -0.45021559503E+02 -0.83520051274E+02  0.15820493941E+03  0.80246189225E+02 0.  0.
          5    1    5    5  501    0  0.76396441068E+02 -0.11243291843E+01 -0.22294670824E+03  0.23572230492E+03  0.47000000000E+01 0. -1.
        -11    1    6    6    0    0  0.20548557839E+02  0.89593196683E+01 -0.55407176664E+02  0.59770125180E+02  0.00000000000E+00 0.  1.
         12    1    6    6    0    0  0.77363709958E+02 -0.53980879172E+02 -0.28112874611E+02  0.98434814235E+02  0.00000000000E+00 0. -1.
         -5    1    3    3    0  503 -0.13114358197E+03 -0.18055657837E+02 -0.33948852998E+03  0.36441624258E+03  0.47000000000E+01 0.  1.
         13    1    4    4    0    0 -0.32585110835E+02  0.29330838606E+01 -0.63813303226E+02  0.71711436310E+02  0.00000000000E+00 0. -1.
        -14    1    4    4    0    0 -0.10580016061E+02  0.61268462664E+02 -0.40737525631E+03  0.41209266034E+03  0.00000000000E+00 0.  1.
<mgrwt>
<rscale>  2 0.24904399E+03</rscale>
<asrwt>0</asrwt>
<pdfrwt beam="1">  1       21 0.96156718E-02 0.24956041E+03</pdfrwt>
<pdfrwt beam="2">  1       21 0.18148396E+00 0.24956041E+03</pdfrwt>
<totfact> 0.14867148E+04</totfact>
</mgrwt>
</event>
<event>
12    1  0.1050690E-001  0.2023135E+03  0.7546771E-02  0.1151584E+00
         21   -1    0    0  503  502  0.00000000000E+00  0.00000000000E+00  0.50685446958E+02  0.50685446958E+02  0.00000000000E+00 0. -1.
         21   -1    0    0  501  503 -0.00000000000E+00 -0.00000000000E+00 -0.75932445490E+03  0.75932445490E+03  0.00000000000E+00 0. -1.
          6    2    1    2  501    0 -0.63830412424E+02  0.61420900167E+01 -0.40378144900E+03  0.44412892431E+03  0.17349062232E+03 0.  0.
         24    2    3    3    0    0 -0.96325637240E+02  0.31805400101E+02 -0.36231362012E+03  0.38533933380E+03  0.83216771060E+02 0.  0.
         -6    2    1    2    0  502  0.63830412424E+02 -0.61420900167E+01 -0.30485755894E+03  0.36588097754E+03  0.19188202538E+03 0.  0.
        -24    2    5    5    0    0  0.10188027251E+03  0.19509833285E+02 -0.28845708428E+03  0.31692305080E+03  0.80451893286E+02 0.  0.
          5    1    3    3  501    0  0.32495224816E+02 -0.25663310084E+02 -0.41467828883E+02  0.58789590512E+02  0.47000000000E+01 0. -1.
        -13    1    4    4    0    0 -0.45168478137E+02  0.28345952813E+02 -0.29971505515E+03  0.30442207335E+03  0.00000000000E+00 0.  1.
         14    1    4    4    0    0 -0.51157159103E+02  0.34594472882E+01 -0.62598564966E+02  0.80917260450E+02  0.00000000000E+00 0. -1.
         -5    1    5    5    0  502 -0.38049860089E+02 -0.25651923302E+02 -0.16400474654E+02  0.48957926741E+02  0.47000000000E+01 0.  1.
         11    1    6    6    0    0  0.58915412240E+02  0.20107587577E+02 -0.25493256872E+03  0.26242323729E+03  0.00000000000E+00 0. -1.
        -12    1    6    6    0    0  0.42964860273E+02 -0.59775429251E+00 -0.33524515563E+02  0.54499813507E+02  0.00000000000E+00 0.  1.
<mgrwt>
<rscale>  2 0.19782877E+03</rscale>
<asrwt>0</asrwt>
<pdfrwt beam="1">  1       21 0.77977620E-02 0.20231352E+03</pdfrwt>
<pdfrwt beam="2">  1       21 0.11681913E+00 0.20231352E+03</pdfrwt>
<totfact> 0.70457603E+04</totfact>
</mgrwt>
</event>
<event>
12    1  0.1050690E-001  0.3433605E+03  0.7546771E-02  0.1065491E+00
         21   -1    0    0  501  502  0.00000000000E+00  0.00000000000E+00  0.22185698993E+03  0.22185698993E+03  0.00000000000E+00 0. -1.
         21   -1    0    0  502  503 -0.00000000000E+00 -0.00000000000E+00 -0.54061490427E+03  0.54061490427E+03  0.00000000000E+00 0.  1.
         -6    2    1    2    0  503  0.22587846826E+03  0.19202647758E+03 -0.10542005337E+03  0.35917933616E+03  0.17320842171E+03 0.  0.
        -24    2    3    3    0    0  0.11653463026E+02  0.17146711123E+02 -0.83017620265E+01  0.66042272481E+02  0.62151826996E+02 0.  0.
          6    2    1    2  501    0 -0.22587846826E+03 -0.19202647758E+03 -0.21333786098E+03  0.40329255805E+03  0.17098711627E+03 0.  0.
         24    2    5    5    0    0 -0.23069053136E+03 -0.20615222727E+03 -0.18007431748E+03  0.36653325880E+03  0.78759176764E+02 0.  0.
          5    1    5    5  501    0  0.48120630918E+01  0.14125749682E+02 -0.33263543497E+02  0.36759299249E+02  0.47000000000E+01 0. -1.
        -11    1    6    6    0    0 -0.30523814493E+02 -0.21276351538E+01 -0.33326876363E+02  0.45242797998E+02  0.00000000000E+00 0.  1.
         12    1    6    6    0    0 -0.20016671686E+03 -0.20402459211E+03 -0.14674744112E+03  0.32129046080E+03  0.00000000000E+00 0. -1.
         -5    1    3    3    0  503  0.21422500524E+03  0.17487976646E+03 -0.97118291343E+02  0.29313706368E+03  0.47000000000E+01 0.  1.
         13    1    4    4    0    0 -0.11886535563E+01  0.37813204864E+02  0.52450680162E+01  0.38193744224E+02  0.00000000000E+00 0. -1.
        -14    1    4    4    0    0  0.12842116583E+02 -0.20666493741E+02 -0.13546830043E+02  0.27848528257E+02  0.00000000000E+00 0.  1.
<mgrwt>
<rscale>  2 0.34308133E+03</rscale>
<asrwt>0</asrwt>
<pdfrwt beam="1">  1       21 0.34131845E-01 0.34336046E+03</pdfrwt>
<pdfrwt beam="2">  1       21 0.83171523E-01 0.34336046E+03</pdfrwt>
<totfact> 0.96172772E+03</totfact>
</mgrwt>
</event>
<event>
12    1  0.1050690E-001  0.1958653E+03  0.7546771E-02  0.1154625E+00
         21   -1    0    0  501  502  0.00000000000E+00  0.00000000000E+00  0.75247912560E+03  0.75247912560E+03  0.00000000000E+00 0.  1.
         21   -1    0    0  502  503 -0.00000000000E+00 -0.00000000000E+00 -0.57857431448E+02  0.57857431448E+02  0.00000000000E+00 0.  1.
         -6    2    1    2    0  503 -0.59683568708E+02  0.50955176780E+02  0.18772035037E+03  0.26691020048E+03  0.17275290666E+03 0.  0.
        -24    2    3    3    0    0 -0.37826638542E+02  0.99289275629E+02  0.11406069867E+03  0.17601605987E+03  0.81747143761E+02 0.  0.
          6    2    1    2  501    0  0.59683568708E+02 -0.50955176780E+02  0.50690134378E+03  0.54342635657E+03  0.17945660834E+03 0.  0.
         24    2    5    5    0    0  0.31626234355E+02 -0.10183341345E+03  0.29174411200E+03  0.32051262132E+03  0.79015509498E+02 0.  0.
          5    1    5    5  501    0  0.28057334353E+02  0.50878236674E+02  0.21515723177E+03  0.22291373525E+03  0.47000000000E+01 0. -1.
        -11    1    6    6    0    0  0.34935283042E+02 -0.63039394951E+02  0.91284656720E+02  0.11630704136E+03  0.00000000000E+00 0.  1.
         12    1    6    6    0    0 -0.33090486864E+01 -0.38794018503E+02  0.20045945528E+03  0.20420557996E+03  0.00000000000E+00 0. -1.
         -5    1    3    3    0  503 -0.21856930166E+02 -0.48334098849E+02  0.73659651700E+02  0.90894140605E+02  0.47000000000E+01 0.  1.
         13    1    4    4    0    0  0.74577153850E+00 -0.14130171630E+02  0.99272494944E+01  0.17284912728E+02  0.00000000000E+00 0. -1.
        -14    1    4    4    0    0 -0.38572410080E+02  0.11341944726E+03  0.10413344918E+03  0.15873114714E+03  0.00000000000E+00 0.  1.
<mgrwt>
<rscale>  2 0.19431629E+03</rscale>
<asrwt>0</asrwt>
<pdfrwt beam="1">  1       21 0.11576601E+00 0.19586534E+03</pdfrwt>
<pdfrwt beam="2">  1       21 0.89011439E-02 0.19586534E+03</pdfrwt>
<totfact> 0.57356495E+04</totfact>
</mgrwt>
</event>
<event>
12    1  0.1050690E-001  0.3239584E+03  0.7546771E-02  0.1074213E+00
         21   -1    0    0  501  502  0.00000000000E+00  0.00000000000E+00  0.59263621780E+03  0.59263621780E+03  0.00000000000E+00 0. -1.
         21   -1    0    0  502  503 -0.00000000000E+00 -0.00000000000E+00 -0.45566917080E+03  0.45566917080E+03  0.00000000000E+00 0. -1.
         -6    2    1    2    0  503 -0.21676857275E+03  0.16812996835E+03 -0.34278926669E+03  0.46941406660E+03  0.16609871817E+03 0.  0.
        -24    2    3    3    0    0 -0.39622262546E+02  0.80680050992E+02 -0.10309662382E+03  0.15876481695E+03  0.80611158911E+02 0.  0.
          6    2    1    2  501    0  0.21676857275E+03 -0.16812996835E+03  0.47975631368E+03  0.57889132199E+03  0.17231581985E+03 0.  0.
         24    2    5    5    0    0  0.11163736275E+03 -0.14040600389E+03  0.20823995879E+03  0.28637737277E+03  0.80444841371E+02 0.  0.
          5    1    5    5  501    0  0.10513121000E+03 -0.27723964462E+02  0.27151635489E+03  0.29251394923E+03  0.47000000000E+01 0. -1.
        -13    1    6    6    0    0  0.50933665092E+02 -0.11831789634E+03  0.16181951209E+03  0.20683064891E+03  0.00000000000E+00 0.  1.
         14    1    6    6    0    0  0.60703697657E+02 -0.22088107549E+02  0.46420446706E+02  0.79546723859E+02  0.00000000000E+00 0. -1.
         -5    1    3    3    0  503 -0.17714631020E+03  0.87449917362E+02 -0.23969264287E+03  0.31064924965E+03  0.47000000000E+01 0.  1.
         13    1    4    4    0    0 -0.73534504268E+01  0.87259102690E+02 -0.79250082454E+02  0.11810503717E+03  0.00000000000E+00 0. -1.
        -14    1    4    4    0    0 -0.32268812119E+02 -0.65790516984E+01 -0.23846541366E+02  0.40659779783E+02  0.00000000000E+00 0.  1.
<mgrwt>
<rscale>  2 0.32313937E+03</rscale>
<asrwt>0</asrwt>
<pdfrwt beam="1">  1       21 0.91174802E-01 0.32395840E+03</pdfrwt>
<pdfrwt beam="2">  1       21 0.70102950E-01 0.32395840E+03</pdfrwt>
<totfact> 0.17142140E+03</totfact>
</mgrwt>
</event>
<event>
12    1  0.1050690E-001  0.2078493E+03  0.7546771E-02  0.1143303E+00
         21   -1    0    0  501  502  0.00000000000E+00  0.00000000000E+00  0.31419560374E+02  0.31419560374E+02  0.00000000000E+00 0.  1.
         21   -1    0    0  502  503 -0.00000000000E+00 -0.00000000000E+00 -0.15366577231E+04  0.15366577231E+04  0.00000000000E+00 0.  1.
         -6    2    1    2    0  503  0.46248506054E+02  0.10522469638E+03 -0.10073310271E+04  0.10285285276E+04  0.17304326878E+03 0.  0.
        -24    2    3    3    0    0 -0.38984422861E+02  0.78005902767E+02 -0.57653874862E+03  0.58851762762E+03  0.79695440676E+02 0.  0.
          6    2    1    2  501    0 -0.46248506054E+02 -0.10522469638E+03 -0.49790713564E+03  0.53954875590E+03  0.17317673986E+03 0.  0.
         24    2    5    5    0    0  0.62646411169E+01 -0.11281485008E+03 -0.43729599492E+03  0.45885773137E+03  0.80970330020E+02 0.  0.
          5    1    5    5  501    0 -0.52513147171E+02  0.75901537052E+01 -0.60611140726E+02  0.80691024526E+02  0.47000000000E+01 0. -1.
        -11    1    6    6    0    0 -0.25725990319E+02 -0.93415635472E+02 -0.25557993660E+03  0.27333022431E+03  0.00000000000E+00 0.  1.
         12    1    6    6    0    0  0.31990631436E+02 -0.19399214609E+02 -0.18171605832E+03  0.18552750706E+03  0.00000000000E+00 0. -1.
         -5    1    3    3    0  503  0.85232928915E+02  0.27218793609E+02 -0.43079227849E+03  0.44001089998E+03  0.47000000000E+01 0.  1.
         11    1    4    4    0    0 -0.45394901516E+02  0.72654326545E+02 -0.30372269902E+03  0.31557380460E+03  0.00000000000E+00 0. -1.
        -12    1    4    4    0    0  0.64104786549E+01  0.53515762217E+01 -0.27281604960E+03  0.27294382302E+03  0.00000000000E+00 0.  1.
<mgrwt>
<rscale>  2 0.20782153E+03</rscale>
<asrwt>0</asrwt>
<pdfrwt beam="1">  1       21 0.48337791E-02 0.20784933E+03</pdfrwt>
<pdfrwt beam="2">  1       21 0.23640885E+00 0.20784933E+03</pdfrwt>
<totfact> 0.22518506E+04</totfact>
</mgrwt>
</event>
<event>
12    1  0.1050690E-001  0.2479085E+03  0.7546771E-02  0.1115212E+00
         21   -1    0    0  501  502  0.00000000000E+00  0.00000000000E+00  0.22324572438E+03  0.22324572438E+03  0.00000000000E+00 0.  1.
         21   -1    0    0  502  503 -0.00000000000E+00 -0.00000000000E+00 -0.28071096498E+03  0.28071096498E+03  0.00000000000E+00 0.  1.
         -6    2    1    2    0  503 -0.13629049565E+03 -0.11355876609E+03 -0.75020158320E+02  0.25901094096E+03  0.17317029428E+03 0.  0.
        -24    2    3    3    0    0 -0.74446890265E+02 -0.13327089058E+03 -0.84204469180E+02  0.19328696554E+03  0.83462498597E+02 0.  0.
          6    2    1    2  501    0  0.13629049565E+03  0.11355876609E+03  0.17554917716E+02  0.24494574840E+03  0.16798676127E+03 0.  0.
         24    2    5    5    0    0  0.72530831089E+02  0.28006323507E+02  0.64033503103E+02  0.12846886590E+03  0.79742613273E+02 0.  0.
          5    1    5    5  501    0  0.63759664563E+02  0.85552442585E+02 -0.46478585387E+02  0.11647688250E+03  0.47000000000E+01 0. -1.
        -13    1    6    6    0    0  0.40252784188E+02 -0.86944473951E+01 -0.74741576898E+01  0.41853829975E+02  0.00000000000E+00 0.  1.
         14    1    6    6    0    0  0.32278046901E+02  0.36700770902E+02  0.71507660793E+02  0.86615035927E+02  0.00000000000E+00 0. -1.
         -5    1    3    3    0  503 -0.61843605387E+02  0.19712124489E+02  0.91843108599E+01  0.65723975421E+02  0.47000000000E+01 0.  1.
         13    1    4    4    0    0 -0.15914970256E+01 -0.25947179448E+02 -0.54250329290E+02  0.60157187535E+02  0.00000000000E+00 0. -1.
        -14    1    4    4    0    0 -0.72855393239E+02 -0.10732371113E+03 -0.29954139890E+02  0.13312977801E+03  0.00000000000E+00 0.  1.
<mgrwt>
<rscale>  2 0.24700545E+03</rscale>
<asrwt>0</asrwt>
<pdfrwt beam="1">  1       21 0.34345496E-01 0.24790854E+03</pdfrwt>
<pdfrwt beam="2">  1       21 0.43186302E-01 0.24790854E+03</pdfrwt>
<totfact> 0.41040843E+04</totfact>
</mgrwt>
</event>
<event>
12    1  0.1050690E-001  0.2554666E+03  0.7546771E-02  0.1109938E+00
         21   -1    0    0  501  502  0.00000000000E+00  0.00000000000E+00  0.39302354936E+03  0.39302354936E+03  0.00000000000E+00 0.  1.
         21   -1    0    0  502  503 -0.00000000000E+00 -0.00000000000E+00 -0.21689580021E+03  0.21689580021E+03  0.00000000000E+00 0. -1.
         -6    2    1    2    0  503 -0.66337807092E+02  0.17578527397E+03 -0.59865970233E+02  0.26213170701E+03  0.17270764382E+03 0.  0.
        -24    2    3    3    0    0 -0.12156406199E+02  0.84351699537E+02  0.38120114919E+02  0.11749739013E+03  0.71340774452E+02 0.  0.
          6    2    1    2  501    0  0.66337807092E+02 -0.17578527397E+03  0.23599371938E+03  0.34778764256E+03  0.17309546943E+03 0.  0.
         24    2    5    5    0    0  0.10900418140E+03 -0.13503435808E+03  0.20784446004E+03  0.28224736912E+03  0.79674766250E+02 0.  0.
          5    1    5    5  501    0 -0.42666374306E+02 -0.40750915882E+02  0.28149259338E+02  0.65540273443E+02  0.47000000000E+01 0. -1.
        -13    1    6    6    0    0  0.85539367579E+02 -0.13318068482E+03  0.14319117119E+03  0.21344270829E+03  0.00000000000E+00 0.  1.
         14    1    6    6    0    0  0.23464813819E+02 -0.18536732662E+01  0.64653288855E+02  0.68804660830E+02  0.00000000000E+00 0. -1.
         -5    1    3    3    0  503 -0.54181400893E+02  0.91433574428E+02 -0.97986085152E+02  0.14463431688E+03  0.47000000000E+01 0.  1.
         13    1    4    4    0    0  0.32457402133E+01  0.56902724944E+02 -0.12065498388E+02  0.58258314316E+02  0.00000000000E+00 0. -1.
        -14    1    4    4    0    0 -0.15402146412E+02  0.27448974593E+02  0.50185613306E+02  0.59239075813E+02  0.00000000000E+00 0.  1.
<mgrwt>
<rscale>  2 0.25540097E+03</rscale>
<asrwt>0</asrwt>
<pdfrwt beam="1">  1       21 0.60465161E-01 0.25546665E+03</pdfrwt>
<pdfrwt beam="2">  1       21 0.33368585E-01 0.25546665E+03</pdfrwt>
<totfact> 0.21316730E+04</totfact>
</mgrwt>
</event>
<event>
12    1  0.1050690E-001  0.2162672E+03  0.7546771E-02  0.1138722E+00
         21   -1    0    0  501  502  0.00000000000E+00  0.00000000000E+00  0.29510615309E+03  0.29510615309E+03  0.00000000000E+00 0. -1.
         21   -1    0    0  502  503 -0.00000000000E+00 -0.00000000000E+00 -0.16450713935E+03  0.16450713935E+03  0.00000000000E+00 0. -1.
         -6    2    1    2    0  503  0.48171966900E+02  0.11946542138E+03  0.13261228777E+03  0.25368784009E+03  0.17372097179E+03 0.  0.
        -24    2    3    3    0    0  0.68828239107E+02  0.43793710624E+02  0.13112686593E+03  0.17509276474E+03  0.82510639961E+02 0.  0.
          6    2    1    2  501    0 -0.48171966900E+02 -0.11946542138E+03 -0.20132740343E+01  0.20592545235E+03  0.16065090523E+03 0.  0.
         24    2    5    5    0    0 -0.28182169716E+02 -0.10000411383E+03 -0.60626541166E+02  0.14084135623E+03  0.73250615420E+02 0.  0.
          5    1    5    5  501    0 -0.19989797185E+02 -0.19461307556E+02  0.58613267131E+02  0.65084096115E+02  0.47000000000E+01 0. -1.
        -13    1    6    6    0    0  0.10998323015E+02 -0.67413092881E+02 -0.58337782851E+02  0.89826416542E+02  0.00000000000E+00 0.  1.
         14    1    6    6    0    0 -0.39180492731E+02 -0.32591020947E+02 -0.22887583148E+01  0.51014939690E+02  0.00000000000E+00 0. -1.
         -5    1    3    3    0  503 -0.20656272207E+02  0.75671710759E+02  0.14854218378E+01  0.78595075346E+02  0.47000000000E+01 0.  1.
         11    1    4    4    0    0  0.37898922731E+02  0.64090476521E+02  0.62848641143E+02  0.97436488126E+02  0.00000000000E+00 0. -1.
        -12    1    4    4    0    0  0.30929316376E+02 -0.20296765897E+02  0.68278224791E+02  0.77656276617E+02  0.00000000000E+00 0.  1.
<mgrwt>
<rscale>  2 0.21363151E+03</rscale>
<asrwt>0</asrwt>
<pdfrwt beam="1">  1       21 0.45400947E-01 0.21626720E+03</pdfrwt>
<pdfrwt beam="2">  1       21 0.25308791E-01 0.21626720E+03</pdfrwt>
<totfact> 0.68131951E+04</totfact>
</mgrwt>
</event>
<event>
12    1  0.1050690E-001  0.1926471E+03  0.7546771E-02  0.1156174E+00
         21   -1    0    0  503  502  0.00000000000E+00  0.00000000000E+00  0.47583305347E+03  0.47583305347E+03  0.00000000000E+00 0. -1.
         21   -1    0    0  501  503 -0.00000000000E+00 -0.00000000000E+00 -0.17029620129E+03  0.17029620129E+03  0.00000000000E+00 0. -1.
          6    2    1    2  501    0  0.67909045735E+02 -0.48346891474E+02 -0.85322084728E+02  0.21037289348E+03  0.17328541705E+03 0.  0.
         24    2    3    3    0    0 -0.17892943757E+02 -0.83278277587E+01 -0.79502157936E+02  0.11540201158E+03  0.81286659472E+02 0.  0.
         -6    2    1    2    0  502 -0.67909045735E+02  0.48346891474E+02  0.39085893691E+03  0.43575636128E+03  0.17367739469E+03 0.  0.
        -24    2    5    5    0    0 -0.25142212537E+02  0.90698220111E+02  0.31556340875E+03  0.33924655028E+03  0.81545441016E+02 0.  0.
          5    1    3    3  501    0  0.85801989492E+02 -0.40019063715E+02 -0.58199267914E+01  0.94970881902E+02  0.47000000000E+01 0. -1.
        -13    1    4    4    0    0 -0.19986458952E+02  0.28213549235E+02 -0.86293741395E+01  0.35636063194E+02  0.00000000000E+00 0.  1.
         14    1    4    4    0    0  0.20935151945E+01 -0.36541376994E+02 -0.70872783797E+02  0.79765948384E+02  0.00000000000E+00 0. -1.
         -5    1    5    5    0  502 -0.42766833198E+02 -0.42351328637E+02  0.75295528157E+02  0.96509811002E+02  0.47000000000E+01 0.  1.
         13    1    6    6    0    0 -0.55078865979E+02  0.53542282446E+02  0.19532191247E+03  0.20988355576E+03  0.00000000000E+00 0. -1.
        -14    1    6    6    0    0  0.29936653442E+02  0.37155937665E+02  0.12024149628E+03  0.12936299452E+03  0.00000000000E+00 0.  1.
<mgrwt>
<rscale>  2 0.19255869E+03</rscale>
<asrwt>0</asrwt>
<pdfrwt beam="1">  1       21 0.73205085E-01 0.19264708E+03</pdfrwt>
<pdfrwt beam="2">  1       21 0.26199416E-01 0.19264708E+03</pdfrwt>
<totfact> 0.23238690E+04</totfact>
</mgrwt>
</event>
<event>
12    1  0.1050690E-001  0.3452079E+03  0.7546771E-02  0.1065316E+00
         21   -1    0    0  503  502  0.00000000000E+00  0.00000000000E+00  0.19429391311E+03  0.19429391311E+03  0.00000000000E+00 0.  1.
         21   -1    0    0  501  503 -0.00000000000E+00 -0.00000000000E+00 -0.68976843077E+03  0.68976843077E+03  0.00000000000E+00 0. -1.
          6    2    1    2  501    0 -0.18515013996E+03 -0.23651981242E+03 -0.91610606516E+02  0.35715682165E+03  0.17013611030E+03 0.  0.
         24    2    3    3    0    0 -0.12017371597E+03 -0.23197202135E+03 -0.44936356369E+02  0.27688731495E+03  0.79966045027E+02 0.  0.
         -6    2    1    2    0  502  0.18515013996E+03  0.23651981242E+03 -0.40386391115E+03  0.52690552223E+03  0.15588834027E+03 0.  0.
        -24    2    5    5    0    0  0.75322611019E+02  0.15807747906E+03 -0.17555432209E+03  0.26164594326E+03  0.83530201162E+02 0.  0.
          5    1    3    3  501    0 -0.64976423993E+02 -0.45477910701E+01 -0.46674250147E+02  0.80269506697E+02  0.47000000000E+01 0. -1.
        -13    1    4    4    0    0 -0.11208401586E+03 -0.15175617626E+03 -0.97253302358E+01  0.18891094646E+03  0.00000000000E+00 0.  1.
         14    1    4    4    0    0 -0.80897001105E+01 -0.80215845090E+02 -0.35211026133E+02  0.87976368491E+02  0.00000000000E+00 0. -1.
         -5    1    5    5    0  502  0.10982752894E+03  0.78442333367E+02 -0.22830958906E+03  0.26525957897E+03  0.47000000000E+01 0.  1.
         13    1    6    6    0    0  0.91915536036E+01  0.51045102762E+02 -0.10570174657E+03  0.11774101410E+03  0.00000000000E+00 0. -1.
        -14    1    6    6    0    0  0.66131057415E+02  0.10703237629E+03 -0.69852575517E+02  0.14390492916E+03  0.00000000000E+00 0.  1.
<mgrwt>
<rscale>  2 0.34349649E+03</rscale>
<asrwt>0</asrwt>
<pdfrwt beam="1">  1       21 0.29891371E-01 0.34520790E+03</pdfrwt>
<pdfrwt beam="2">  1       21 0.10611822E+00 0.34520790E+03</pdfrwt>
<totfact> 0.70112877E+03</totfact>
</mgrwt>
</event>
<event>
12    1  0.1050690E-001  0.2475970E+03  0.7546771E-02  0.1115107E+00
         21   -1    0    0  503  502  0.00000000000E+00  0.00000000000E+00  0.38349888836E+02  0.38349888836E+02  0.00000000000E+00 0. -1.
         21   -1    0    0  501  503 -0.00000000000E+00 -0.00000000000E+00 -0.17582425528E+04  0.17582425528E+04  0.00000000000E+00 0. -1.
          6    2    1    2  501    0 -0.49993580185E+02  0.16681071306E+03 -0.11425329500E+04  0.11690533795E+04  0.17600877902E+03 0.  0.
         24    2    3    3    0    0 -0.62442354628E+02  0.14810751883E+03 -0.11271796386E+04  0.11414382454E+04  0.80699725495E+02 0.  0.
         -6    2    1    2    0  502  0.49993580185E+02 -0.16681071306E+03 -0.57735971395E+03  0.62753906210E+03  0.17359684074E+03 0.  0.
        -24    2    5    5    0    0 -0.13229184597E+02 -0.61721124001E+02 -0.39296739111E+03  0.40603610854E+03  0.80358213556E+02 0.  0.
          5    1    3    3  501    0  0.12448774443E+02  0.18703194223E+02 -0.15353311389E+02  0.27615134073E+02  0.47000000000E+01 0. -1.
        -13    1    4    4    0    0 -0.60676940731E+02  0.59148070041E+02 -0.69857183422E+03  0.70369225724E+03  0.00000000000E+00 0.  1.
         14    1    4    4    0    0 -0.17654138974E+01  0.88959448792E+02 -0.42860780436E+03  0.43774598819E+03  0.00000000000E+00 0. -1.
         -5    1    5    5    0  502  0.63222764782E+02 -0.10508958905E+03 -0.18439232284E+03  0.22150295356E+03  0.47000000000E+01 0.  1.
         13    1    6    6    0    0 -0.39538525114E+02 -0.56905332475E+02 -0.21032023182E+03  0.22144098930E+03  0.00000000000E+00 0. -1.
        -14    1    6    6    0    0  0.26309340517E+02 -0.48157915265E+01 -0.18264715929E+03  0.18459511923E+03  0.00000000000E+00 0.  1.
<mgrwt>
<rscale>  2 0.24716869E+03</rscale>
<asrwt>0</asrwt>
<pdfrwt beam="1">  1       21 0.58999828E-02 0.24759698E+03</pdfrwt>
<pdfrwt beam="2">  1       21 0.27049886E+00 0.24759698E+03</pdfrwt>
<totfact> 0.97528433E+03</totfact>
</mgrwt>
</event>
<event>
12    1  0.1050690E-001  0.1909337E+03  0.7546771E-02  0.1157861E+00
         21   -1    0    0  501  502  0.00000000000E+00  0.00000000000E+00  0.59663140542E+02  0.59663140542E+02  0.00000000000E+00 0. -1.
         21   -1    0    0  502  503 -0.00000000000E+00 -0.00000000000E+00 -0.11915845955E+04  0.11915845955E+04  0.00000000000E+00 0. -1.
         -6    2    1    2    0  503  0.44679425595E+02 -0.67274644215E+02 -0.10047302328E+04  0.10227113481E+04  0.17301309818E+03 0.  0.
        -24    2    3    3    0    0  0.74280596941E+02 -0.74669446820E+02 -0.47726900199E+03  0.49434750339E+03  0.74166168069E+02 0.  0.
          6    2    1    2  501    0 -0.44679425595E+02  0.67274644215E+02 -0.12719122216E+03  0.22853638787E+03  0.17184046311E+03 0.  0.
         24    2    5    5    0    0 -0.85305317526E+02  0.86163370921E+02 -0.10156832563E+03  0.17671100878E+03  0.78800584805E+02 0.  0.
          5    1    5    5  501    0  0.40625891931E+02 -0.18888726706E+02 -0.25622896527E+02  0.51825379093E+02  0.47000000000E+01 0. -1.
        -13    1    6    6    0    0 -0.12210533916E+02  0.60161240499E+02 -0.69590458261E+02  0.92797111366E+02  0.00000000000E+00 0.  1.
         14    1    6    6    0    0 -0.73094783610E+02  0.26002130422E+02 -0.31977867368E+02  0.83913897412E+02  0.00000000000E+00 0. -1.
         -5    1    3    3    0  503 -0.29601171346E+02  0.73948026049E+01 -0.52746123077E+03  0.52836384473E+03  0.47000000000E+01 0.  1.
         13    1    4    4    0    0  0.61465165101E+02 -0.61243917037E+02 -0.46266393268E+03  0.47072996346E+03  0.00000000000E+00 0. -1.
        -14    1    4    4    0    0  0.12815431840E+02 -0.13425529783E+02 -0.14605069305E+02  0.23617539936E+02  0.00000000000E+00 0.  1.
<mgrwt>
<rscale>  2 0.19066762E+03</rscale>
<asrwt>0</asrwt>
<pdfrwt beam="1">  1       21 0.91789445E-02 0.19093366E+03</pdfrwt>
<pdfrwt beam="2">  1       21 0.18332071E+00 0.19093366E+03</pdfrwt>
<totfact> 0.16326019E+04</totfact>
</mgrwt>
</event>
<event>
12    1  0.1050690E-001  0.1837665E+03  0.7546771E-02  0.1164414E+00
         21   -1    0    0  503  502  0.00000000000E+00  0.00000000000E+00  0.16970299805E+03  0.16970299805E+03  0.00000000000E+00 0.  1.
         21   -1    0    0  501  503 -0.00000000000E+00 -0.00000000000E+00 -0.25160973946E+03  0.25160973946E+03  0.00000000000E+00 0.  1.
          6    2    1    2  501    0 -0.47232244681E+02  0.35896579492E+02 -0.13807273140E+03  0.22915465327E+03  0.17299805375E+03 0.  0.
         24    2    3    3    0    0 -0.53253348770E+02  0.63897720105E+02 -0.15320360293E+03  0.19642315707E+03  0.90508976858E+02 0.  0.
         -6    2    1    2    0  502  0.47232244681E+02 -0.35896579492E+02  0.56165989991E+02  0.19215808424E+03  0.17392717313E+03 0.  0.
        -24    2    5    5    0    0  0.37869696012E+02 -0.80609144861E+02  0.75901794265E+02  0.14217345871E+03  0.80748138543E+02 0.  0.
          5    1    3    3  501    0  0.60211040894E+01 -0.28001140613E+02  0.15130871530E+02  0.32731496197E+02  0.47000000000E+01 0. -1.
        -13    1    4    4    0    0  0.14026093931E+02  0.52786776391E+02 -0.63904355702E+02  0.84065104237E+02  0.00000000000E+00 0.  1.
         14    1    4    4    0    0 -0.67279442701E+02  0.11110943714E+02 -0.89299247232E+02  0.11235805283E+03  0.00000000000E+00 0. -1.
         -5    1    5    5    0  502  0.93625486682E+01  0.44712565368E+02 -0.19735804273E+02  0.49984625533E+02  0.47000000000E+01 0.  1.
         11    1    6    6    0    0 -0.18340084145E+02 -0.36378797603E+02  0.42988505669E+01  0.40966519472E+02  0.00000000000E+00 0. -1.
        -12    1    6    6    0    0  0.56209780158E+02 -0.44230347258E+02  0.71602943698E+02  0.10120693924E+03  0.00000000000E+00 0.  1.
<mgrwt>
<rscale>  2 0.18354628E+03</rscale>
<asrwt>0</asrwt>
<pdfrwt beam="1">  1       21 0.26108154E-01 0.18376646E+03</pdfrwt>
<pdfrwt beam="2">  1       21 0.38709190E-01 0.18376646E+03</pdfrwt>
<totfact> 0.90019531E+04</totfact>
</mgrwt>
</event>
<event>
12    1  0.1050690E-001  0.2748510E+03  0.7546771E-02  0.1098745E+00
         21   -1    0    0  503  502  0.00000000000E+00  0.00000000000E+00  0.44719597821E+03  0.44719597821E+03  0.00000000000E+00 0.  1.
         21   -1    0    0  501  503 -0.00000000000E+00 -0.00000000000E+00 -0.19070538953E+03  0.19070538953E+03  0.00000000000E+00 0. -1.
          6    2    1    2  501    0 -0.25583270842E+01  0.21448159070E+03  0.17902826893E+02  0.27394096718E+03  0.16945277957E+03 0.  0.
         24    2    3    3    0    0 -0.61301783475E+02  0.99783229101E+02  0.23796362889E+02  0.14485443966E+03  0.81865379342E+02 0.  0.
         -6    2    1    2    0  502  0.25583270842E+01 -0.21448159070E+03  0.23858776179E+03  0.36396040056E+03  0.17185504157E+03 0.  0.
        -24    2    5    5    0    0  0.87074694629E+01 -0.28832307094E+02  0.55540743714E+02  0.10313139665E+03  0.81511893641E+02 0.  0.
          5    1    3    3  501    0  0.58743456391E+02  0.11469836160E+03 -0.58935359961E+01  0.12908652752E+03  0.47000000000E+01 0. -1.
        -13    1    4    4    0    0 -0.20945754375E+02 -0.11006832313E+02 -0.32423549110E+01  0.23882794001E+02  0.00000000000E+00 0.  1.
         14    1    4    4    0    0 -0.40356029100E+02  0.11079006141E+03  0.27038717800E+02  0.12097164566E+03  0.00000000000E+00 0. -1.
         -5    1    5    5    0  502 -0.61491423787E+01 -0.18564928360E+03  0.18304701807E+03  0.26082900391E+03  0.47000000000E+01 0.  1.
         11    1    6    6    0    0 -0.49676892298E+01  0.83364482829E+01  0.62215893434E+02  0.62968180076E+02  0.00000000000E+00 0. -1.
        -12    1    6    6    0    0  0.13675158693E+02 -0.37168755377E+02 -0.66751497194E+01  0.40163216570E+02  0.00000000000E+00 0.  1.
<mgrwt>
<rscale>  2 0.27447629E+03</rscale>
<asrwt>0</asrwt>
<pdfrwt beam="1">  1       21 0.68799381E-01 0.27485097E+03</pdfrwt>
<pdfrwt beam="2">  1       21 0.29339291E-01 0.27485097E+03</pdfrwt>
<totfact> 0.20526513E+04</totfact>
</mgrwt>
</event>
<event>
12    1  0.1050690E-001  0.1846331E+03  0.7546771E-02  0.1163492E+00
         21   -1    0    0  501  502  0.00000000000E+00  0.00000000000E+00  0.45546311677E+03  0.45546311677E+03  0.00000000000E+00 0.  1.
         21   -1    0    0  502  503 -0.00000000000E+00 -0.00000000000E+00 -0.10050018266E+03  0.10050018266E+03  0.00000000000E+00 0.  1.
         -6    2    1    2    0  503 -0.10271940476E+02 -0.62762901273E+02  0.36715630672E+02  0.18824830672E+03  0.17333405006E+03 0.  0.
        -24    2    3    3    0    0 -0.48118328602E+02 -0.47998186949E+02 -0.24805308967E+02  0.11437502402E+03  0.88584102795E+02 0.  0.
          6    2    1    2  501    0  0.10271940476E+02  0.62762901273E+02  0.31824730343E+03  0.36771499271E+03  0.17288225815E+03 0.  0.
         24    2    5    5    0    0 -0.17590152393E+02  0.79253598231E+02  0.11356376218E+03  0.16043334527E+03  0.79066958339E+02 0.  0.
          5    1    5    5  501    0  0.27862092869E+02 -0.16490696957E+02  0.20468354125E+03  0.20728164744E+03  0.47000000000E+01 0. -1.
        -11    1    6    6    0    0  0.85643322638E+01  0.72472580704E+02  0.11160063515E+03  0.13334288322E+03  0.00000000000E+00 0.  1.
         12    1    6    6    0    0 -0.26154484657E+02  0.67810175267E+01  0.19631270348E+01  0.27090462050E+02  0.00000000000E+00 0. -1.
         -5    1    3    3    0  503  0.37846388125E+02 -0.14764714325E+02  0.61520939639E+02  0.73873282703E+02  0.47000000000E+01 0.  1.
         13    1    4    4    0    0 -0.15226414685E+02 -0.22623999885E+02  0.33240419161E+02  0.42995517685E+02  0.00000000000E+00 0. -1.
        -14    1    4    4    0    0 -0.32891913917E+02 -0.25374187063E+02 -0.58045728128E+02  0.71379506332E+02  0.00000000000E+00 0.  1.
<mgrwt>
<rscale>  2 0.18452700E+03</rscale>
<asrwt>0</asrwt>
<pdfrwt beam="1">  1       21 0.70071248E-01 0.18463312E+03</pdfrwt>
<pdfrwt beam="2">  1       21 0.15461567E-01 0.18463312E+03</pdfrwt>
<totfact> 0.68864511E+04</totfact>
</mgrwt>
</event>
<event>
12    1  0.1050690E-001  0.1790514E+03  0.7546771E-02  0.1171605E+00
         21   -1    0    0  503  502  0.00000000000E+00  0.00000000000E+00  0.53986332697E+02  0.53986332697E+02  0.00000000000E+00 0.  1.
         21   -1    0    0  501  503 -0.00000000000E+00 -0.00000000000E+00 -0.73492299260E+03  0.73492299260E+03  0.00000000000E+00 0.  1.
          6    2    1    2  501    0  0.31144624671E+02 -0.29367381091E+02 -0.54318400822E+03  0.57193381049E+03  0.17385909835E+03 0.  0.
         24    2    3    3    0    0  0.25584233278E+02 -0.73281807498E+01 -0.54132246790E+03  0.54864862987E+03  0.85305624550E+02 0.  0.
         -6    2    1    2    0  502 -0.31144624671E+02  0.29367381091E+02 -0.13775265168E+03  0.21697551481E+03  0.16208069059E+03 0.  0.
        -24    2    5    5    0    0 -0.14246377023E+02  0.28184167362E+02 -0.68040853068E+01  0.84852209502E+02  0.78462063014E+02 0.  0.
          5    1    3    3  501    0  0.55603913931E+01 -0.22039200342E+02 -0.18615403196E+01  0.23285180620E+02  0.47000000000E+01 0. -1.
        -13    1    4    4    0    0  0.53450401600E+02 -0.21568901260E+02 -0.37570303677E+03  0.38009858559E+03  0.00000000000E+00 0.  1.
         14    1    4    4    0    0 -0.27866168322E+02  0.14240720510E+02 -0.16561943113E+03  0.16855004427E+03  0.00000000000E+00 0. -1.
         -5    1    5    5    0  502 -0.16898247648E+02  0.11832137298E+01 -0.13094856638E+03  0.13212330531E+03  0.47000000000E+01 0.  1.
         13    1    6    6    0    0 -0.26582736553E+02  0.11834272655E+01 -0.34962258442E+02  0.43936339152E+02  0.00000000000E+00 0. -1.
        -14    1    6    6    0    0  0.12336359530E+02  0.27000740096E+02  0.28158173135E+02  0.40915870350E+02  0.00000000000E+00 0.  1.
<mgrwt>
<rscale>  2 0.17612728E+03</rscale>
<asrwt>0</asrwt>
<pdfrwt beam="1">  1       21 0.83055897E-02 0.17905144E+03</pdfrwt>
<pdfrwt beam="2">  1       21 0.11306508E+00 0.17905144E+03</pdfrwt>
<totfact> 0.69125312E+04</totfact>
</mgrwt>
</event>
<event>
12    1  0.1050690E-001  0.2582685E+03  0.7546771E-02  0.1108232E+00
         21   -1    0    0  501  502  0.00000000000E+00  0.00000000000E+00  0.36607565442E+03  0.36607565442E+03  0.00000000000E+00 0.  1.
         21   -1    0    0  502  503 -0.00000000000E+00 -0.00000000000E+00 -0.22038255406E+03  0.22038255406E+03  0.00000000000E+00 0. -1.
         -6    2    1    2    0  503 -0.11142392673E+02  0.19158947751E+03  0.19517423543E+03  0.32349244527E+03  0.17240562393E+03 0.  0.
        -24    2    3    3    0    0  0.45442539480E+02  0.54485371588E+02  0.93383364363E+02  0.14354005756E+03  0.82762402538E+02 0.  0.
          6    2    1    2  501    0  0.11142392673E+02 -0.19158947751E+03 -0.49481135074E+02  0.26296576321E+03  0.17283497644E+03 0.  0.
         24    2    5    5    0    0  0.12754862239E+02 -0.21723813626E+03 -0.42266570938E+02  0.23586237432E+03  0.80557446862E+02 0.  0.
          5    1    5    5  501    0 -0.16124695662E+01  0.25648658744E+02 -0.72145641369E+01  0.27103388887E+02  0.47000000000E+01 0. -1.
        -13    1    6    6    0    0  0.10615089128E+02 -0.14174397964E+02  0.16760663173E+02  0.24382647617E+02  0.00000000000E+00 0.  1.
         14    1    6    6    0    0  0.21397731105E+01 -0.20306373829E+03 -0.59027234111E+02  0.21147972670E+03  0.00000000000E+00 0. -1.
         -5    1    3    3    0  503 -0.56584932152E+02  0.13710410593E+03  0.10179087107E+03  0.17995238771E+03  0.47000000000E+01 0.  1.
         13    1    4    4    0    0 -0.16186959267E+02  0.31316765218E+01  0.49344546216E+02  0.52026044338E+02  0.00000000000E+00 0. -1.
        -14    1    4    4    0    0  0.61629498747E+02  0.51353695066E+02  0.44038818147E+02  0.91514013225E+02  0.00000000000E+00 0.  1.
<mgrwt>
<rscale>  2 0.25819667E+03</rscale>
<asrwt>0</asrwt>
<pdfrwt beam="1">  1       21 0.56319331E-01 0.25826848E+03</pdfrwt>
<pdfrwt beam="2">  1       21 0.33905008E-01 0.25826848E+03</pdfrwt>
<totfact> 0.24032239E+04</totfact>
</mgrwt>
</event>
<event>
12    1  0.1050690E-001  0.4290671E+03  0.7546771E-02  0.1034159E+00
         21   -1    0    0  503  502  0.00000000000E+00  0.00000000000E+00  0.41117283888E+03  0.41117283888E+03  0.00000000000E+00 0.  1.
         21   -1    0    0  501  503 -0.00000000000E+00 -0.00000000000E+00 -0.53152098712E+03  0.53152098712E+03  0.00000000000E+00 0. -1.
          6    2    1    2  501    0  0.23086576580E+03  0.31786023053E+03 -0.24735769834E+03  0.49522319606E+03  0.17241245608E+03 0.  0.
         24    2    3    3    0    0  0.20918843645E+03  0.21000644160E+03 -0.12787596575E+03  0.33274144072E+03  0.80635577127E+02 0.  0.
         -6    2    1    2    0  502 -0.23086576580E+03 -0.31786023053E+03  0.12700955010E+03  0.44747062994E+03  0.17252365308E+03 0.  0.
        -24    2    5    5    0    0 -0.12641005576E+03 -0.12171241623E+03  0.67421946441E+01  0.19474293616E+03  0.84178022873E+02 0.  0.
          5    1    3    3  501    0  0.21677329359E+02  0.10785378893E+03 -0.11948173260E+03  0.16248175534E+03  0.47000000000E+01 0. -1.
        -11    1    4    4    0    0  0.23324228619E+02  0.73475234582E+01 -0.34597836407E+02  0.42367629456E+02  0.00000000000E+00 0.  1.
         12    1    4    4    0    0  0.18586420783E+03  0.20265891814E+03 -0.93278129343E+02  0.29037381126E+03  0.00000000000E+00 0. -1.
         -5    1    5    5    0  502 -0.10445571004E+03 -0.19614781429E+03  0.12026735546E+03  0.25272769378E+03  0.47000000000E+01 0.  1.
         13    1    6    6    0    0 -0.41325349679E+02 -0.79024319784E+02 -0.27903991562E+02  0.93441213544E+02  0.00000000000E+00 0. -1.
        -14    1    6    6    0    0 -0.85084706081E+02 -0.42688096449E+02  0.34646186206E+02  0.10130172262E+03  0.00000000000E+00 0.  1.
<mgrwt>
<rscale>  2 0.42905588E+03</rscale>
<asrwt>0</asrwt>
<pdfrwt beam="1">  1       21 0.63257360E-01 0.42906706E+03</pdfrwt>
<pdfrwt beam="2">  1       21 0.81772460E-01 0.42906706E+03</pdfrwt>
<totfact> 0.26477683E+03</totfact>
</mgrwt>
</event>
<event>
12    1  0.1050690E-001  0.1754535E+03  0.7546771E-02  0.1172362E+00
         21   -1    0    0  501  502  0.00000000000E+00  0.00000000000E+00  0.18942076698E+03  0.18942076698E+03  0.00000000000E+00 0.  1.
         21   -1    0    0  502  503 -0.00000000000E+00 -0.00000000000E+00 -0.35717146935E+03  0.35717146935E+03  0.00000000000E+00 0.  1.
         -6    2    1    2    0  503 -0.41884266319E+00 -0.22214709133E+02 -0.28583209726E+03  0.33538619828E+03  0.17404093037E+03 0.  0.
        -24    2    3    3    0    0  0.25345479824E+00  0.43794640565E+02 -0.23521202693E+03  0.25206652623E+03  0.79339783531E+02 0.  0.
          6    2    1    2  501    0  0.41884266319E+00  0.22214709133E+02  0.11808139489E+03  0.21120603805E+03  0.17369831881E+03 0.  0.
         24    2    5    5    0    0  0.12559625361E+02  0.93191380252E+01  0.15233071712E+03  0.17236275765E+03  0.79118154200E+02 0.  0.
          5    1    5    5  501    0 -0.12140782698E+02  0.12895571108E+02 -0.34249322230E+02  0.38843280397E+02  0.47000000000E+01 0. -1.
        -13    1    6    6    0    0  0.92705280495E+01 -0.34748679702E+02  0.77924444350E+02  0.85823262922E+02  0.00000000000E+00 0.  1.
         14    1    6    6    0    0  0.32890973114E+01  0.44067817727E+02  0.74406272772E+02  0.86539494731E+02  0.00000000000E+00 0. -1.
         -5    1    3    3    0  503 -0.67229746142E+00 -0.66009349698E+02 -0.50620070327E+02  0.83319672055E+02  0.47000000000E+01 0.  1.
         13    1    4    4    0    0 -0.26701206705E+02  0.83315932917E+01 -0.26079506164E+02  0.38242784000E+02  0.00000000000E+00 0. -1.
        -14    1    4    4    0    0  0.26954661504E+02  0.35463047273E+02 -0.20913252077E+03  0.21382374223E+03  0.00000000000E+00 0.  1.
<mgrwt>
<rscale>  2 0.17536843E+03</rscale>
<asrwt>0</asrwt>
<pdfrwt beam="1">  1       21 0.29141656E-01 0.17545345E+03</pdfrwt>
<pdfrwt beam="2">  1       21 0.54949457E-01 0.17545345E+03</pdfrwt>
<totfact> 0.35557287E+04</totfact>
</mgrwt>
</event>
<event>
12    1  0.1050690E-001  0.2232520E+03  0.7546771E-02  0.1131535E+00
         21   -1    0    0  503  502  0.00000000000E+00  0.00000000000E+00  0.41757995953E+03  0.41757995953E+03  0.00000000000E+00 0.  1.
         21   -1    0    0  501  503 -0.00000000000E+00 -0.00000000000E+00 -0.12017003279E+03  0.12017003279E+03  0.00000000000E+00 0.  1.
          6    2    1    2  501    0  0.13814077240E+03 -0.32238214974E+02  0.12445552531E+03  0.25534126177E+03  0.17201106557E+03 0.  0.
         24    2    3    3    0    0  0.81791282751E+02 -0.21128949548E+02 -0.49367839048E+00  0.11774375355E+03  0.82018908426E+02 0.  0.
         -6    2    1    2    0  502 -0.13814077240E+03  0.32238214974E+02  0.17295440143E+03  0.28240873055E+03  0.17239283805E+03 0.  0.
        -24    2    5    5    0    0  0.21581175903E+01  0.19488493703E+02  0.62212435774E+02  0.10315414377E+03  0.79912022579E+02 0.  0.
          5    1    3    3  501    0  0.56349489651E+02 -0.11109265426E+02  0.12494920370E+03  0.13759750822E+03  0.47000000000E+01 0. -1.
        -13    1    4    4    0    0  0.26660651033E+01 -0.31947357218E+02 -0.16861603255E+02  0.36222302532E+02  0.00000000000E+00 0.  1.
         14    1    4    4    0    0  0.79125217648E+02  0.10818407670E+02  0.16367924865E+02  0.81521451022E+02  0.00000000000E+00 0. -1.
         -5    1    5    5    0  502 -0.14029888999E+03  0.12749721271E+02  0.11074196566E+03  0.17925458678E+03  0.47000000000E+01 0.  1.
         11    1    6    6    0    0  0.41834738770E+01  0.50633569508E+02  0.42510433222E+02  0.66244975262E+02  0.00000000000E+00 0. -1.
        -12    1    6    6    0    0 -0.20253562868E+01 -0.31145075805E+02  0.19702002553E+02  0.36909168503E+02  0.00000000000E+00 0.  1.
<mgrwt>
<rscale>  2 0.22317832E+03</rscale>
<asrwt>0</asrwt>
<pdfrwt beam="1">  1       21 0.64243070E-01 0.22325202E+03</pdfrwt>
<pdfrwt beam="2">  1       21 0.18487698E-01 0.22325202E+03</pdfrwt>
<totfact> 0.58909907E+04</totfact>
</mgrwt>
</event>
<event>
12    1  0.1050690E-001  0.1939925E+03  0.7546771E-02  0.1155276E+00
         21   -1    0    0  501  502  0.00000000000E+00  0.00000000000E+00  0.52215877968E+03  0.52215877968E+03  0.00000000000E+00 0. -1.
         21   -1    0    0  502  503 -0.00000000000E+00 -0.00000000000E+00 -0.75831532089E+02  0.75831532089E+02  0.00000000000E+00 0. -1.
         -6    2    1    2    0  503  0.82750542258E+02 -0.80240110205E+01  0.15223415699E+03  0.24659345469E+03  0.17527423184E+03 0.  0.
        -24    2    3    3    0    0  0.36606096231E+02  0.27857237129E+02  0.11143742965E+02  0.93801541304E+02  0.80984654114E+02 0.  0.
          6    2    1    2  501    0 -0.82750542258E+02  0.80240110205E+01  0.29409309060E+03  0.35139685707E+03  0.17342712655E+03 0.  0.
         24    2    5    5    0    0  0.10912904638E+02  0.15992129890E+02  0.59541119691E+02  0.98665677240E+02  0.76255696345E+02 0.  0.
          5    1    5    5  501    0 -0.93663446896E+02 -0.79681188696E+01  0.23455197090E+03  0.25273117983E+03  0.47000000000E+01 0. -1.
        -11    1    6    6    0    0 -0.14858779916E+02 -0.23072453574E+02  0.70359354683E+01  0.28330651994E+02  0.00000000000E+00 0.  1.
         12    1    6    6    0    0  0.25771684554E+02  0.39064583464E+02  0.52505184223E+02  0.70335025246E+02  0.00000000000E+00 0. -1.
         -5    1    3    3    0  503  0.46144446027E+02 -0.35881248150E+02  0.14109041403E+03  0.15279191339E+03  0.47000000000E+01 0.  1.
         13    1    4    4    0    0  0.27981633818E+02 -0.23853505906E+02  0.17985201464E+02  0.40932005165E+02  0.00000000000E+00 0. -1.
        -14    1    4    4    0    0  0.86244624133E+01  0.51710743035E+02 -0.68414584992E+01  0.52869536139E+02  0.00000000000E+00 0.  1.
<mgrwt>
<rscale>  2 0.19357435E+03</rscale>
<asrwt>0</asrwt>
<pdfrwt beam="1">  1       21 0.80332118E-01 0.19399251E+03</pdfrwt>
<pdfrwt beam="2">  1       21 0.11666390E-01 0.19399251E+03</pdfrwt>
<totfact> 0.84043853E+04</totfact>
</mgrwt>
</event>
<event>
12    1  0.1050690E-001  0.2116824E+03  0.7546771E-02  0.1140340E+00
         21   -1    0    0  501  502  0.00000000000E+00  0.00000000000E+00  0.10044353848E+03  0.10044353848E+03  0.00000000000E+00 0.  1.
         21   -1    0    0  502  503 -0.00000000000E+00 -0.00000000000E+00 -0.44713650254E+03  0.44713650254E+03  0.00000000000E+00 0.  1.
         -6    2    1    2    0  503  0.79256351748E+02 -0.91395355505E+02 -0.15485467370E+03  0.26227734554E+03  0.17370882452E+03 0.  0.
        -24    2    3    3    0    0  0.11361939705E+02 -0.57604700880E+02 -0.16062871926E+03  0.18607439855E+03  0.73312353039E+02 0.  0.
          6    2    1    2  501    0 -0.79256351748E+02  0.91395355505E+02 -0.19183829036E+03  0.28530269548E+03  0.17309251313E+03 0.  0.
         24    2    5    5    0    0 -0.11841344688E+03  0.86782535157E+02 -0.13133424614E+03  0.21293291188E+03  0.80862772307E+02 0.  0.
          5    1    5    5  501    0  0.39157095130E+02  0.46128203481E+01 -0.60504044226E+02  0.72369783600E+02  0.47000000000E+01 0. -1.
        -11    1    6    6    0    0 -0.72287049487E+02  0.94505267416E+02 -0.10790417222E+03  0.16062370148E+03  0.00000000000E+00 0.  1.
         12    1    6    6    0    0 -0.46126397391E+02 -0.77227322586E+01 -0.23430073912E+02  0.52309210406E+02  0.00000000000E+00 0. -1.
         -5    1    3    3    0  503  0.67894412043E+02 -0.33790654625E+02  0.57740455621E+01  0.76202946982E+02  0.47000000000E+01 0.  1.
         11    1    4    4    0    0 -0.35790250795E+00 -0.10135735269E+00  0.77514819090E+01  0.77604020065E+01  0.00000000000E+00 0. -1.
        -12    1    4    4    0    0  0.11719842213E+02 -0.57503343527E+02 -0.16838020117E+03  0.17831399655E+03  0.00000000000E+00 0.  1.
<mgrwt>
<rscale>  2 0.21155592E+03</rscale>
<asrwt>0</asrwt>
<pdfrwt beam="1">  1       21 0.15452852E-01 0.21168239E+03</pdfrwt>
<pdfrwt beam="2">  1       21 0.68790231E-01 0.21168239E+03</pdfrwt>
<totfact> 0.70937204E+04</totfact>
</mgrwt>
</event>
<event>
12    1  0.1050690E-001  0.2147149E+03  0.7546771E-02  0.1138091E+00
         21   -1    0    0  501  502  0.00000000000E+00  0.00000000000E+00  0.33627270056E+02  0.33627270056E+02  0.00000000000E+00 0. -1.
         21   -1    0    0  502  503 -0.00000000000E+00 -0.00000000000E+00 -0.15939009006E+04  0.15939009006E+04  0.00000000000E+00 0.  1.
         -6    2    1    2    0  503 -0.91341482412E+02  0.88953921546E+02 -0.10907262977E+04  0.11116592793E+04  0.17276119431E+03 0.  0.
        -24    2    3    3    0    0 -0.81902216122E+02  0.12626050214E+03 -0.77893144412E+03  0.79746347824E+03  0.81019238971E+02 0.  0.
          6    2    1    2  501    0  0.91341482412E+02 -0.88953921546E+02 -0.46954733284E+03  0.51586889132E+03  0.17143496927E+03 0.  0.
         24    2    5    5    0    0 -0.21668664206E+01  0.46403712887E+01 -0.17157251758E+03  0.18980941288E+03  0.81020096725E+02 0.  0.
          5    1    5    5  501    0  0.93508348833E+02 -0.93594292835E+02 -0.29797481526E+03  0.32605947844E+03  0.47000000000E+01 0. -1.
        -11    1    6    6    0    0 -0.12739522238E+02  0.38834400318E+02 -0.12201922629E+03  0.12868215751E+03  0.00000000000E+00 0.  1.
         12    1    6    6    0    0  0.10572655817E+02 -0.34194029029E+02 -0.49553291284E+02  0.61127255372E+02  0.00000000000E+00 0. -1.
         -5    1    3    3    0  503 -0.94392662904E+01 -0.37306580590E+02 -0.31179485358E+03  0.31419580109E+03  0.47000000000E+01 0.  1.
         11    1    4    4    0    0 -0.47745498549E+02  0.82623975978E+02 -0.28763222376E+03  0.30304892375E+03  0.00000000000E+00 0. -1.
        -12    1    4    4    0    0 -0.34156717573E+02  0.43636526159E+02 -0.49129922036E+03  0.49441455450E+03  0.00000000000E+00 0.  1.
<mgrwt>
<rscale>  2 0.21444801E+03</rscale>
<asrwt>0</asrwt>
<pdfrwt beam="1">  1       21 0.51734279E-02 0.21471492E+03</pdfrwt>
<pdfrwt beam="2">  1       21 0.24521544E+00 0.21471492E+03</pdfrwt>
<totfact> 0.17679613E+04</totfact>
</mgrwt>
</event>
<event>
12    1  0.1050690E-001  0.3016176E+03  0.7546771E-02  0.1084653E+00
         21   -1    0    0  503  502  0.00000000000E+00  0.00000000000E+00  0.25150316688E+03  0.25150316688E+03  0.00000000000E+00 0.  1.
         21   -1    0    0  501  503 -0.00000000000E+00 -0.00000000000E+00 -0.48350335324E+03  0.48350335324E+03  0.00000000000E+00 0. -1.
          6    2    1    2  501    0  0.22227687196E+03  0.10312649216E+03 -0.30227820994E+03  0.42701908184E+03  0.17587239367E+03 0.  0.
         24    2    3    3    0    0  0.22699609613E+03  0.12370985516E+03 -0.30179458844E+03  0.40537953935E+03  0.80132648729E+02 0.  0.
         -6    2    1    2    0  502 -0.22227687196E+03 -0.10312649216E+03  0.70278023583E+02  0.30798743827E+03  0.17284438186E+03 0.  0.
        -24    2    5    5    0    0 -0.62873283492E+02 -0.30642685028E+02 -0.23869689807E+02  0.10911740974E+03  0.80279655540E+02 0.  0.
          5    1    3    3  501    0 -0.47192241738E+01 -0.20583363001E+02 -0.48362150665E+00  0.21639542486E+02  0.47000000000E+01 0. -1.
        -11    1    4    4    0    0  0.54445880980E+02  0.57765789658E+02 -0.13441387649E+03  0.15610358934E+03  0.00000000000E+00 0.  1.
         12    1    4    4    0    0  0.17255021515E+03  0.65944065502E+02 -0.16738071194E+03  0.24927595001E+03  0.00000000000E+00 0. -1.
         -5    1    5    5    0  502 -0.15940358847E+03 -0.72483807131E+02  0.94147713390E+02  0.19887002853E+03  0.47000000000E+01 0.  1.
         13    1    6    6    0    0 -0.79705252536E+02 -0.29350170351E+02 -0.31501594746E+02  0.90590894979E+02  0.00000000000E+00 0. -1.
        -14    1    6    6    0    0  0.16831969045E+02 -0.12925146763E+01  0.76319049389E+01  0.18526514759E+02  0.00000000000E+00 0.  1.
<mgrwt>
<rscale>  2 0.30117776E+03</rscale>
<asrwt>0</asrwt>
<pdfrwt beam="1">  1       21 0.38692795E-01 0.30161761E+03</pdfrwt>
<pdfrwt beam="2">  1       21 0.74385131E-01 0.30161761E+03</pdfrwt>
<totfact> 0.98071977E+03</totfact>
</mgrwt>
</event>
<event>
12    1  0.1050690E-001  0.2152156E+03  0.7546771E-02  0.1137727E+00
         21   -1    0    0  501  502  0.00000000000E+00  0.00000000000E+00  0.30574898605E+03  0.30574898605E+03  0.00000000000E+00 0.  1.
         21   -1    0    0  502  503 -0.00000000000E+00 -0.00000000000E+00 -0.15757164112E+03  0.15757164112E+03  0.00000000000E+00 0.  1.
         -6    2    1    2    0  503 -0.95958536391E+02  0.81953321970E+02  0.12239726148E+03  0.24656649835E+03  0.17288597631E+03 0.  0.
        -24    2    3    3    0    0 -0.35398174000E+02  0.24151037151E+02  0.13349457257E+03  0.16198575624E+03  0.81131257848E+02 0.  0.
          6    2    1    2  501    0  0.95958536391E+02 -0.81953321970E+02  0.25780083448E+02  0.21675412881E+03  0.17433689215E+03 0.  0.
         24    2    5    5    0    0  0.70936106714E+02  0.84193271178E+01 -0.32454823967E+02  0.10627004791E+03  0.71674201635E+02 0.  0.
          5    1    5    5  501    0  0.25022429677E+02 -0.90372649087E+02  0.58234907415E+02  0.11048408090E+03  0.47000000000E+01 0. -1.
        -11    1    6    6    0    0  0.28134814445E+01 -0.70534555552E+01 -0.35541963981E+02  0.36344162072E+02  0.00000000000E+00 0.  1.
         12    1    6    6    0    0  0.68122625269E+02  0.15472782673E+02  0.30871400142E+01  0.69925885841E+02  0.00000000000E+00 0. -1.
         -5    1    3    3    0  503 -0.60560362391E+02  0.57802284819E+02 -0.11097311090E+02  0.84580742115E+02  0.47000000000E+01 0.  1.
         11    1    4    4    0    0 -0.34982364556E+02 -0.14512154636E+02  0.21601293645E+02  0.43600279234E+02  0.00000000000E+00 0. -1.
        -12    1    4    4    0    0 -0.41580944380E+00  0.38663191787E+02  0.11189327893E+03  0.11838547701E+03  0.00000000000E+00 0.  1.
<mgrwt>
<rscale>  2 0.21492156E+03</rscale>
<asrwt>0</asrwt>
<pdfrwt beam="1">  1       21 0.47038305E-01 0.21521557E+03</pdfrwt>
<pdfrwt beam="2">  1       21 0.24241791E-01 0.21521557E+03</pdfrwt>
<totfact> 0.68787917E+04</totfact>
</mgrwt>
</event>
<event>
12    1  0.1050690E-001  0.2375241E+03  0.7546771E-02  0.1121811E+00
         21   -1    0    0  503  502  0.00000000000E+00  0.00000000000E+00  0.28226747995E+03  0.28226747995E+03  0.00000000000E+00 0. -1.
         21   -1    0    0  501  503 -0.00000000000E+00 -0.00000000000E+00 -0.21934243953E+03  0.21934243953E+03  0.00000000000E+00 0. -1.
          6    2    1    2  501    0 -0.12307718657E+03 -0.10551671622E+03 -0.46712496206E+02  0.24000318584E+03  0.17069768791E+03 0.  0.
         24    2    3    3    0    0  0.89073953608E+00 -0.67539242420E+02 -0.23150907827E+02  0.10814123657E+03  0.81217115376E+02 0.  0.
         -6    2    1    2    0  502  0.12307718657E+03  0.10551671622E+03  0.10963753663E+03  0.26160673364E+03  0.17359701147E+03 0.  0.
        -24    2    5    5    0    0  0.58432585850E+00  0.12942388695E+02  0.57286797724E+02  0.99319343787E+02  0.80091872216E+02 0.  0.
          5    1    3    3  501    0 -0.12396792610E+03 -0.37977473798E+02 -0.23561588380E+02  0.13186194927E+03  0.47000000000E+01 0. -1.
        -11    1    4    4    0    0 -0.18987308450E+02  0.40959860907E+01 -0.27504463016E+02  0.33671805269E+02  0.00000000000E+00 0.  1.
         12    1    4    4    0    0  0.19878047986E+02 -0.71635228511E+02  0.43535551894E+01  0.74469431301E+02  0.00000000000E+00 0. -1.
         -5    1    5    5    0  502  0.12249286071E+03  0.92574327523E+02  0.52350738903E+02  0.16228738985E+03  0.47000000000E+01 0.  1.
         11    1    6    6    0    0  0.21033889891E+02 -0.10565146461E+00  0.69177088475E+02  0.72304254758E+02  0.00000000000E+00 0. -1.
        -12    1    6    6    0    0 -0.20449564032E+02  0.13048040160E+02 -0.11890290751E+02  0.27015089029E+02  0.00000000000E+00 0.  1.
<mgrwt>
<rscale>  2 0.23699465E+03</rscale>
<asrwt>0</asrwt>
<pdfrwt beam="1">  1       21 0.43425766E-01 0.23752409E+03</pdfrwt>
<pdfrwt beam="2">  1       21 0.33744991E-01 0.23752409E+03</pdfrwt>
<totfact> 0.42210942E+04</totfact>
</mgrwt>
</event>
<event>
12    1  0.1050690E-001  0.2643350E+03  0.7546771E-02  0.1104737E+00
         21   -1    0    0  501  502  0.00000000000E+00  0.00000000000E+00  0.87458164917E+03  0.87458164917E+03  0.00000000000E+00 0. -1.
         21   -1    0    0  502  503 -0.00000000000E+00 -0.00000000000E+00 -0.91427914121E+02  0.91427914121E+02  0.00000000000E+00 0.  1.
         -6    2    1    2    0  503 -0.19664676811E+03 -0.36613133555E+02  0.21668438073E+03  0.34090114023E+03  0.17102921856E+03 0.  0.
        -24    2    3    3    0    0 -0.13212014905E+03  0.41673168611E+02  0.11370593838E+03  0.19626684533E+03  0.79995296016E+02 0.  0.
          6    2    1    2  501    0  0.19664676811E+03  0.36613133555E+02  0.56646935432E+03  0.62510842306E+03  0.17280780724E+03 0.  0.
         24    2    5    5    0    0  0.18799916910E+02  0.10591410574E+02  0.14918972588E+03  0.17073961817E+03  0.80179972880E+02 0.  0.
          5    1    5    5  501    0  0.17784685120E+03  0.26021722981E+02  0.41727962844E+03  0.45436880489E+03  0.47000000000E+01 0. -1.
        -13    1    6    6    0    0 -0.16475948086E+02  0.59214462559E+01  0.14735536427E+00  0.17508343860E+02  0.00000000000E+00 0.  1.
         14    1    6    6    0    0  0.35275864997E+02  0.46699643184E+01  0.14904237051E+03  0.15323127431E+03  0.00000000000E+00 0. -1.
         -5    1    3    3    0  503 -0.64526619063E+02 -0.78286302166E+02  0.10297844235E+03  0.14463429491E+03  0.47000000000E+01 0.  1.
         13    1    4    4    0    0 -0.68404285492E+02  0.47200321701E+02  0.10145435894E+03  0.13114878417E+03  0.00000000000E+00 0. -1.
        -14    1    4    4    0    0 -0.63715863553E+02 -0.55271530900E+01  0.12251579447E+02  0.65118061155E+02  0.00000000000E+00 0.  1.
<mgrwt>
<rscale>  2 0.26404473E+03</rscale>
<asrwt>0</asrwt>
<pdfrwt beam="1">  1       21 0.13455102E+00 0.26433504E+03</pdfrwt>
<pdfrwt beam="2">  1       21 0.14065834E-01 0.26433504E+03</pdfrwt>
<totfact> 0.16739045E+04</totfact>
</mgrwt>
</event>
<event>
12    1  0.1050690E-001  0.2205146E+03  0.7546771E-02  0.1133848E+00
         21   -1    0    0  501  502  0.00000000000E+00  0.00000000000E+00  0.23111237305E+02  0.23111237305E+02  0.00000000000E+00 0.  1.
         21   -1    0    0  502  503 -0.00000000000E+00 -0.00000000000E+00 -0.23936102815E+04  0.23936102815E+04  0.00000000000E+00 0. -1.
         -6    2    1    2    0  503  0.13095213176E+03 -0.31022811170E+02 -0.16138447423E+04  0.16285892785E+04  0.17232907561E+03 0.  0.
        -24    2    3    3    0    0  0.13316060896E+03 -0.75005707473E+02 -0.12980202693E+04  0.13096746186E+04  0.83865268872E+02 0.  0.
          6    2    1    2  501    0 -0.13095213176E+03  0.31022811170E+02 -0.75665430186E+03  0.78813224023E+03  0.17468777846E+03 0.  0.
         24    2    5    5    0    0 -0.24609138240E+02 -0.36362469621E+02 -0.39026322985E+03  0.40068661052E+03  0.79476615376E+02 0.  0.
          5    1    5    5  501    0 -0.10634299352E+03  0.67385280791E+02 -0.36639107200E+03  0.38744562971E+03  0.47000000000E+01 0. -1.
        -11    1    6    6    0    0 -0.46838660243E+02 -0.45021044515E+02 -0.24450649366E+03  0.25299047410E+03  0.00000000000E+00 0.  1.
         12    1    6    6    0    0  0.22229522004E+02  0.86585748949E+01 -0.14575673619E+03  0.14769613642E+03  0.00000000000E+00 0. -1.
         -5    1    3    3    0  503 -0.22084772018E+01  0.43982896303E+02 -0.31582447302E+03  0.31891465990E+03  0.47000000000E+01 0.  1.
         11    1    4    4    0    0  0.10872425324E+03 -0.51956506415E+02 -0.12004697421E+04  0.12065024010E+04  0.00000000000E+00 0. -1.
        -12    1    4    4    0    0  0.24436355721E+02 -0.23049201058E+02 -0.97550527168E+02  0.10317221768E+03  0.00000000000E+00 0.  1.
<mgrwt>
<rscale>  2 0.22004719E+03</rscale>
<asrwt>0</asrwt>
<pdfrwt beam="1">  1       21 0.35555766E-02 0.22051462E+03</pdfrwt>
<pdfrwt beam="2">  1       21 0.36824756E+00 0.22051462E+03</pdfrwt>
<totfact> 0.62829378E+03</totfact>
</mgrwt>
</event>
<event>
12    1  0.1050690E-001  0.1945731E+03  0.7546771E-02  0.1154443E+00
         21   -1    0    0  503  502  0.00000000000E+00  0.00000000000E+00  0.17774650502E+03  0.17774650502E+03  0.00000000000E+00 0. -1.
         21   -1    0    0  501  503 -0.00000000000E+00 -0.00000000000E+00 -0.22216198289E+03  0.22216198289E+03  0.00000000000E+00 0. -1.
          6    2    1    2  501    0 -0.38459280695E+02 -0.79809527531E+02 -0.63289771674E+02  0.20442208473E+03  0.17301478715E+03 0.  0.
         24    2    3    3    0    0  0.88176291088E+01  0.69155481632E+01  0.97813741582E+01  0.81467510567E+02  0.80098093660E+02 0.  0.
         -6    2    1    2    0  502  0.38459280695E+02  0.79809527531E+02  0.18874293811E+02  0.19548640318E+03  0.17323399755E+03 0.  0.
        -24    2    5    5    0    0  0.68220499278E+02  0.77473405786E+02 -0.35303837425E+02  0.13344974063E+03  0.76852502959E+02 0.  0.
          5    1    3    3  501    0 -0.47276909804E+02 -0.86725075694E+02 -0.73071145832E+02  0.12295457416E+03  0.47000000000E+01 0. -1.
        -13    1    4    4    0    0 -0.26473005760E+02  0.17648652778E+02  0.26080859039E+02  0.41140080057E+02  0.00000000000E+00 0.  1.
         14    1    4    4    0    0  0.35290634869E+02 -0.10733104615E+02 -0.16299484881E+02  0.40327430510E+02  0.00000000000E+00 0. -1.
         -5    1    5    5    0  502 -0.29761218583E+02  0.23361217447E+01  0.54178131236E+02  0.62036662552E+02  0.47000000000E+01 0.  1.
         13    1    6    6    0    0  0.18405475914E+02  0.42301395038E+02 -0.52697622653E+02  0.70037197253E+02  0.00000000000E+00 0. -1.
        -14    1    6    6    0    0  0.49815023364E+02  0.35172010748E+02  0.17393785228E+02  0.63412543376E+02  0.00000000000E+00 0.  1.
<mgrwt>
<rscale>  2 0.19452431E+03</rscale>
<asrwt>0</asrwt>
<pdfrwt beam="1">  1       21 0.27345616E-01 0.19457311E+03</pdfrwt>
<pdfrwt beam="2">  1       21 0.34178766E-01 0.19457311E+03</pdfrwt>
<totfact> 0.10511907E+05</totfact>
</mgrwt>
</event>
<event>
12    1  0.1050690E-001  0.2126065E+03  0.7546771E-02  0.1139650E+00
         21   -1    0    0  501  502  0.00000000000E+00  0.00000000000E+00  0.43688876208E+03  0.43688876208E+03  0.00000000000E+00 0.  1.
         21   -1    0    0  502  503 -0.00000000000E+00 -0.00000000000E+00 -0.22760236470E+03  0.22760236470E+03  0.00000000000E+00 0. -1.
         -6    2    1    2    0  503  0.90996127797E+02 -0.82621642008E+02 -0.14097818861E+03  0.25510070577E+03  0.17347878664E+03 0.  0.
        -24    2    3    3    0    0  0.13073982030E+03 -0.69077314328E+02 -0.99125179929E+02  0.19562992099E+03  0.81121444291E+02 0.  0.
          6    2    1    2  501    0 -0.90996127797E+02  0.82621642008E+02  0.35026458599E+03  0.40939042102E+03  0.17265168872E+03 0.  0.
         24    2    5    5    0    0 -0.52447724923E+02  0.10651678909E+03  0.15508001914E+03  0.20895074791E+03  0.74256397081E+02 0.  0.
          5    1    5    5  501    0 -0.38548402874E+02 -0.23895147087E+02  0.19518456685E+03  0.20043967310E+03  0.47000000000E+01 0. -1.
        -13    1    6    6    0    0 -0.23924654305E+02  0.72579155596E+02  0.14436168019E+03  0.16334141428E+03  0.00000000000E+00 0.  1.
         14    1    6    6    0    0 -0.28523070617E+02  0.33937633499E+02  0.10718338955E+02  0.45609333638E+02  0.00000000000E+00 0. -1.
         -5    1    3    3    0  503 -0.39743692502E+02 -0.13544327679E+02 -0.41853008685E+02  0.59470784776E+02  0.47000000000E+01 0.  1.
         11    1    4    4    0    0  0.32662968564E+02 -0.16666761089E+02 -0.72558728016E+02  0.81298336096E+02  0.00000000000E+00 0. -1.
        -12    1    4    4    0    0  0.98076851734E+02 -0.52410553239E+02 -0.26566451912E+02  0.11433158489E+03  0.00000000000E+00 0.  1.
<mgrwt>
<rscale>  2 0.21243771E+03</rscale>
<asrwt>0</asrwt>
<pdfrwt beam="1">  1       21 0.67213655E-01 0.21260649E+03</pdfrwt>
<pdfrwt beam="2">  1       21 0.35015749E-01 0.21260649E+03</pdfrwt>
<totfact> 0.15731168E+04</totfact>
</mgrwt>
</event>
<event>
12    1  0.1050690E-001  0.2897444E+03  0.7546771E-02  0.1090558E+00
         21   -1    0    0  503  502  0.00000000000E+00  0.00000000000E+00  0.44125234456E+03  0.44125234456E+03  0.00000000000E+00 0. -1.
         21   -1    0    0  501  503 -0.00000000000E+00 -0.00000000000E+00 -0.28179456363E+03  0.28179456363E+03  0.00000000000E+00 0. -1.
          6    2    1    2  501    0 -0.24061730602E+02  0.23101294609E+03 -0.12668848841E+03  0.31623058307E+03  0.17322199754E+03 0.  0.
         24    2    3    3    0    0 -0.66986228608E+02  0.13197568412E+03 -0.26287940999E+02  0.16874074712E+03  0.76665819466E+02 0.  0.
         -6    2    1    2    0  502  0.24061730602E+02 -0.23101294609E+03  0.28614626934E+03  0.40681632512E+03  0.17226110062E+03 0.  0.
        -24    2    5    5    0    0 -0.41289622046E+02 -0.19400549315E+03  0.20281147407E+03  0.29453485306E+03  0.79216926164E+02 0.  0.
          5    1    3    3  501    0  0.42924498007E+02  0.99037261977E+02 -0.10040054742E+03  0.14748983596E+03  0.47000000000E+01 0. -1.
        -11    1    4    4    0    0 -0.43217579828E+02  0.12693977198E+03 -0.41140808142E+02  0.14026414728E+03  0.00000000000E+00 0.  1.
         12    1    4    4    0    0 -0.23768648780E+02  0.50359121306E+01  0.14852867143E+02  0.28476599835E+02  0.00000000000E+00 0. -1.
         -5    1    5    5    0  502  0.65351352648E+02 -0.37007452942E+02  0.83334795269E+02  0.11228147206E+03  0.47000000000E+01 0.  1.
         13    1    6    6    0    0  0.12875948230E+02 -0.84293403721E+02  0.11830871927E+03  0.14583593868E+03  0.00000000000E+00 0. -1.
        -14    1    6    6    0    0 -0.54165570276E+02 -0.10971208943E+03  0.84502754799E+02  0.14869891438E+03  0.00000000000E+00 0.  1.
<mgrwt>
<rscale>  2 0.28960092E+03</rscale>
<asrwt>0</asrwt>
<pdfrwt beam="1">  1       21 0.67884976E-01 0.28974438E+03</pdfrwt>
<pdfrwt beam="2">  1       21 0.43353010E-01 0.28974438E+03</pdfrwt>
<totfact> 0.95841238E+03</totfact>
</mgrwt>
</event>
<event>
12    1  0.1050690E-001  0.1996910E+03  0.7546771E-02  0.1154108E+00
         21   -1    0    0  503  502  0.00000000000E+00  0.00000000000E+00  0.12616883847E+04  0.12616883847E+04  0.00000000000E+00 0.  1.
         21   -1    0    0  501  503 -0.00000000000E+00 -0.00000000000E+00 -0.80117586363E+02  0.80117586363E+02  0.00000000000E+00 0.  1.
          6    2    1    2  501    0 -0.95301574735E+01  0.52572747808E+02  0.43541473761E+02  0.18638950011E+03  0.17317756235E+03 0.  0.
         24    2    3    3    0    0  0.50647065146E+02  0.24902245338E+02 -0.11910262576E+02  0.99879732501E+02  0.81540539483E+02 0.  0.
         -6    2    1    2    0  502  0.95301574735E+01 -0.52572747808E+02  0.11380293246E+04  0.11554164710E+04  0.19241039483E+03 0.  0.
        -24    2    5    5    0    0 -0.38265938888E+02 -0.98779354510E+02  0.75059706798E+03  0.76229389365E+03  0.80463525187E+02 0.  0.
          5    1    3    3  501    0 -0.60177222620E+02  0.27670502470E+02  0.55451736337E+02  0.86509767610E+02  0.47000000000E+01 0. -1.
        -11    1    4    4    0    0  0.12484684673E+02 -0.11638115741E+02  0.28597175835E+02  0.33303326487E+02  0.00000000000E+00 0.  1.
         12    1    4    4    0    0  0.38162380473E+02  0.36540361078E+02 -0.40507438411E+02  0.66576406014E+02  0.00000000000E+00 0. -1.
         -5    1    5    5    0  502  0.47796096361E+02  0.46206606702E+02  0.38743225662E+03  0.39312257732E+03  0.47000000000E+01 0.  1.
         11    1    6    6    0    0 -0.14208068310E+02 -0.40435386097E+02  0.10206565200E+03  0.11069908297E+03  0.00000000000E+00 0. -1.
        -12    1    6    6    0    0 -0.24057870578E+02 -0.58343968414E+02  0.64853141598E+03  0.65159481068E+03  0.00000000000E+00 0.  1.
<mgrwt>
<rscale>  2 0.19490715E+03</rscale>
<asrwt>0</asrwt>
<pdfrwt beam="1">  1       21 0.19410589E+00 0.19969096E+03</pdfrwt>
<pdfrwt beam="2">  1       21 0.12325783E-01 0.19969096E+03</pdfrwt>
<totfact> 0.81504927E+03</totfact>
</mgrwt>
</event>
<event>
12    1  0.1050690E-001  0.1971572E+03  0.7546771E-02  0.1152195E+00
         21   -1    0    0  503  502  0.00000000000E+00  0.00000000000E+00  0.25933487051E+03  0.25933487051E+03  0.00000000000E+00 0. -1.
         21   -1    0    0  501  503 -0.00000000000E+00 -0.00000000000E+00 -0.43817910178E+03  0.43817910178E+03  0.00000000000E+00 0. -1.
          6    2    1    2  501    0 -0.66797949010E+02 -0.66062386588E+02 -0.37235733214E+03  0.42125631547E+03  0.17314934483E+03 0.  0.
         24    2    3    3    0    0 -0.77347656699E+02 -0.44197518390E+02 -0.37696839515E+03  0.39610237551E+03  0.82800001872E+02 0.  0.
         -6    2    1    2    0  502  0.66797949010E+02  0.66062386588E+02  0.19351310087E+03  0.27625765682E+03  0.17333426617E+03 0.  0.
        -24    2    5    5    0    0  0.10730679375E+03  0.61778648551E+02  0.10921658633E+03  0.18251700781E+03  0.77800038601E+02 0.  0.
          5    1    3    3  501    0  0.10549707689E+02 -0.21864868198E+02  0.46110630151E+01  0.25153939965E+02  0.47000000000E+01 0. -1.
        -13    1    4    4    0    0 -0.23679789282E+02 -0.19419024926E+02 -0.25946019658E+02  0.40137599400E+02  0.00000000000E+00 0.  1.
         14    1    4    4    0    0 -0.53667867417E+02 -0.24778493465E+02 -0.35102237549E+03  0.35596477611E+03  0.00000000000E+00 0. -1.
         -5    1    5    5    0  502 -0.40508844743E+02  0.42837380371E+01  0.84296514540E+02  0.93740649014E+02  0.47000000000E+01 0.  1.
         13    1    6    6    0    0  0.30651997191E+01  0.23363622017E+02  0.53013989525E+02  0.58014975381E+02  0.00000000000E+00 0. -1.
        -14    1    6    6    0    0  0.10424159403E+03  0.38415026534E+02  0.56202596808E+02  0.12450203243E+03  0.00000000000E+00 0.  1.
<mgrwt>
<rscale>  2 0.19711658E+03</rscale>
<asrwt>0</asrwt>
<pdfrwt beam="1">  1       21 0.39897673E-01 0.19715723E+03</pdfrwt>
<pdfrwt beam="2">  1       21 0.67412168E-01 0.19715723E+03</pdfrwt>
<totfact> 0.12150742E+04</totfact>
</mgrwt>
</event>
<event>
12    1  0.1050690E-001  0.2199156E+03  0.7546771E-02  0.1134297E+00
         21   -1    0    0  503  502  0.00000000000E+00  0.00000000000E+00  0.54269367368E+03  0.54269367368E+03  0.00000000000E+00 0. -1.
         21   -1    0    0  501  503 -0.00000000000E+00 -0.00000000000E+00 -0.11816233317E+03  0.11816233317E+03  0.00000000000E+00 0.  1.
          6    2    1    2  501    0 -0.95738392945E+02 -0.95262609399E+02  0.45642419257E+02  0.22276961812E+03  0.17117905155E+03 0.  0.
         24    2    3    3    0    0 -0.96059807646E+02 -0.78089892549E+02  0.91871833820E+02  0.17322918734E+03  0.79008857312E+02 0.  0.
         -6    2    1    2    0  502  0.95738392945E+02  0.95262609399E+02  0.37888892126E+03  0.43808638872E+03  0.17355709348E+03 0.  0.
        -24    2    5    5    0    0  0.10954279564E+03  0.33333433082E+02  0.31920883242E+03  0.35085343958E+03  0.89961744821E+02 0.  0.
          5    1    3    3  501    0  0.32141470185E+00 -0.17172716850E+02 -0.46229414563E+02  0.49540430784E+02  0.47000000000E+01 0. -1.
        -13    1    4    4    0    0 -0.62863913781E+01 -0.46972675029E+02  0.11463721838E+02  0.48758259139E+02  0.00000000000E+00 0.  1.
         14    1    4    4    0    0 -0.89773416268E+02 -0.31117217520E+02  0.80408111982E+02  0.12447092820E+03  0.00000000000E+00 0. -1.
         -5    1    5    5    0  502 -0.13804402693E+02  0.61929176317E+02  0.59680088842E+02  0.87232949148E+02  0.47000000000E+01 0.  1.
         11    1    6    6    0    0  0.12139667263E+03  0.17573775847E+02  0.24392960325E+03  0.27303413901E+03  0.00000000000E+00 0. -1.
        -12    1    6    6    0    0 -0.11853876998E+02  0.15759657235E+02  0.75279229170E+02  0.77819300565E+02  0.00000000000E+00 0.  1.
<mgrwt>
<rscale>  2 0.21944613E+03</rscale>
<asrwt>0</asrwt>
<pdfrwt beam="1">  1       21 0.83491333E-01 0.21991560E+03</pdfrwt>
<pdfrwt beam="2">  1       21 0.18178821E-01 0.21991560E+03</pdfrwt>
<totfact> 0.33916212E+04</totfact>
</mgrwt>
</event>
<event>
12    1  0.1050690E-001  0.1910807E+03  0.7546771E-02  0.1157669E+00
         21   -1    0    0  503  502  0.00000000000E+00  0.00000000000E+00  0.74399133950E+02  0.74399133950E+02  0.00000000000E+00 0. -1.
         21   -1    0    0  501  503 -0.00000000000E+00 -0.00000000000E+00 -0.54391266381E+03  0.54391266381E+03  0.00000000000E+00 0.  1.
          6    2    1    2  501    0 -0.79897258010E+02 -0.87942300772E+01 -0.33368963434E+03  0.38452648491E+03  0.17335205568E+03 0.  0.
         24    2    3    3    0    0 -0.40409327881E+02  0.13350956511E+02 -0.32590677702E+03  0.33834890612E+03  0.80334258843E+02 0.  0.
         -6    2    1    2    0  502  0.79897258010E+02  0.87942300772E+01 -0.13582389552E+03  0.23378531285E+03  0.17247182840E+03 0.  0.
        -24    2    5    5    0    0  0.28010589138E+02  0.55726235626E+02 -0.12682089404E+03  0.16308889436E+03  0.81390674261E+02 0.  0.
          5    1    3    3  501    0 -0.39487930129E+02 -0.22145186589E+02 -0.77828573197E+01  0.46177578791E+02  0.47000000000E+01 0. -1.
        -11    1    4    4    0    0 -0.30677406735E+02  0.39218045546E+02 -0.11079356333E+03  0.12146757615E+03  0.00000000000E+00 0.  1.
         12    1    4    4    0    0 -0.97319211460E+01 -0.25867089035E+02 -0.21511321369E+03  0.21688132997E+03  0.00000000000E+00 0. -1.
         -5    1    5    5    0  502  0.51886668872E+02 -0.46932005549E+02 -0.90030014726E+01  0.70696418488E+02  0.47000000000E+01 0.  1.
         13    1    6    6    0    0  0.42453942859E+02 -0.25014630308E+01 -0.51020906824E+02  0.66420836450E+02  0.00000000000E+00 0. -1.
        -14    1    6    6    0    0 -0.14443353721E+02  0.58227698657E+02 -0.75799987220E+02  0.96668057911E+02  0.00000000000E+00 0.  1.
<mgrwt>
<rscale>  2 0.19088087E+03</rscale>
<asrwt>0</asrwt>
<pdfrwt beam="1">  1       21 0.11446021E-01 0.19108073E+03</pdfrwt>
<pdfrwt beam="2">  1       21 0.83678868E-01 0.19108073E+03</pdfrwt>
<totfact> 0.79352273E+04</totfact>
</mgrwt>
</event>
<event>
12    1  0.1050690E-001  0.1872081E+03  0.7546771E-02  0.1161084E+00
         21   -1    0    0  503  502  0.00000000000E+00  0.00000000000E+00  0.11647612817E+03  0.11647612817E+03  0.00000000000E+00 0.  1.
         21   -1    0    0  501  503 -0.00000000000E+00 -0.00000000000E+00 -0.42738468227E+03  0.42738468227E+03  0.00000000000E+00 0.  1.
          6    2    1    2  501    0  0.38502750711E+02 -0.59675320404E+02 -0.30382214155E+03  0.35686797150E+03  0.17321446159E+03 0.  0.
         24    2    3    3    0    0  0.38426885222E+02 -0.10587775857E+03 -0.19819611162E+03  0.24148331373E+03  0.79660321890E+02 0.  0.
         -6    2    1    2    0  502 -0.38502750711E+02  0.59675320404E+02 -0.70864125527E+01  0.18699283895E+03  0.17283662487E+03 0.  0.
        -24    2    5    5    0    0  0.16467220813E+02  0.71650490931E+02 -0.45756950043E+02  0.11856329161E+03  0.80985143259E+02 0.  0.
          5    1    3    3  501    0  0.75865489393E-01  0.46202438161E+02 -0.10562602994E+03  0.11538465777E+03  0.47000000000E+01 0. -1.
        -11    1    4    4    0    0  0.61900416128E+02 -0.68431086922E+02 -0.11667998898E+03  0.14875716791E+03  0.00000000000E+00 0.  1.
         12    1    4    4    0    0 -0.23473530906E+02 -0.37446671643E+02 -0.81516122634E+02  0.92726145825E+02  0.00000000000E+00 0. -1.
         -5    1    5    5    0  502 -0.54969971524E+02 -0.11975170527E+02  0.38670537490E+02  0.68429547334E+02  0.47000000000E+01 0.  1.
         13    1    6    6    0    0 -0.21212576480E+01 -0.15250506494E+02 -0.21500998934E+02  0.26445616602E+02  0.00000000000E+00 0. -1.
        -14    1    6    6    0    0  0.18588478461E+02  0.86900997425E+02 -0.24255951109E+02  0.92117675010E+02  0.00000000000E+00 0.  1.
<mgrwt>
<rscale>  2 0.18712061E+03</rscale>
<asrwt>0</asrwt>
<pdfrwt beam="1">  1       21 0.17919405E-01 0.18720805E+03</pdfrwt>
<pdfrwt beam="2">  1       21 0.65751489E-01 0.18720805E+03</pdfrwt>
<totfact> 0.60322112E+04</totfact>
</mgrwt>
</event>
<event>
12    1  0.1050690E-001  0.1734779E+03  0.7546771E-02  0.1174676E+00
         21   -1    0    0  503  502  0.00000000000E+00  0.00000000000E+00  0.79919947323E+03  0.79919947323E+03  0.00000000000E+00 0.  1.
         21   -1    0    0  501  503 -0.00000000000E+00 -0.00000000000E+00 -0.39477429735E+02  0.39477429735E+02  0.00000000000E+00 0.  1.
          6    2    1    2  501    0 -0.38336627587E+00 -0.24952532444E+01  0.47977770360E+03  0.51017762643E+03  0.17345948338E+03 0.  0.
         24    2    3    3    0    0  0.19396550794E+01  0.59586718474E+02  0.38242739025E+03  0.39459760588E+03  0.76825923161E+02 0.  0.
         -6    2    1    2    0  502  0.38336627587E+00  0.24952532444E+01  0.27994433989E+03  0.32849927654E+03  0.17186206094E+03 0.  0.
        -24    2    5    5    0    0 -0.13486517147E+02 -0.32004706195E+02  0.59089160467E+02  0.10448650649E+03  0.78865162077E+02 0.  0.
          5    1    3    3  501    0 -0.23230213553E+01 -0.62081971719E+02  0.97350313346E+02  0.11558002055E+03  0.47000000000E+01 0. -1.
        -13    1    4    4    0    0  0.39251469799E+02  0.31529312662E+02  0.21148363597E+03  0.21739389072E+03  0.00000000000E+00 0.  1.
         14    1    4    4    0    0 -0.37311814720E+02  0.28057405812E+02  0.17094375429E+03  0.17720371516E+03  0.00000000000E+00 0. -1.
         -5    1    5    5    0  502  0.13869883423E+02  0.34499959439E+02  0.22085517943E+03  0.22401277005E+03  0.47000000000E+01 0.  1.
         13    1    6    6    0    0 -0.36502440781E+02 -0.15705312498E+02  0.64510444646E+02  0.75767291703E+02  0.00000000000E+00 0. -1.
        -14    1    6    6    0    0  0.23015923633E+02 -0.16299393696E+02 -0.54212841788E+01  0.28719214782E+02  0.00000000000E+00 0.  1.
<mgrwt>
<rscale>  2 0.17307715E+03</rscale>
<asrwt>0</asrwt>
<pdfrwt beam="1">  1       21 0.12295375E+00 0.17347785E+03</pdfrwt>
<pdfrwt beam="2">  1       21 0.60734513E-02 0.17347785E+03</pdfrwt>
<totfact> 0.96823049E+04</totfact>
</mgrwt>
</event>
<event>
12    1  0.1050690E-001  0.2724713E+03  0.7546771E-02  0.1100045E+00
         21   -1    0    0  503  502  0.00000000000E+00  0.00000000000E+00  0.34317351484E+03  0.34317351484E+03  0.00000000000E+00 0.  1.
         21   -1    0    0  501  503 -0.00000000000E+00 -0.00000000000E+00 -0.41128782768E+03  0.41128782768E+03  0.00000000000E+00 0.  1.
          6    2    1    2  501    0  0.12562640095E+03  0.16849875951E+03 -0.29445008368E+03  0.40117509740E+03  0.17339775783E+03 0.  0.
         24    2    3    3    0    0  0.99905548525E+02  0.13165858317E+03 -0.11693920022E+03  0.21800587348E+03  0.80849756819E+02 0.  0.
         -6    2    1    2    0  502 -0.12562640095E+03 -0.16849875951E+03  0.22633577084E+03  0.35328624513E+03  0.17149188104E+03 0.  0.
        -24    2    5    5    0    0 -0.77331009238E+02 -0.11673686790E+03  0.23131880342E+03  0.28216199541E+03  0.80618989844E+02 0.  0.
          5    1    3    3  501    0  0.25720852426E+02  0.36840176340E+02 -0.17751088346E+03  0.18316922391E+03  0.47000000000E+01 0. -1.
        -13    1    4    4    0    0  0.52786747876E+02  0.93155703056E+02 -0.11499551337E+03  0.15712540806E+03  0.00000000000E+00 0.  1.
         14    1    4    4    0    0  0.47118800649E+02  0.38502880110E+02 -0.19436868490E+01  0.60880465421E+02  0.00000000000E+00 0. -1.
         -5    1    5    5    0  502 -0.48295391713E+02 -0.51761891608E+02 -0.49830325774E+01  0.71124249713E+02  0.47000000000E+01 0.  1.
         11    1    6    6    0    0  0.16641184150E+02 -0.21137387057E+02  0.29996183889E+02  0.40292545085E+02  0.00000000000E+00 0. -1.
        -12    1    6    6    0    0 -0.93972193388E+02 -0.95599480841E+02  0.20132261953E+03  0.24186945033E+03  0.00000000000E+00 0.  1.
<mgrwt>
<rscale>  2 0.27216857E+03</rscale>
<asrwt>0</asrwt>
<pdfrwt beam="1">  1       21 0.52795926E-01 0.27247130E+03</pdfrwt>
<pdfrwt beam="2">  1       21 0.63275050E-01 0.27247130E+03</pdfrwt>
<totfact> 0.74737457E+03</totfact>
</mgrwt>
</event>
<event>
12    1  0.1050690E-001  0.6008009E+03  0.7546771E-02  0.9903841E-01
         21   -1    0    0  501  502  0.00000000000E+00  0.00000000000E+00  0.18562658129E+03  0.18562658129E+03  0.00000000000E+00 0.  1.
         21   -1    0    0  502  503 -0.00000000000E+00 -0.00000000000E+00 -0.22512533563E+04  0.22512533563E+04  0.00000000000E+00 0. -1.
         -6    2    1    2    0  503 -0.70261881406E+01 -0.57515777201E+03 -0.14828361364E+04  0.15998574787E+04  0.17287311710E+03 0.  0.
        -24    2    3    3    0    0  0.24416865563E+02 -0.13066541377E+03 -0.39722938200E+03  0.42634725828E+03  0.79442866504E+02 0.  0.
          6    2    1    2  501    0  0.70261881406E+01  0.57515777201E+03 -0.58279063863E+03  0.83702245894E+03  0.17351034054E+03 0.  0.
         24    2    5    5    0    0 -0.97206980943E+01  0.48435841093E+03 -0.40233776837E+03  0.63426568210E+03  0.75628786988E+02 0.  0.
          5    1    5    5  501    0  0.16746886235E+02  0.90799361082E+02 -0.18045287026E+03  0.20275677684E+03  0.47000000000E+01 0. -1.
        -11    1    6    6    0    0  0.11006976815E+02  0.34434607396E+03 -0.32171052018E+03  0.47137355779E+03  0.00000000000E+00 0.  1.
         12    1    6    6    0    0 -0.20727674909E+02  0.14001233697E+03 -0.80627248193E+02  0.16289212431E+03  0.00000000000E+00 0. -1.
         -5    1    3    3    0  503 -0.31443053703E+02 -0.44449235824E+03 -0.10856067544E+04  0.11735102204E+04  0.47000000000E+01 0.  1.
         13    1    4    4    0    0  0.27862133245E+02 -0.12970562374E+03 -0.28829807057E+03  0.31735725105E+03  0.00000000000E+00 0. -1.
        -14    1    4    4    0    0 -0.34452676820E+01 -0.95979003150E+00 -0.10893131143E+03  0.10899000723E+03  0.00000000000E+00 0.  1.
<mgrwt>
<rscale>  2 0.60075492E+03</rscale>
<asrwt>0</asrwt>
<pdfrwt beam="1">  1       21 0.28557934E-01 0.60080086E+03</pdfrwt>
<pdfrwt beam="2">  1       21 0.34634669E+00 0.60080086E+03</pdfrwt>
<totfact> 0.15247832E+02</totfact>
</mgrwt>
</event>
<event>
12    1  0.1050690E-001  0.1921249E+03  0.7546771E-02  0.1157739E+00
         21   -1    0    0  501  502  0.00000000000E+00  0.00000000000E+00  0.38522805172E+03  0.38522805172E+03  0.00000000000E+00 0. -1.
         21   -1    0    0  502  503 -0.00000000000E+00 -0.00000000000E+00 -0.17575409208E+03  0.17575409208E+03  0.00000000000E+00 0. -1.
         -6    2    1    2    0  503 -0.62515501952E+02 -0.52791477270E+02 -0.88226750875E+02  0.20666917525E+03  0.16802696322E+03 0.  0.
        -24    2    3    3    0    0 -0.13215638755E+02 -0.29233771566E+02  0.14987424449E+02  0.89790186556E+02  0.82512957785E+02 0.  0.
          6    2    1    2  501    0  0.62515501952E+02  0.52791477270E+02  0.29770071052E+03  0.35431296855E+03  0.17382991279E+03 0.  0.
         24    2    5    5    0    0  0.25370554097E+02  0.81192985027E+02  0.10891612958E+03  0.15976708503E+03  0.80167526735E+02 0.  0.
          5    1    5    5  501    0  0.37144947856E+02 -0.28401507757E+02  0.18878458094E+03  0.19454588352E+03  0.47000000000E+01 0. -1.
        -13    1    6    6    0    0  0.29866479616E+02  0.31130174335E+02  0.38688506047E+01  0.43313535573E+02  0.00000000000E+00 0.  1.
         14    1    6    6    0    0 -0.44959255196E+01  0.50062810692E+02  0.10504727897E+03  0.11645354945E+03  0.00000000000E+00 0. -1.
         -5    1    3    3    0  503 -0.49299863197E+02 -0.23557705704E+02 -0.10321417532E+03  0.11687898869E+03  0.47000000000E+01 0.  1.
         11    1    4    4    0    0  0.14408925641E+02 -0.29622486344E+02 -0.24883323283E+02  0.41283030569E+02  0.00000000000E+00 0. -1.
        -12    1    4    4    0    0 -0.27624564396E+02  0.38871477815E+00  0.39870747732E+02  0.48507155987E+02  0.00000000000E+00 0.  1.
<mgrwt>
<rscale>  2 0.19080278E+03</rscale>
<asrwt>0</asrwt>
<pdfrwt beam="1">  1       21 0.59265854E-01 0.19212487E+03</pdfrwt>
<pdfrwt beam="2">  1       21 0.27039091E-01 0.19212487E+03</pdfrwt>
<totfact> 0.34686071E+04</totfact>
</mgrwt>
</event>
<event>
12    1  0.1050690E-001  0.1788993E+03  0.7546771E-02  0.1169102E+00
         21   -1    0    0  501  502  0.00000000000E+00  0.00000000000E+00  0.12962379295E+04  0.12962379295E+04  0.00000000000E+00 0.  1.
         21   -1    0    0  502  503 -0.00000000000E+00 -0.00000000000E+00 -0.12354476496E+03  0.12354476496E+03  0.00000000000E+00 0.  1.
         -6    2    1    2    0  503  0.25268644355E+02  0.33117319067E+02 -0.48766624704E+02  0.18542695020E+03  0.17398192138E+03 0.  0.
        -24    2    3    3    0    0 -0.46877305215E+02 -0.40095182759E+01 -0.49941086495E+02  0.10414405255E+03  0.78347390386E+02 0.  0.
          6    2    1    2  501    0 -0.25268644355E+02 -0.33117319067E+02  0.12214597892E+04  0.12343557443E+04  0.17301683564E+03 0.  0.
         24    2    5    5    0    0 -0.14293627965E+02  0.44645503720E+02  0.81381061073E+03  0.81918415281E+03  0.81101401243E+02 0.  0.
          5    1    5    5  501    0 -0.10975016390E+02 -0.77762822787E+02  0.40764917852E+03  0.41517159144E+03  0.47000000000E+01 0. -1.
        -13    1    6    6    0    0 -0.37066941923E+02  0.23059492924E+02  0.69271889556E+03  0.69409305332E+03  0.00000000000E+00 0.  1.
         14    1    6    6    0    0  0.22773313958E+02  0.21586010796E+02  0.12109171517E+03  0.12509109950E+03  0.00000000000E+00 0. -1.
         -5    1    3    3    0  503  0.72145949570E+02  0.37126837343E+02  0.11744617907E+01  0.81282897653E+02  0.47000000000E+01 0.  1.
         13    1    4    4    0    0 -0.27076300563E+02  0.36906031724E+02 -0.28140790301E+02  0.53731604373E+02  0.00000000000E+00 0. -1.
        -14    1    4    4    0    0 -0.19801004652E+02 -0.40915550000E+02 -0.21800296194E+02  0.50412448177E+02  0.00000000000E+00 0.  1.
<mgrwt>
<rscale>  2 0.17866426E+03</rscale>
<asrwt>0</asrwt>
<pdfrwt beam="1">  1       21 0.19942121E+00 0.17889933E+03</pdfrwt>
<pdfrwt beam="2">  1       21 0.19006888E-01 0.17889933E+03</pdfrwt>
<totfact> 0.34847372E+03</totfact>
</mgrwt>
</event>
<event>
12    1  0.1050690E-001  0.2015813E+03  0.7546771E-02  0.1148444E+00
         21   -1    0    0  503  502  0.00000000000E+00  0.00000000000E+00  0.84557074639E+02  0.84557074639E+02  0.00000000000E+00 0.  1.
         21   -1    0    0  501  503 -0.00000000000E+00 -0.00000000000E+00 -0.50208416833E+03  0.50208416833E+03  0.00000000000E+00 0.  1.
          6    2    1    2  501    0  0.87776922939E+02  0.54372675673E+02 -0.26993557691E+03  0.33680471876E+03  0.17294804663E+03 0.  0.
         24    2    3    3    0    0 -0.21039561778E+02  0.20277235026E+02 -0.13776243780E+03  0.16217552554E+03  0.80427497767E+02 0.  0.
         -6    2    1    2    0  502 -0.87776922939E+02 -0.54372675673E+02 -0.14759151677E+03  0.24983652421E+03  0.17312959581E+03 0.  0.
        -24    2    5    5    0    0 -0.20398149680E+02 -0.12086970131E+02 -0.14774564683E+03  0.17014904881E+03  0.80992242191E+02 0.  0.
          5    1    3    3  501    0  0.10881648472E+03  0.34095440646E+02 -0.13217313912E+03  0.17462919321E+03  0.47000000000E+01 0. -1.
        -11    1    4    4    0    0  0.18267414891E+02  0.36536447931E+02 -0.49351492930E+02  0.64063876941E+02  0.00000000000E+00 0.  1.
         12    1    4    4    0    0 -0.39306976668E+02 -0.16259212905E+02 -0.88410944868E+02  0.98111648603E+02  0.00000000000E+00 0. -1.
         -5    1    5    5    0  502 -0.67378773260E+02 -0.42285705542E+02  0.15413006053E+00  0.79687475397E+02  0.47000000000E+01 0.  1.
         13    1    6    6    0    0 -0.10590862495E+02  0.22810610468E+02 -0.89446488164E+01  0.26692640573E+02  0.00000000000E+00 0. -1.
        -14    1    6    6    0    0 -0.98072871849E+01 -0.34897580599E+02 -0.13880099802E+03  0.14345640824E+03  0.00000000000E+00 0.  1.
<mgrwt>
<rscale>  2 0.20154234E+03</rscale>
<asrwt>0</asrwt>
<pdfrwt beam="1">  1       21 0.13008781E-01 0.20158133E+03</pdfrwt>
<pdfrwt beam="2">  1       21 0.77243717E-01 0.20158133E+03</pdfrwt>
<totfact> 0.75260642E+04</totfact>
</mgrwt>
</event>
<event>
12    1  0.1050690E-001  0.2092980E+03  0.7546771E-02  0.1143404E+00
         21   -1    0    0  501  502  0.00000000000E+00  0.00000000000E+00  0.92030810508E+02  0.92030810508E+02  0.00000000000E+00 0.  1.
         21   -1    0    0  502  503 -0.00000000000E+00 -0.00000000000E+00 -0.64038614171E+03  0.64038614171E+03  0.00000000000E+00 0.  1.
         -6    2    1    2    0  503  0.11237208149E+03  0.38040688606E+02 -0.47064828807E+03  0.51508783538E+03  0.17242705242E+03 0.  0.
        -24    2    3    3    0    0  0.48535554706E+02  0.67028532136E+02 -0.18042952455E+03  0.21648371967E+03  0.86382077764E+02 0.  0.
          6    2    1    2  501    0 -0.11237208149E+03 -0.38040688606E+02 -0.77707043136E+02  0.21732911684E+03  0.16467841931E+03 0.  0.
         24    2    5    5    0    0 -0.75478761960E+02  0.25897234847E+02 -0.24242108752E+01  0.11178874582E+03  0.78250473575E+02 0.  0.
          5    1    5    5  501    0 -0.36893319531E+02 -0.63937923453E+02 -0.75282832261E+02  0.10554037102E+03  0.47000000000E+01 0. -1.
        -11    1    6    6    0    0 -0.85402660665E+02  0.39452853388E+01  0.73096928638E+01  0.85805660273E+02  0.00000000000E+00 0.  1.
         12    1    6    6    0    0  0.99238987054E+01  0.21951949508E+02 -0.97339037390E+01  0.25983085550E+02  0.00000000000E+00 0. -1.
         -5    1    3    3    0  503  0.63836526784E+02 -0.28987843530E+02 -0.29021876351E+03  0.29860411571E+03  0.47000000000E+01 0.  1.
         13    1    4    4    0    0  0.24449507769E+02  0.46599586500E+02 -0.17706800246E+03  0.18472243336E+03  0.00000000000E+00 0. -1.
        -14    1    4    4    0    0  0.24086046937E+02  0.20428945636E+02 -0.33615220935E+01  0.31761286304E+02  0.00000000000E+00 0.  1.
<mgrwt>
<rscale>  2 0.20769571E+03</rscale>
<asrwt>0</asrwt>
<pdfrwt beam="1">  1       21 0.14158585E-01 0.20929803E+03</pdfrwt>
<pdfrwt beam="2">  1       21 0.98520950E-01 0.20929803E+03</pdfrwt>
<totfact> 0.36715105E+04</totfact>
</mgrwt>
</event>
<event>
12    1  0.1050690E-001  0.1887350E+03  0.7546771E-02  0.1159939E+00
         21   -1    0    0  501  502  0.00000000000E+00  0.00000000000E+00  0.61034011292E+02  0.61034011292E+02  0.00000000000E+00 0.  1.
         21   -1    0    0  502  503 -0.00000000000E+00 -0.00000000000E+00 -0.95937613044E+03  0.95937613044E+03  0.00000000000E+00 0.  1.
         -6    2    1    2    0  503 -0.17109261278E+02  0.72127840424E+02 -0.77141599668E+03  0.79416845216E+03  0.17356767642E+03 0.  0.
        -24    2    3    3    0    0 -0.15214073276E+02 -0.18311389358E+02 -0.21902734657E+03  0.23440228957E+03  0.80029243427E+02 0.  0.
          6    2    1    2  501    0  0.17109261278E+02 -0.72127840424E+02 -0.12692612247E+03  0.22624168957E+03  0.17198810816E+03 0.  0.
         24    2    5    5    0    0  0.66147903329E+02 -0.77204170403E+02 -0.61023497905E+02  0.14380502621E+03  0.81363316213E+02 0.  0.
          5    1    5    5  501    0 -0.49038642050E+02  0.50763299799E+01 -0.65902624566E+02  0.82436663354E+02  0.47000000000E+01 0. -1.
        -13    1    6    6    0    0 -0.17018388516E+02 -0.10254051210E+02 -0.23181463517E+02  0.30531154002E+02  0.00000000000E+00 0.  1.
         14    1    6    6    0    0  0.83166291844E+02 -0.66950119193E+02 -0.37842034388E+02  0.11327387221E+03  0.00000000000E+00 0. -1.
         -5    1    3    3    0  503 -0.18951880021E+01  0.90439229782E+02 -0.55238865010E+03  0.55976616259E+03  0.47000000000E+01 0.  1.
         11    1    4    4    0    0 -0.23715129824E+02 -0.10722696199E+02 -0.22126396660E+03  0.22278942190E+03  0.00000000000E+00 0. -1.
        -12    1    4    4    0    0  0.85010565478E+01 -0.75886931591E+01  0.22366200286E+01  0.11612867667E+02  0.00000000000E+00 0.  1.
<mgrwt>
<rscale>  2 0.18837102E+03</rscale>
<asrwt>0</asrwt>
<pdfrwt beam="1">  1       21 0.93898482E-02 0.18873497E+03</pdfrwt>
<pdfrwt beam="2">  1       21 0.14759632E+00 0.18873497E+03</pdfrwt>
<totfact> 0.28345221E+04</totfact>
</mgrwt>
</event>
<event>
12    1  0.1050690E-001  0.2266163E+03  0.7546771E-02  0.1129505E+00
         21   -1    0    0  501  502  0.00000000000E+00  0.00000000000E+00  0.11720871481E+03  0.11720871481E+03  0.00000000000E+00 0.  1.
         21   -1    0    0  502  503 -0.00000000000E+00 -0.00000000000E+00 -0.46470591215E+03  0.46470591215E+03  0.00000000000E+00 0. -1.
         -6    2    1    2    0  503 -0.33403523476E+02 -0.13897348469E+03 -0.98940041261E+02  0.24727325954E+03  0.17585649914E+03 0.  0.
        -24    2    3    3    0    0 -0.13859498136E+02 -0.73784396742E+02 -0.13300128720E+03  0.17102468847E+03  0.76966738128E+02 0.  0.
          6    2    1    2  501    0  0.33403523476E+02  0.13897348469E+03 -0.24855715608E+03  0.33464136742E+03  0.17255364418E+03 0.  0.
         24    2    5    5    0    0  0.28440957687E+02  0.18789118925E+02 -0.17080023560E+03  0.19133352564E+03  0.79207818343E+02 0.  0.
          5    1    5    5  501    0  0.49625657892E+01  0.12018436577E+03 -0.77756920482E+02  0.14330784179E+03  0.47000000000E+01 0. -1.
        -11    1    6    6    0    0  0.22495949427E+02 -0.24107455461E+02 -0.32054306131E+02  0.45986038001E+02  0.00000000000E+00 0.  1.
         12    1    6    6    0    0  0.59450082600E+01  0.42896574387E+02 -0.13874592947E+03  0.14534748764E+03  0.00000000000E+00 0. -1.
         -5    1    3    3    0  503 -0.19544025340E+02 -0.65189087952E+02  0.34061245944E+02  0.76248571067E+02  0.47000000000E+01 0.  1.
         11    1    4    4    0    0  0.19993309841E+02 -0.62975799664E+02 -0.57545033674E+02  0.87619145638E+02  0.00000000000E+00 0. -1.
        -12    1    4    4    0    0 -0.33852807978E+02 -0.10808597077E+02 -0.75456253530E+02  0.83405542835E+02  0.00000000000E+00 0.  1.
<mgrwt>
<rscale>  2 0.22597521E+03</rscale>
<asrwt>0</asrwt>
<pdfrwt beam="1">  1       21 0.18032110E-01 0.22661627E+03</pdfrwt>
<pdfrwt beam="2">  1       21 0.71493219E-01 0.22661627E+03</pdfrwt>
<totfact> 0.48691982E+04</totfact>
</mgrwt>
</event>
<event>
12    1  0.1050690E-001  0.1951726E+03  0.7546771E-02  0.1154816E+00
         21   -1    0    0  503  502  0.00000000000E+00  0.00000000000E+00  0.53988171200E+02  0.53988171200E+02  0.00000000000E+00 0. -1.
         21   -1    0    0  501  503 -0.00000000000E+00 -0.00000000000E+00 -0.72532014902E+03  0.72532014902E+03  0.00000000000E+00 0. -1.
          6    2    1    2  501    0  0.25622184047E+02 -0.85506125173E+02 -0.41782208244E+03  0.45937143674E+03  0.16875731261E+03 0.  0.
         24    2    3    3    0    0 -0.81164170719E+01 -0.86060260752E+02 -0.40649418535E+03  0.42346863011E+03  0.81338264386E+02 0.  0.
         -6    2    1    2    0  502 -0.25622184047E+02  0.85506125173E+02 -0.25350989538E+03  0.31993688348E+03  0.17356424919E+03 0.  0.
        -24    2    5    5    0    0 -0.18633076411E+02  0.19899435705E+02 -0.23665815885E+03  0.25167887038E+03  0.81191074425E+02 0.  0.
          5    1    3    3  501    0  0.33738601119E+02  0.55413557965E+00 -0.11327897092E+02  0.35902806635E+02  0.47000000000E+01 0. -1.
        -13    1    4    4    0    0 -0.17246715732E+02  0.56456663399E+01 -0.14658435441E+03  0.14770340453E+03  0.00000000000E+00 0.  1.
         14    1    4    4    0    0  0.91302986601E+01 -0.91705927092E+02 -0.25990983094E+03  0.27576522558E+03  0.00000000000E+00 0. -1.
         -5    1    5    5    0  502 -0.69891076368E+01  0.65606689467E+02 -0.16851736526E+02  0.68258013100E+02  0.47000000000E+01 0.  1.
         13    1    6    6    0    0 -0.22467774443E+02 -0.27774685108E+02 -0.12938819006E+03  0.13422942207E+03  0.00000000000E+00 0. -1.
        -14    1    6    6    0    0  0.38346980322E+01  0.47674120813E+02 -0.10726996879E+03  0.11744944831E+03  0.00000000000E+00 0.  1.
<mgrwt>
<rscale>  2 0.19409824E+03</rscale>
<asrwt>0</asrwt>
<pdfrwt beam="1">  1       21 0.83058729E-02 0.19517260E+03</pdfrwt>
<pdfrwt beam="2">  1       21 0.11158771E+00 0.19517260E+03</pdfrwt>
<totfact> 0.70823842E+04</totfact>
</mgrwt>
</event>
<event>
12    1  0.1050690E-001  0.1751773E+03  0.7546771E-02  0.1172755E+00
         21   -1    0    0  501  502  0.00000000000E+00  0.00000000000E+00  0.13483686777E+03  0.13483686777E+03  0.00000000000E+00 0. -1.
         21   -1    0    0  502  503 -0.00000000000E+00 -0.00000000000E+00 -0.22655478153E+03  0.22655478153E+03  0.00000000000E+00 0. -1.
         -6    2    1    2    0  503 -0.27120706188E+01  0.22718332895E+02 -0.44630915871E+02  0.17999634595E+03  0.17286783370E+03 0.  0.
        -24    2    3    3    0    0  0.98534731883E+01  0.73443747667E+02 -0.58860887785E+02  0.12563144279E+03  0.82629173423E+02 0.  0.
          6    2    1    2  501    0  0.27120706188E+01 -0.22718332895E+02 -0.47086997891E+02  0.18139530335E+03  0.17367669023E+03 0.  0.
         24    2    5    5    0    0 -0.33536959112E+02  0.18171100815E+02 -0.77796168807E+02  0.11853767752E+03  0.80895120869E+02 0.  0.
          5    1    5    5  501    0  0.36249029731E+02 -0.40889433710E+02  0.30709170916E+02  0.62857625821E+02  0.47000000000E+01 0. -1.
        -13    1    6    6    0    0 -0.48670528561E+02  0.20746640092E+02 -0.16608145804E+02  0.55453349155E+02  0.00000000000E+00 0.  1.
         14    1    6    6    0    0  0.15133569448E+02 -0.25755392767E+01 -0.61188023003E+02  0.63084328370E+02  0.00000000000E+00 0. -1.
         -5    1    3    3    0  503 -0.12565543807E+02 -0.50725414773E+02  0.14229971915E+02  0.54364903161E+02  0.47000000000E+01 0.  1.
         13    1    4    4    0    0 -0.24276343962E+02  0.26815886209E+02 -0.57378122885E+02  0.67828324578E+02  0.00000000000E+00 0. -1.
        -14    1    4    4    0    0  0.34129817150E+02  0.46627861458E+02 -0.14827649006E+01  0.57803118208E+02  0.00000000000E+00 0.  1.
<mgrwt>
<rscale>  2 0.17497644E+03</rscale>
<asrwt>0</asrwt>
<pdfrwt beam="1">  1       21 0.20744134E-01 0.17517726E+03</pdfrwt>
<pdfrwt beam="2">  1       21 0.34854581E-01 0.17517726E+03</pdfrwt>
<totfact> 0.17197162E+05</totfact>
</mgrwt>
</event>
<event>
12    1  0.1050690E-001  0.2690988E+03  0.7546771E-02  0.1101904E+00
         21   -1    0    0  501  502  0.00000000000E+00  0.00000000000E+00  0.82609159308E+03  0.82609159308E+03  0.00000000000E+00 0. -1.
         21   -1    0    0  502  503 -0.00000000000E+00 -0.00000000000E+00 -0.89391653948E+02  0.89391653948E+02  0.00000000000E+00 0.  1.
         -6    2    1    2    0  503  0.16786098967E+03  0.11786596283E+03  0.30080452161E+03  0.40360566867E+03  0.17419666618E+03 0.  0.
        -24    2    3    3    0    0  0.53449908746E+02 -0.58050483544E+01  0.73527670755E+02  0.12065466340E+03  0.79124194164E+02 0.  0.
          6    2    1    2  501    0 -0.16786098967E+03 -0.11786596283E+03  0.43589541752E+03  0.51187757836E+03  0.17304376085E+03 0.  0.
         24    2    5    5    0    0 -0.14662107872E+03 -0.95081419309E+02  0.21298165132E+03  0.28674893425E+03  0.79533329296E+02 0.  0.
          5    1    5    5  501    0 -0.21239910947E+02 -0.22784543518E+02  0.22291376619E+03  0.22512864411E+03  0.47000000000E+01 0. -1.
        -13    1    6    6    0    0 -0.46478466958E+02 -0.72663955004E+02  0.71909201036E+02  0.11229973927E+03  0.00000000000E+00 0.  1.
         14    1    6    6    0    0 -0.10014261177E+03 -0.22417464305E+02  0.14107245029E+03  0.17444919497E+03  0.00000000000E+00 0. -1.
         -5    1    3    3    0  503  0.11441108093E+03  0.12367101118E+03  0.22727685086E+03  0.28295100527E+03  0.47000000000E+01 0.  1.
         13    1    4    4    0    0 -0.67394619351E+01 -0.10451861697E+02  0.56610771602E+02  0.57960686861E+02  0.00000000000E+00 0. -1.
        -14    1    4    4    0    0  0.60189370681E+02  0.46468133427E+01  0.16916899154E+02  0.62693976538E+02  0.00000000000E+00 0.  1.
<mgrwt>
<rscale>  2 0.26891241E+03</rscale>
<asrwt>0</asrwt>
<pdfrwt beam="1">  1       21 0.12709101E+00 0.26909882E+03</pdfrwt>
<pdfrwt beam="2">  1       21 0.13752563E-01 0.26909882E+03</pdfrwt>
<totfact> 0.20129425E+04</totfact>
</mgrwt>
</event>
<event>
11    1  0.1050690E-001  0.1979358E+03  0.7546771E-02  0.1151514E+00
         21   -1    0    0  501  502  0.00000000000E+00  0.00000000000E+00  0.14910058863E+04  0.14910058863E+04  0.00000000000E+00 0.  1.
         21   -1    0    0  502  503 -0.00000000000E+00 -0.00000000000E+00 -0.40522102412E+02  0.40522102412E+02  0.00000000000E+00 0.  1.
         -6    2    1    2    0  503 -0.59584304187E+02  0.74159506028E+02  0.27086930725E+03  0.33542227480E+03  0.17345892649E+03 0.  0.
          6    2    1    2  501    0  0.59584304187E+02 -0.74159506028E+02  0.11796144766E+04  0.11961057139E+04  0.17357604594E+03 0.  0.
         24    2    4    4    0    0 -0.41461696266E+01 -0.10055265469E+03  0.78689953763E+03  0.79735104634E+03  0.80185919560E+02 0.  0.
          5    1    4    4  501    0  0.63730473814E+02  0.26393148660E+02  0.39271493900E+03  0.39875466757E+03  0.47000000000E+01 0. -1.
        -13    1    5    5    0    0 -0.29057227010E+02 -0.60113947594E+02  0.62704539669E+03  0.63059015109E+03  0.00000000000E+00 0.  1.
         14    1    5    5    0    0  0.24911057384E+02 -0.40438707094E+02  0.15985414094E+03  0.16676089526E+03  0.00000000000E+00 0. -1.
         -5    1    3    3    0  503 -0.74351679998E+02  0.12013721699E+03  0.16779088734E+03  0.21940144735E+03  0.47000000000E+01 0.  1.
         11    1    3    3    0    0  0.52584575297E+01 -0.34199298135E+02  0.49849587983E+02  0.60681338076E+02  0.00000000000E+00 0. -1.
        -12    1    3    3    0    0  0.95089182815E+01 -0.11778412828E+02  0.53228831927E+02  0.55339489372E+02  0.00000000000E+00 0.  1.
<mgrwt>
<rscale>  2 0.19791008E+03</rscale>
<asrwt>0</asrwt>
<pdfrwt beam="1">  1       21 0.22938548E+00 0.19793576E+03</pdfrwt>
<pdfrwt beam="2">  1       21 0.62341707E-02 0.19793576E+03</pdfrwt>
<totfact> 0.16214935E+04</totfact>
</mgrwt>
</event>
<event>
12    1  0.1050690E-001  0.1874999E+03  0.7546771E-02  0.1161240E+00
         21   -1    0    0  501  502  0.00000000000E+00  0.00000000000E+00  0.16449187637E+03  0.16449187637E+03  0.00000000000E+00 0.  1.
         21   -1    0    0  502  503 -0.00000000000E+00 -0.00000000000E+00 -0.45795442672E+03  0.45795442672E+03  0.00000000000E+00 0.  1.
         -6    2    1    2    0  503 -0.29237349879E+02 -0.57771929407E+02 -0.37555597866E+03  0.41976005939E+03  0.17596532584E+03 0.  0.
        -24    2    3    3    0    0 -0.30971497037E+02 -0.23512067838E+02 -0.73044959941E+02  0.11527401402E+03  0.80252608506E+02 0.  0.
          6    2    1    2  501    0  0.29237349879E+02  0.57771929407E+02  0.82093428306E+02  0.20268624370E+03  0.17363744976E+03 0.  0.
         24    2    5    5    0    0  0.56606499689E+02  0.16930316777E+02  0.10721348114E+03  0.14727672522E+03  0.81882671056E+02 0.  0.
          5    1    5    5  501    0 -0.27369149809E+02  0.40841612631E+02 -0.25120052837E+02  0.55409518479E+02  0.47000000000E+01 0. -1.
        -11    1    6    6    0    0  0.53845727523E+02  0.40902881389E+02  0.46836579763E+02  0.82256144344E+02  0.00000000000E+00 0.  1.
         12    1    6    6    0    0  0.27607721653E+01 -0.23972564612E+02  0.60376901381E+02  0.65020580875E+02  0.00000000000E+00 0. -1.
         -5    1    3    3    0  503  0.17341471580E+01 -0.34259861569E+02 -0.30251101872E+03  0.30448604538E+03  0.47000000000E+01 0.  1.
         11    1    4    4    0    0 -0.30064997320E+01  0.16838607335E+02  0.92514180604E+01  0.19446502867E+02  0.00000000000E+00 0. -1.
        -12    1    4    4    0    0 -0.27964997305E+02 -0.40350675173E+02 -0.82296378001E+02  0.95827511151E+02  0.00000000000E+00 0.  1.
<mgrwt>
<rscale>  2 0.18695177E+03</rscale>
<asrwt>0</asrwt>
<pdfrwt beam="1">  1       21 0.25306442E-01 0.18749990E+03</pdfrwt>
<pdfrwt beam="2">  1       21 0.70454527E-01 0.18749990E+03</pdfrwt>
<totfact> 0.27108835E+04</totfact>
</mgrwt>
</event>
<event>
12    1  0.1050690E-001  0.2857121E+03  0.7546771E-02  0.1092771E+00
         21   -1    0    0  501  502  0.00000000000E+00  0.00000000000E+00  0.67145498448E+03  0.67145498448E+03  0.00000000000E+00 0.  1.
         21   -1    0    0  502  503 -0.00000000000E+00 -0.00000000000E+00 -0.14288322437E+03  0.14288322437E+03  0.00000000000E+00 0. -1.
         -6    2    1    2    0  503  0.16731592397E+03  0.15360865390E+03  0.10467915140E+03  0.30314708234E+03  0.17131897684E+03 0.  0.
        -24    2    3    3    0    0  0.19030578840E+03  0.13074806118E+03  0.66093902554E+02  0.25253036578E+03  0.78050195938E+02 0.  0.
          6    2    1    2  501    0 -0.16731592397E+03 -0.15360865390E+03  0.42389260871E+03  0.51119112652E+03  0.17332393702E+03 0.  0.
         24    2    5    5    0    0 -0.62660070140E+02 -0.14186650635E+03  0.19818631575E+03  0.26208041528E+03  0.73184276394E+02 0.  0.
          5    1    5    5  501    0 -0.10465585383E+03 -0.11742147554E+02  0.22570629296E+03  0.24911071124E+03  0.47000000000E+01 0. -1.
        -13    1    6    6    0    0 -0.59931473478E+01 -0.86796952986E+02  0.13634947261E+03  0.16174302935E+03  0.00000000000E+00 0.  1.
         14    1    6    6    0    0 -0.56666922792E+02 -0.55069553360E+02  0.61836843141E+02  0.10033738593E+03  0.00000000000E+00 0. -1.
         -5    1    3    3    0  503 -0.22989864435E+02  0.22860592718E+02  0.38585248843E+02  0.50616716551E+02  0.47000000000E+01 0.  1.
         13    1    4    4    0    0  0.98016668852E+02  0.52423159981E+02  0.70108847084E+02  0.13141805627E+03  0.00000000000E+00 0. -1.
        -14    1    4    4    0    0  0.92289119551E+02  0.78324901200E+02 -0.40149445296E+01  0.12111230951E+03  0.00000000000E+00 0.  1.
<mgrwt>
<rscale>  2 0.28540870E+03</rscale>
<asrwt>0</asrwt>
<pdfrwt beam="1">  1       21 0.10330077E+00 0.28571214E+03</pdfrwt>
<pdfrwt beam="2">  1       21 0.21982035E-01 0.28571214E+03</pdfrwt>
<totfact> 0.13939839E+04</totfact>
</mgrwt>
</event>
<event>
12    1  0.1050690E-001  0.3156836E+03  0.7546771E-02  0.1077969E+00
         21   -1    0    0  501  502  0.00000000000E+00  0.00000000000E+00  0.81735101696E+03  0.81735101696E+03  0.00000000000E+00 0. -1.
         21   -1    0    0  502  503 -0.00000000000E+00 -0.00000000000E+00 -0.22421630087E+03  0.22421630087E+03  0.00000000000E+00 0.  1.
         -6    2    1    2    0  503 -0.24321486151E+03  0.10003670792E+03 -0.57647370337E+02  0.31826001401E+03  0.16972155261E+03 0.  0.
        -24    2    3    3    0    0 -0.68428495165E+02  0.77176098337E+02  0.43217908812E+01  0.13135054857E+03  0.81213789642E+02 0.  0.
          6    2    1    2  501    0  0.24321486151E+03 -0.10003670792E+03  0.65078208643E+03  0.72330730382E+03  0.17462909252E+03 0.  0.
         24    2    5    5    0    0  0.65500736380E+02 -0.66326993490E+01  0.31836883098E+03  0.33494242193E+03  0.80581476174E+02 0.  0.
          5    1    5    5  501    0  0.17771412513E+03 -0.93404008569E+02  0.33241325545E+03  0.38836488189E+03  0.47000000000E+01 0. -1.
        -13    1    6    6    0    0  0.24772896887E+02 -0.19682201417E+02  0.30611752124E+02  0.44024593591E+02  0.00000000000E+00 0.  1.
         14    1    6    6    0    0  0.40727839493E+02  0.13049502068E+02  0.28775707886E+03  0.29091782834E+03  0.00000000000E+00 0. -1.
         -5    1    3    3    0  503 -0.17478636634E+03  0.22860609581E+02 -0.61969161218E+02  0.18690946544E+03  0.47000000000E+01 0.  1.
         11    1    4    4    0    0 -0.17670990632E+02  0.77689307439E+02 -0.46259824418E+01  0.79807844939E+02  0.00000000000E+00 0. -1.
        -12    1    4    4    0    0 -0.50757504533E+02 -0.51320910276E+00  0.89477733230E+01  0.51542703630E+02  0.00000000000E+00 0.  1.
<mgrwt>
<rscale>  2 0.31500943E+03</rscale>
<asrwt>0</asrwt>
<pdfrwt beam="1">  1       21 0.12574631E+00 0.31568359E+03</pdfrwt>
<pdfrwt beam="2">  1       21 0.34494816E-01 0.31568359E+03</pdfrwt>
<totfact> 0.35035391E+03</totfact>
</mgrwt>
</event>
<event>
12    1  0.1050690E-001  0.1741490E+03  0.7546771E-02  0.1173893E+00
         21   -1    0    0  503  502  0.00000000000E+00  0.00000000000E+00  0.53148774358E+02  0.53148774358E+02  0.00000000000E+00 0.  1.
         21   -1    0    0  501  503 -0.00000000000E+00 -0.00000000000E+00 -0.93452965094E+03  0.93452965094E+03  0.00000000000E+00 0.  1.
          6    2    1    2  501    0  0.85348458880E+01  0.27063974416E+01 -0.13179317622E+03  0.21839715621E+03  0.17391868318E+03 0.  0.
         24    2    3    3    0    0  0.71402440527E+02  0.16028922648E+02 -0.72445378492E+02  0.13079535698E+03  0.80646498171E+02 0.  0.
         -6    2    1    2    0  502 -0.85348458880E+01 -0.27063974416E+01 -0.74958770036E+03  0.76928126909E+03  0.17271879532E+03 0.  0.
        -24    2    5    5    0    0  0.80685567472E+01  0.10059429598E+02 -0.74264142513E+03  0.74672068269E+03  0.76871307417E+02 0.  0.
          5    1    3    3  501    0 -0.62867594639E+02 -0.13322525207E+02 -0.59347797731E+02  0.87601799235E+02  0.47000000000E+01 0. -1.
        -13    1    4    4    0    0 -0.89638820648E+01 -0.93430396084E+01  0.72205016268E+01  0.14824952430E+02  0.00000000000E+00 0.  1.
         14    1    4    4    0    0  0.80366322592E+02  0.25371962257E+02 -0.79665880118E+02  0.11597040455E+03  0.00000000000E+00 0. -1.
         -5    1    5    5    0  502 -0.16603402635E+02 -0.12765827039E+02 -0.69462752282E+01  0.22560586398E+02  0.47000000000E+01 0.  1.
         11    1    6    6    0    0 -0.48207148945E+01  0.15458627807E+01 -0.13112198886E+01  0.52295584352E+01  0.00000000000E+00 0. -1.
        -12    1    6    6    0    0  0.12889271642E+02  0.85135668173E+01 -0.74133020524E+03  0.74149112426E+03  0.00000000000E+00 0.  1.
<mgrwt>
<rscale>  2 0.17384866E+03</rscale>
<asrwt>0</asrwt>
<pdfrwt beam="1">  1       21 0.81767344E-02 0.17414901E+03</pdfrwt>
<pdfrwt beam="2">  1       21 0.14377379E+00 0.17414901E+03</pdfrwt>
<totfact> 0.39005005E+04</totfact>
</mgrwt>
</event>
<event>
12    1  0.1050690E-001  0.2291239E+03  0.7546771E-02  0.1127321E+00
         21   -1    0    0  503  502  0.00000000000E+00  0.00000000000E+00  0.13080762963E+03  0.13080762963E+03  0.00000000000E+00 0. -1.
         21   -1    0    0  501  503 -0.00000000000E+00 -0.00000000000E+00 -0.63324526148E+03  0.63324526148E+03  0.00000000000E+00 0. -1.
          6    2    1    2  501    0  0.87068645682E+02  0.12181785681E+03 -0.48284049798E+03  0.53444615859E+03  0.17342782548E+03 0.  0.
         24    2    3    3    0    0  0.29281984956E+02  0.85939568574E+02 -0.43343146565E+03  0.45024466098E+03  0.81328809385E+02 0.  0.
         -6    2    1    2    0  502 -0.87068645682E+02 -0.12181785681E+03 -0.19597133878E+02  0.22960673252E+03  0.17295856343E+03 0.  0.
        -24    2    5    5    0    0 -0.12249242277E+03 -0.96217884309E+02 -0.41336816494E+02  0.18056688774E+03  0.81445648471E+02 0.  0.
          5    1    3    3  501    0  0.57786660725E+02  0.35878288235E+02 -0.49409032324E+02  0.84201497610E+02  0.47000000000E+01 0. -1.
        -11    1    4    4    0    0  0.13353251199E+02  0.37215162613E+02 -0.35068067178E+03  0.35290255199E+03  0.00000000000E+00 0.  1.
         12    1    4    4    0    0  0.15928733757E+02  0.48724405961E+02 -0.82750793877E+02  0.97342108990E+02  0.00000000000E+00 0. -1.
         -5    1    5    5    0  502  0.35423777089E+02 -0.25599972501E+02  0.21739682616E+02  0.49039844774E+02  0.47000000000E+01 0.  1.
         11    1    6    6    0    0 -0.57557796415E+02 -0.31347220315E+01 -0.33801376821E+02  0.66822597116E+02  0.00000000000E+00 0. -1.
        -12    1    6    6    0    0 -0.64934626355E+02 -0.93083162277E+02 -0.75354396728E+01  0.11374429063E+03  0.00000000000E+00 0.  1.
<mgrwt>
<rscale>  2 0.22903508E+03</rscale>
<asrwt>0</asrwt>
<pdfrwt beam="1">  1       21 0.20124251E-01 0.22912387E+03</pdfrwt>
<pdfrwt beam="2">  1       21 0.97422348E-01 0.22912387E+03</pdfrwt>
<totfact> 0.19498071E+04</totfact>
</mgrwt>
</event>
<event>
12    1  0.1050690E-001  0.1836973E+03  0.7546771E-02  0.1164782E+00
         21   -1    0    0  503  502  0.00000000000E+00  0.00000000000E+00  0.11436345782E+04  0.11436345782E+04  0.00000000000E+00 0. -1.
         21   -1    0    0  501  503 -0.00000000000E+00 -0.00000000000E+00 -0.43768458184E+02  0.43768458184E+02  0.00000000000E+00 0. -1.
          6    2    1    2  501    0 -0.54551236914E+02  0.31170938874E+02  0.20912219643E+03  0.27834655396E+03  0.17261878861E+03 0.  0.
         24    2    3    3    0    0 -0.10002007909E+03  0.63260681924E+01  0.17376255392E+03  0.21544124793E+03  0.78596888018E+02 0.  0.
         -6    2    1    2    0  502  0.54551236914E+02 -0.31170938874E+02  0.89074392361E+03  0.90905648245E+03  0.17032758423E+03 0.  0.
        -24    2    5    5    0    0  0.48987113436E+02 -0.51138727198E+02  0.87733445080E+03  0.88392530655E+03  0.81199152168E+02 0.  0.
          5    1    3    3  501    0  0.45468842175E+02  0.24844870682E+02  0.35359642504E+02  0.62905306024E+02  0.47000000000E+01 0. -1.
        -13    1    4    4    0    0 -0.34219623134E+02 -0.35235488297E+02  0.75868294462E+02  0.90379866937E+02  0.00000000000E+00 0.  1.
         14    1    4    4    0    0 -0.65800455955E+02  0.41561556489E+02  0.97894259460E+02  0.12506138100E+03  0.00000000000E+00 0. -1.
         -5    1    5    5    0  502  0.55641234785E+01  0.19967788324E+02  0.13409472818E+02  0.25131175895E+02  0.47000000000E+01 0.  1.
         11    1    6    6    0    0  0.37881773845E+02 -0.39612714434E+02  0.85324327841E+03  0.85500192286E+03  0.00000000000E+00 0. -1.
        -12    1    6    6    0    0  0.11105339591E+02 -0.11526012763E+02  0.24091172381E+02  0.28923383695E+02  0.00000000000E+00 0.  1.
<mgrwt>
<rscale>  2 0.18315712E+03</rscale>
<asrwt>0</asrwt>
<pdfrwt beam="1">  1       21 0.17594376E+00 0.18369734E+03</pdfrwt>
<pdfrwt beam="2">  1       21 0.67336098E-02 0.18369734E+03</pdfrwt>
<totfact> 0.31561580E+04</totfact>
</mgrwt>
</event>
<event>
12    1  0.1050690E-001  0.1979568E+03  0.7546771E-02  0.1151670E+00
         21   -1    0    0  503  502  0.00000000000E+00  0.00000000000E+00  0.60201006507E+02  0.60201006507E+02  0.00000000000E+00 0.  1.
         21   -1    0    0  501  503 -0.00000000000E+00 -0.00000000000E+00 -0.68580166110E+03  0.68580166110E+03  0.00000000000E+00 0.  1.
          6    2    1    2  501    0  0.45258479064E+02 -0.82473966425E+02 -0.22446320486E+03  0.29867935033E+03  0.17313387569E+03 0.  0.
         24    2    3    3    0    0  0.33893472635E+02 -0.41463714017E+02 -0.23542002083E+03  0.25448493903E+03  0.80448684977E+02 0.  0.
         -6    2    1    2    0  502 -0.45258479064E+02  0.82473966425E+02 -0.40113744973E+03  0.44732331728E+03  0.17417408400E+03 0.  0.
        -24    2    5    5    0    0 -0.24863444360E+02  0.23415379385E+02 -0.36456120798E+03  0.37477136620E+03  0.79888870963E+02 0.  0.
          5    1    3    3  501    0  0.11365006429E+02 -0.41010252408E+02  0.10956815978E+02  0.44194411299E+02  0.47000000000E+01 0. -1.
        -11    1    4    4    0    0  0.48071660709E+02 -0.18274427934E+02 -0.70078792201E+02  0.86924544267E+02  0.00000000000E+00 0.  1.
         12    1    4    4    0    0 -0.14178188075E+02 -0.23189286084E+02 -0.16534122863E+03  0.16756039476E+03  0.00000000000E+00 0. -1.
         -5    1    5    5    0  502 -0.20395034704E+02  0.59058587040E+02 -0.36576241750E+02  0.72551951072E+02  0.47000000000E+01 0.  1.
         11    1    6    6    0    0  0.84396426471E+01  0.40671359201E+02 -0.26766424322E+03  0.27086811205E+03  0.00000000000E+00 0. -1.
        -12    1    6    6    0    0 -0.33303087007E+02 -0.17255979816E+02 -0.96896964765E+02  0.10390325416E+03  0.00000000000E+00 0.  1.
<mgrwt>
<rscale>  2 0.19772775E+03</rscale>
<asrwt>0</asrwt>
<pdfrwt beam="1">  1       21 0.92616943E-02 0.19795680E+03</pdfrwt>
<pdfrwt beam="2">  1       21 0.10550794E+00 0.19795680E+03</pdfrwt>
<totfact> 0.66910999E+04</totfact>
</mgrwt>
</event>
<event>
12    1  0.1050690E-001  0.2879757E+03  0.7546771E-02  0.1091736E+00
         21   -1    0    0  501  502  0.00000000000E+00  0.00000000000E+00  0.11756882352E+04  0.11756882352E+04  0.00000000000E+00 0. -1.
         21   -1    0    0  502  503 -0.00000000000E+00 -0.00000000000E+00 -0.15235914565E+03  0.15235914565E+03  0.00000000000E+00 0.  1.
         -6    2    1    2    0  503 -0.21000430686E+03 -0.89364410312E+02  0.22262579202E+02  0.28638325909E+03  0.17155740125E+03 0.  0.
        -24    2    3    3    0    0 -0.19889021641E+03 -0.11654515943E+03 -0.69860124138E+01  0.24467131547E+03  0.81701627112E+02 0.  0.
          6    2    1    2  501    0  0.21000430686E+03  0.89364410312E+02  0.10010665104E+04  0.10416641218E+04  0.17561941150E+03 0.  0.
         24    2    5    5    0    0  0.21285027678E+02  0.47087141458E+02  0.31420482983E+03  0.32807923406E+03  0.79000363527E+02 0.  0.
          5    1    5    5  501    0  0.18871927918E+03  0.42277268854E+02  0.68686168053E+03  0.71358488771E+03  0.47000000000E+01 0. -1.
        -13    1    6    6    0    0 -0.27535010073E+01 -0.15488710071E+02  0.16021142182E+02  0.22453483121E+02  0.00000000000E+00 0.  1.
         14    1    6    6    0    0  0.24038528685E+02  0.62575851529E+02  0.29818368765E+03  0.30562575093E+03  0.00000000000E+00 0. -1.
         -5    1    3    3    0  503 -0.11114090452E+02  0.27180749122E+02  0.29248591616E+02  0.41711943624E+02  0.47000000000E+01 0.  1.
         11    1    4    4    0    0 -0.17770706557E+02 -0.31547269862E+02  0.22214209461E+02  0.42479399116E+02  0.00000000000E+00 0. -1.
        -12    1    4    4    0    0 -0.18111950985E+03 -0.84997889571E+02 -0.29200221874E+02  0.20219191635E+03  0.00000000000E+00 0.  1.
<mgrwt>
<rscale>  2 0.28735893E+03</rscale>
<asrwt>0</asrwt>
<pdfrwt beam="1">  1       21 0.18087511E+00 0.28797567E+03</pdfrwt>
<pdfrwt beam="2">  1       21 0.23439869E-01 0.28797567E+03</pdfrwt>
<totfact> 0.28496284E+03</totfact>
</mgrwt>
</event>
<event>
12    1  0.1050690E-001  0.1882538E+03  0.7546771E-02  0.1160561E+00
         21   -1    0    0  503  502  0.00000000000E+00  0.00000000000E+00  0.49824738186E+03  0.49824738186E+03  0.00000000000E+00 0. -1.
         21   -1    0    0  501  503 -0.00000000000E+00 -0.00000000000E+00 -0.70603446474E+02  0.70603446474E+02  0.00000000000E+00 0. -1.
          6    2    1    2  501    0 -0.11105808806E+01  0.71285477610E+02  0.23422530153E+03  0.30050122342E+03  0.17423157203E+03 0.  0.
         24    2    3    3    0    0  0.16743743466E+02  0.86607368628E+02  0.24635249606E+03  0.27361821597E+03  0.79976162406E+02 0.  0.
         -6    2    1    2    0  502  0.11105808806E+01 -0.71285477610E+02  0.19341863386E+03  0.26834960491E+03  0.17180771178E+03 0.  0.
        -24    2    5    5    0    0  0.37086778329E+02 -0.10621712748E+03  0.14084259969E+03  0.19554276242E+03  0.75781440673E+02 0.  0.
          5    1    3    3  501    0 -0.17854324346E+02 -0.15321891018E+02 -0.12127194527E+02  0.26883007446E+02  0.47000000000E+01 0. -1.
        -11    1    4    4    0    0 -0.83853877489E+01  0.18743425876E+02  0.15837905655E+03  0.15970459071E+03  0.00000000000E+00 0.  1.
         12    1    4    4    0    0  0.25129131214E+02  0.67863942752E+02  0.87973439509E+02  0.11391362526E+03  0.00000000000E+00 0. -1.
         -5    1    5    5    0  502 -0.35976197448E+02  0.34931649870E+02  0.52576034168E+02  0.72806842496E+02  0.47000000000E+01 0.  1.
         13    1    6    6    0    0  0.34664577038E+01 -0.77366049800E+02  0.12767194758E+03  0.14932397058E+03  0.00000000000E+00 0. -1.
        -14    1    6    6    0    0  0.33620320625E+02 -0.28851077680E+02  0.13170652109E+02  0.46218791840E+02  0.00000000000E+00 0.  1.
<mgrwt>
<rscale>  2 0.18769102E+03</rscale>
<asrwt>0</asrwt>
<pdfrwt beam="1">  1       21 0.76653441E-01 0.18825380E+03</pdfrwt>
<pdfrwt beam="2">  1       21 0.10862069E-01 0.18825380E+03</pdfrwt>
<totfact> 0.10630780E+05</totfact>
</mgrwt>
</event>
<event>
12    1  0.1050690E-001  0.2417742E+03  0.7546771E-02  0.1120071E+00
         21   -1    0    0  501  502  0.00000000000E+00  0.00000000000E+00  0.28210403113E+03  0.28210403113E+03  0.00000000000E+00 0.  1.
         21   -1    0    0  502  503 -0.00000000000E+00 -0.00000000000E+00 -0.23981392475E+03  0.23981392475E+03  0.00000000000E+00 0. -1.
         -6    2    1    2    0  503 -0.12113942221E+03 -0.98615047988E+02  0.12796226454E+03  0.27354906819E+03  0.18454014268E+03 0.  0.
        -24    2    3    3    0    0 -0.12693402331E+03 -0.56846458200E+02  0.15536929075E+03  0.22303741033E+03  0.79134719392E+02 0.  0.
          6    2    1    2  501    0  0.12113942221E+03  0.98615047988E+02 -0.85672158165E+02  0.24836888768E+03  0.17305403312E+03 0.  0.
         24    2    5    5    0    0  0.43280143558E+02  0.56791099369E+02 -0.11306152469E+03  0.15572129004E+03  0.79798571491E+02 0.  0.
          5    1    5    5  501    0  0.77859278651E+02  0.41823948619E+02  0.27389366524E+02  0.92647597641E+02  0.47000000000E+01 0. -1.
        -13    1    6    6    0    0  0.48415015353E+02  0.74222813956E+02 -0.89301475737E+02  0.12580855850E+03  0.00000000000E+00 0.  1.
         14    1    6    6    0    0 -0.51348717951E+01 -0.17431714587E+02 -0.23760048952E+02  0.29912731537E+02  0.00000000000E+00 0. -1.
         -5    1    3    3    0  503  0.57946011034E+01 -0.41768589787E+02 -0.27407026208E+02  0.50511657866E+02  0.47000000000E+01 0.  1.
         13    1    4    4    0    0 -0.10383590608E+03 -0.62122537976E+01  0.94152963800E+02  0.14030419837E+03  0.00000000000E+00 0. -1.
        -14    1    4    4    0    0 -0.23098117234E+02 -0.50634204403E+02  0.61216326952E+02  0.82733211957E+02  0.00000000000E+00 0.  1.
<mgrwt>
<rscale>  2 0.23958232E+03</rscale>
<asrwt>0</asrwt>
<pdfrwt beam="1">  1       21 0.43400620E-01 0.24177417E+03</pdfrwt>
<pdfrwt beam="2">  1       21 0.36894450E-01 0.24177417E+03</pdfrwt>
<totfact> 0.35296830E+04</totfact>
</mgrwt>
</event>
<event>
12    1  0.1050690E-001  0.1803742E+03  0.7546771E-02  0.1167476E+00
         21   -1    0    0  501  502  0.00000000000E+00  0.00000000000E+00  0.14193354441E+03  0.14193354441E+03  0.00000000000E+00 0.  1.
         21   -1    0    0  502  503 -0.00000000000E+00 -0.00000000000E+00 -0.37733553925E+03  0.37733553925E+03  0.00000000000E+00 0.  1.
         -6    2    1    2    0  503 -0.24016796349E+02 -0.45301517642E+02 -0.28043694386E+03  0.33335780651E+03  0.17278169367E+03 0.  0.
        -24    2    3    3    0    0  0.89131474406E-01  0.33120483337E+02 -0.97101876263E+02  0.13244752055E+03  0.83765129761E+02 0.  0.
          6    2    1    2  501    0  0.24016796349E+02  0.45301517642E+02  0.45034949025E+02  0.18591127716E+03  0.17293299955E+03 0.  0.
         24    2    5    5    0    0 -0.48828861167E+02  0.30350944718E+02 -0.63219446362E+00  0.98517985403E+02  0.79999726561E+02 0.  0.
          5    1    5    5  501    0  0.72845657516E+02  0.14950572924E+02  0.45667143488E+02  0.87393291757E+02  0.47000000000E+01 0. -1.
        -13    1    6    6    0    0 -0.31666588096E+02  0.49198218150E+02  0.23842564433E+02  0.63179944203E+02  0.00000000000E+00 0.  1.
         14    1    6    6    0    0 -0.17162273070E+02 -0.18847273432E+02 -0.24474758897E+02  0.35338041199E+02  0.00000000000E+00 0. -1.
         -5    1    3    3    0  503 -0.24105927824E+02 -0.78422000979E+02 -0.18333506760E+03  0.20091028596E+03  0.47000000000E+01 0.  1.
         11    1    4    4    0    0 -0.10060769224E+02 -0.18278635294E+02  0.13659541305E+01  0.20909170626E+02  0.00000000000E+00 0. -1.
        -12    1    4    4    0    0  0.10149900699E+02  0.51399118631E+02 -0.98467830394E+02  0.11153834992E+03  0.00000000000E+00 0.  1.
<mgrwt>
<rscale>  2 0.18033794E+03</rscale>
<asrwt>0</asrwt>
<pdfrwt beam="1">  1       21 0.21835930E-01 0.18037421E+03</pdfrwt>
<pdfrwt beam="2">  1       21 0.58051620E-01 0.18037421E+03</pdfrwt>
<totfact> 0.54753867E+04</totfact>
</mgrwt>
</event>
<event>
12    1  0.1050690E-001  0.2178295E+03  0.7546771E-02  0.1137466E+00
         21   -1    0    0  503  502  0.00000000000E+00  0.00000000000E+00  0.25947526712E+02  0.25947526712E+02  0.00000000000E+00 0. -1.
         21   -1    0    0  501  503 -0.00000000000E+00 -0.00000000000E+00 -0.19551562176E+04  0.19551562176E+04  0.00000000000E+00 0. -1.
          6    2    1    2  501    0 -0.48336201745E+02  0.10178617817E+03 -0.66029866140E+03  0.69530139750E+03  0.18642128807E+03 0.  0.
         24    2    3    3    0    0 -0.17629162985E+02 -0.16615653950E+02 -0.38543446033E+03  0.39441215690E+03  0.80089693173E+02 0.  0.
         -6    2    1    2    0  502  0.48336201745E+02 -0.10178617817E+03 -0.12689100295E+04  0.12858023468E+04  0.17452277124E+03 0.  0.
        -24    2    5    5    0    0  0.51755895833E+02  0.81061557555E+01 -0.68176077511E+03  0.68842946806E+03  0.79956209856E+02 0.  0.
          5    1    3    3  501    0 -0.30707038760E+02  0.11840183212E+03 -0.27486420107E+03  0.30088924060E+03  0.47000000000E+01 0. -1.
        -13    1    4    4    0    0  0.16528088893E+02  0.94458237473E+01 -0.27877895161E+03  0.27942817533E+03  0.00000000000E+00 0.  1.
         14    1    4    4    0    0 -0.34157251878E+02 -0.26061477697E+02 -0.10665550872E+03  0.11498398157E+03  0.00000000000E+00 0. -1.
         -5    1    5    5    0  502 -0.34196940883E+01 -0.10989233393E+03 -0.58714925435E+03  0.59737287873E+03  0.47000000000E+01 0.  1.
         13    1    6    6    0    0  0.26010440549E+02  0.42778547093E+02 -0.28933780335E+03  0.29363738106E+03  0.00000000000E+00 0. -1.
        -14    1    6    6    0    0  0.25745455284E+02 -0.34672391338E+02 -0.39242297176E+03  0.39479208700E+03  0.00000000000E+00 0.  1.
<mgrwt>
<rscale>  2 0.21526157E+03</rscale>
<asrwt>0</asrwt>
<pdfrwt beam="1">  1       21 0.39919278E-02 0.21782955E+03</pdfrwt>
<pdfrwt beam="2">  1       21 0.30079322E+00 0.21782955E+03</pdfrwt>
<totfact> 0.12951256E+04</totfact>
</mgrwt>
</event>
<event>
12    1  0.1050690E-001  0.1942342E+03  0.7546771E-02  0.1154897E+00
         21   -1    0    0  501  502  0.00000000000E+00  0.00000000000E+00  0.23885855464E+04  0.23885855464E+04  0.00000000000E+00 0.  1.
         21   -1    0    0  502  503 -0.00000000000E+00 -0.00000000000E+00 -0.25578550845E+02  0.25578550845E+02  0.00000000000E+00 0.  1.
         -6    2    1    2    0  503 -0.53270500248E+02  0.69288455783E+02  0.43042718334E+03  0.47184804124E+03  0.17243658998E+03 0.  0.
        -24    2    3    3    0    0  0.15849920661E+02  0.41935123612E+02  0.11355565087E+03  0.14633998380E+03  0.80689097390E+02 0.  0.
          6    2    1    2  501    0  0.53270500248E+02 -0.69288455783E+02  0.19325798123E+04  0.19423160561E+04  0.17345977784E+03 0.  0.
         24    2    5    5    0    0  0.56819048418E+02 -0.82817127411E+02  0.19123328803E+04  0.19172632038E+04  0.93776686176E+02 0.  0.
          5    1    5    5  501    0 -0.35485481700E+01  0.13528671627E+02  0.20246931979E+02  0.25052852227E+02  0.47000000000E+01 0. -1.
        -11    1    6    6    0    0  0.21855907664E+02  0.65695435017E+00  0.10436079167E+04  0.10438369585E+04  0.00000000000E+00 0.  1.
         12    1    6    6    0    0  0.34963140754E+02 -0.83474081761E+02  0.86872496361E+03  0.87342624528E+03  0.00000000000E+00 0. -1.
         -5    1    3    3    0  503 -0.69120420910E+02  0.27353332171E+02  0.31687153247E+03  0.32550805744E+03  0.47000000000E+01 0.  1.
         11    1    4    4    0    0  0.34169503043E+02  0.58378284245E+02  0.81168753795E+02  0.10565957412E+03  0.00000000000E+00 0. -1.
        -12    1    4    4    0    0 -0.18319582382E+02 -0.16443160633E+02  0.32386897072E+02  0.40680409685E+02  0.00000000000E+00 0.  1.
<mgrwt>
<rscale>  2 0.19400551E+03</rscale>
<asrwt>0</asrwt>
<pdfrwt beam="1">  1       21 0.36747452E+00 0.19423422E+03</pdfrwt>
<pdfrwt beam="2">  1       21 0.39351635E-02 0.19423422E+03</pdfrwt>
<totfact> 0.55315780E+03</totfact>
</mgrwt>
</event>
<event>
12    1  0.1050690E-001  0.2899780E+03  0.7546771E-02  0.1090475E+00
         21   -1    0    0  501  502  0.00000000000E+00  0.00000000000E+00  0.50549452170E+03  0.50549452170E+03  0.00000000000E+00 0. -1.
         21   -1    0    0  502  503 -0.00000000000E+00 -0.00000000000E+00 -0.23210867300E+03  0.23210867300E+03  0.00000000000E+00 0. -1.
         -6    2    1    2    0  503  0.23107815752E+03 -0.20523660836E+02 -0.60214488503E+02  0.29616389252E+03  0.17397968579E+03 0.  0.
        -24    2    3    3    0    0  0.17453763821E+03  0.20330442352E+02 -0.96993748150E+02  0.21716584183E+03  0.82924674499E+02 0.  0.
          6    2    1    2  501    0 -0.23107815752E+03  0.20523660836E+02  0.33360033721E+03  0.44143930219E+03  0.17251416462E+03 0.  0.
         24    2    5    5    0    0 -0.37755160119E+02  0.33140868469E+02  0.11818508268E+03  0.15168285768E+03  0.80723021909E+02 0.  0.
          5    1    5    5  501    0 -0.19332299740E+03 -0.12617207632E+02  0.21541525452E+03  0.28975644451E+03  0.47000000000E+01 0. -1.
        -11    1    6    6    0    0 -0.42867340211E+02 -0.96361941716E+01  0.29020732366E+02  0.52656129766E+02  0.00000000000E+00 0.  1.
         12    1    6    6    0    0  0.51121800923E+01  0.42777062640E+02  0.89164350318E+02  0.99026727913E+02  0.00000000000E+00 0. -1.
         -5    1    3    3    0  503  0.56540519312E+02 -0.40854103188E+02  0.36779259647E+02  0.78998050683E+02  0.47000000000E+01 0.  1.
         13    1    4    4    0    0  0.68090115046E+02 -0.29345065693E+02 -0.20282768329E+02  0.76868636898E+02  0.00000000000E+00 0. -1.
        -14    1    4    4    0    0  0.10644752316E+03  0.49675508046E+02 -0.76710979822E+02  0.14029720493E+03  0.00000000000E+00 0.  1.
<mgrwt>
<rscale>  2 0.28975857E+03</rscale>
<asrwt>0</asrwt>
<pdfrwt beam="1">  1       21 0.77768388E-01 0.28997805E+03</pdfrwt>
<pdfrwt beam="2">  1       21 0.35709027E-01 0.28997805E+03</pdfrwt>
<totfact> 0.10484359E+04</totfact>
</mgrwt>
</event>
<event>
12    1  0.1050690E-001  0.1869843E+03  0.7546771E-02  0.1161559E+00
         21   -1    0    0  501  502  0.00000000000E+00  0.00000000000E+00  0.34737526280E+02  0.34737526280E+02  0.00000000000E+00 0.  1.
         21   -1    0    0  502  503 -0.00000000000E+00 -0.00000000000E+00 -0.10000928879E+04  0.10000928879E+04  0.00000000000E+00 0.  1.
         -6    2    1    2    0  503 -0.26442372423E+01  0.71729920321E+02 -0.45934916911E+03  0.49538123962E+03  0.17102262993E+03 0.  0.
        -24    2    3    3    0    0 -0.37017140600E+02  0.10339800637E+03 -0.29234967889E+03  0.32190131603E+03  0.78042975916E+02 0.  0.
          6    2    1    2  501    0  0.26442372423E+01 -0.71729920321E+02 -0.50600619251E+03  0.53944917455E+03  0.17265854051E+03 0.  0.
         24    2    5    5    0    0  0.31123887753E+02  0.12376048805E+02 -0.34446253754E+03  0.35504920981E+03  0.79269405497E+02 0.  0.
          5    1    5    5  501    0 -0.28479650510E+02 -0.84105969126E+02 -0.16154365497E+03  0.18439996474E+03  0.47000000000E+01 0. -1.
        -13    1    6    6    0    0  0.46092848430E+02 -0.31092119747E+01 -0.10617221042E+03  0.11578754743E+03  0.00000000000E+00 0.  1.
         14    1    6    6    0    0 -0.14968960677E+02  0.15485260779E+02 -0.23829032712E+03  0.23926166238E+03  0.00000000000E+00 0. -1.
         -5    1    3    3    0  503  0.34372903358E+02 -0.31668086051E+02 -0.16699949021E+03  0.17347992360E+03  0.47000000000E+01 0.  1.
         11    1    4    4    0    0 -0.21507142402E+02 -0.69858496425E+01 -0.38380533047E+02  0.44546880772E+02  0.00000000000E+00 0. -1.
        -12    1    4    4    0    0 -0.15509998198E+02  0.11038385601E+03 -0.25396914585E+03  0.27735443525E+03  0.00000000000E+00 0.  1.
<mgrwt>
<rscale>  2 0.18660582E+03</rscale>
<asrwt>0</asrwt>
<pdfrwt beam="1">  1       21 0.53442355E-02 0.18698434E+03</pdfrwt>
<pdfrwt beam="2">  1       21 0.15386043E+00 0.18698434E+03</pdfrwt>
<totfact> 0.67345024E+04</totfact>
</mgrwt>
</event>
<event>
12    1  0.1050690E-001  0.1802209E+03  0.7546771E-02  0.1167682E+00
         21   -1    0    0  501  502  0.00000000000E+00  0.00000000000E+00  0.16235883163E+04  0.16235883163E+04  0.00000000000E+00 0. -1.
         21   -1    0    0  502  503 -0.00000000000E+00 -0.00000000000E+00 -0.10237990448E+03  0.10237990448E+03  0.00000000000E+00 0. -1.
         -6    2    1    2    0  503  0.12690311038E+02 -0.43774052616E+02 -0.13846513378E+02  0.18037021613E+03  0.17396688552E+03 0.  0.
        -24    2    3    3    0    0 -0.69892870627E+01 -0.89101384170E+02  0.16972900839E+02  0.12194265534E+03  0.81203602348E+02 0.  0.
          6    2    1    2  501    0 -0.12690311038E+02  0.43774052616E+02  0.15350549251E+04  0.15455980046E+04  0.17436271660E+03 0.  0.
         24    2    5    5    0    0 -0.63052786989E+01 -0.25064989896E+02  0.12245028975E+04  0.12274090132E+04  0.80358753699E+02 0.  0.
          5    1    5    5  501    0 -0.63850323387E+01  0.68839042512E+02  0.31055202762E+03  0.31818899143E+03  0.47000000000E+01 0. -1.
        -13    1    6    6    0    0 -0.50848874476E+01 -0.17212315695E+02  0.54500982382E+02  0.57380109555E+02  0.00000000000E+00 0.  1.
         14    1    6    6    0    0 -0.12203912513E+01 -0.78526742008E+01  0.11700019151E+04  0.11700289036E+04  0.00000000000E+00 0. -1.
         -5    1    3    3    0  503  0.19679598100E+02  0.45327331554E+02 -0.30819414217E+02  0.58427560790E+02  0.47000000000E+01 0.  1.
         11    1    4    4    0    0  0.36835839478E+02 -0.47791509013E+02  0.11912810191E+02  0.61504653893E+02  0.00000000000E+00 0. -1.
        -12    1    4    4    0    0 -0.43825126541E+02 -0.41309875157E+02  0.50600906482E+01  0.60438001449E+02  0.00000000000E+00 0.  1.
<mgrwt>
<rscale>  2 0.18012508E+03</rscale>
<asrwt>0</asrwt>
<pdfrwt beam="1">  1       21 0.24978280E+00 0.18022089E+03</pdfrwt>
<pdfrwt beam="2">  1       21 0.15750756E-01 0.18022089E+03</pdfrwt>
<totfact> 0.24278734E+03</totfact>
</mgrwt>
</event>
<event>
12    1  0.1050690E-001  0.2601323E+03  0.7546771E-02  0.1107117E+00
         21   -1    0    0  503  502  0.00000000000E+00  0.00000000000E+00  0.60439133943E+02  0.60439133943E+02  0.00000000000E+00 0. -1.
         21   -1    0    0  501  503 -0.00000000000E+00 -0.00000000000E+00 -0.11257712885E+04  0.11257712885E+04  0.00000000000E+00 0.  1.
          6    2    1    2  501    0 -0.10097579820E+03  0.16676409414E+03 -0.58204121187E+03  0.63752708840E+03  0.17222787581E+03 0.  0.
         24    2    3    3    0    0 -0.13563038426E+03  0.15992686691E+03 -0.47968274526E+03  0.52914335486E+03  0.76973696748E+02 0.  0.
         -6    2    1    2    0  502  0.10097579820E+03 -0.16676409414E+03 -0.48329094266E+03  0.54868333401E+03  0.17168835387E+03 0.  0.
        -24    2    5    5    0    0 -0.64702828193E+01 -0.35890679282E+02 -0.13809646779E+03  0.16416567965E+03  0.80930405520E+02 0.  0.
          5    1    3    3  501    0  0.34654586053E+02  0.68372272376E+01 -0.10235846661E+03  0.10838373355E+03  0.47000000000E+01 0. -1.
        -13    1    4    4    0    0 -0.71612844615E+02  0.64093652836E+02 -0.13508372173E+03  0.16578301398E+03  0.00000000000E+00 0.  1.
         14    1    4    4    0    0 -0.64017539640E+02  0.95833214070E+02 -0.34459902353E+03  0.36336034087E+03  0.00000000000E+00 0. -1.
         -5    1    5    5    0  502  0.10744608102E+03 -0.13087341486E+03 -0.34519447486E+03  0.38451765437E+03  0.47000000000E+01 0.  1.
         13    1    6    6    0    0 -0.92244055691E+00 -0.56609794105E+02 -0.57231492166E+02  0.80504430815E+02  0.00000000000E+00 0. -1.
        -14    1    6    6    0    0 -0.55478422624E+01  0.20719114824E+02 -0.80864975628E+02  0.83661248833E+02  0.00000000000E+00 0.  1.
<mgrwt>
<rscale>  2 0.26004304E+03</rscale>
<asrwt>0</asrwt>
<pdfrwt beam="1">  1       21 0.92983279E-02 0.26013231E+03</pdfrwt>
<pdfrwt beam="2">  1       21 0.17319559E+00 0.26013231E+03</pdfrwt>
<totfact> 0.17906463E+04</totfact>
</mgrwt>
</event>
<event>
12    1  0.1050690E-001  0.2091499E+03  0.7546771E-02  0.1142882E+00
         21   -1    0    0  501  502  0.00000000000E+00  0.00000000000E+00  0.28010141133E+03  0.28010141133E+03  0.00000000000E+00 0. -1.
         21   -1    0    0  502  503 -0.00000000000E+00 -0.00000000000E+00 -0.16379328056E+03  0.16379328056E+03  0.00000000000E+00 0.  1.
         -6    2    1    2    0  503 -0.27172952664E+02  0.10793428894E+03  0.11256527079E+03  0.23471127023E+03  0.17329241212E+03 0.  0.
        -24    2    3    3    0    0 -0.63459264730E+02  0.11552295354E+03  0.50352799059E+02  0.16213878293E+03  0.79880845538E+02 0.  0.
          6    2    1    2  501    0  0.27172952664E+02 -0.10793428894E+03  0.37428599745E+01  0.20918342166E+03  0.17707488475E+03 0.  0.
         24    2    5    5    0    0  0.85666408865E+02 -0.66472273244E+02  0.16954588742E+02  0.13612712185E+03  0.80534703736E+02 0.  0.
          5    1    5    5  501    0 -0.58493456201E+02 -0.41462015699E+02 -0.13211728768E+02  0.73056299805E+02  0.47000000000E+01 0. -1.
        -11    1    6    6    0    0  0.36474650606E+02 -0.75357509515E+02  0.12484830185E+01  0.83730001116E+02  0.00000000000E+00 0.  1.
         12    1    6    6    0    0  0.49191758259E+02  0.88852362708E+01  0.15706105724E+02  0.52397120734E+02  0.00000000000E+00 0. -1.
         -5    1    3    3    0  503  0.36286312067E+02 -0.75886645942E+01  0.62212471736E+02  0.72572487302E+02  0.47000000000E+01 0.  1.
         11    1    4    4    0    0 -0.39805105087E+01  0.83323233342E+02  0.43714662715E+02  0.94178433916E+02  0.00000000000E+00 0. -1.
        -12    1    4    4    0    0 -0.59478754222E+02  0.32199720194E+02  0.66381363437E+01  0.67960349017E+02  0.00000000000E+00 0.  1.
<mgrwt>
<rscale>  2 0.20834718E+03</rscale>
<asrwt>0</asrwt>
<pdfrwt beam="1">  1       21 0.43092525E-01 0.20914993E+03</pdfrwt>
<pdfrwt beam="2">  1       21 0.25198966E-01 0.20914993E+03</pdfrwt>
<totfact> 0.76703313E+04</totfact>
</mgrwt>
</event>
<event>
12    1  0.1050690E-001  0.2035770E+03  0.7546771E-02  0.1147836E+00
         21   -1    0    0  501  502  0.00000000000E+00  0.00000000000E+00  0.50256769096E+03  0.50256769096E+03  0.00000000000E+00 0.  1.
         21   -1    0    0  502  503 -0.00000000000E+00 -0.00000000000E+00 -0.10152484889E+03  0.10152484889E+03  0.00000000000E+00 0.  1.
         -6    2    1    2    0  503 -0.96359304302E+02 -0.12005620325E+02  0.64736637607E+02  0.21362214274E+03  0.17892550733E+03 0.  0.
        -24    2    3    3    0    0 -0.53698530616E+02 -0.22313228205E+02  0.11136848066E+03  0.14941305320E+03  0.80869707796E+02 0.  0.
          6    2    1    2  501    0  0.96359304302E+02  0.12005620325E+02  0.33630620446E+03  0.39047039711E+03  0.17302028036E+03 0.  0.
         24    2    5    5    0    0  0.53161617650E+02 -0.58262981578E+02  0.16027000324E+03  0.19601075944E+03  0.80703229566E+02 0.  0.
          5    1    5    5  501    0  0.43197686652E+02  0.70268601902E+02  0.17603620122E+03  0.19445963768E+03  0.47000000000E+01 0. -1.
        -13    1    6    6    0    0  0.34466343890E+02 -0.12135849562E+02  0.10251422088E+02  0.37951276139E+02  0.00000000000E+00 0.  1.
         14    1    6    6    0    0  0.18695273760E+02 -0.46127132016E+02  0.15001858115E+03  0.15805948330E+03  0.00000000000E+00 0. -1.
         -5    1    3    3    0  503 -0.42660773686E+02  0.10307607880E+02 -0.46631843057E+02  0.64209089532E+02  0.47000000000E+01 0.  1.
         11    1    4    4    0    0 -0.41213233701E+02 -0.42552875153E+02  0.33631884563E+02  0.68120345530E+02  0.00000000000E+00 0. -1.
        -12    1    4    4    0    0 -0.12485296915E+02  0.20239646948E+02  0.77736596100E+02  0.81292707673E+02  0.00000000000E+00 0.  1.
<mgrwt>
<rscale>  2 0.20227195E+03</rscale>
<asrwt>0</asrwt>
<pdfrwt beam="1">  1       21 0.77318105E-01 0.20357698E+03</pdfrwt>
<pdfrwt beam="2">  1       21 0.15619208E-01 0.20357698E+03</pdfrwt>
<totfact> 0.53828446E+04</totfact>
</mgrwt>
</event>
<event>
12    1  0.1050690E-001  0.1966412E+03  0.7546771E-02  0.1153103E+00
         21   -1    0    0  501  502  0.00000000000E+00  0.00000000000E+00  0.21294020039E+03  0.21294020039E+03  0.00000000000E+00 0.  1.
         21   -1    0    0  502  503 -0.00000000000E+00 -0.00000000000E+00 -0.31967938771E+03  0.31967938771E+03  0.00000000000E+00 0. -1.
         -6    2    1    2    0  503 -0.90581372947E+02  0.44484194600E+01 -0.22991046271E+03  0.30253360940E+03  0.17447919759E+03 0.  0.
        -24    2    3    3    0    0  0.12274710911E+01 -0.37376319909E+02 -0.73339088348E+02  0.11621437278E+03  0.82028425467E+02 0.  0.
          6    2    1    2  501    0  0.90581372947E+02 -0.44484194600E+01  0.12317127539E+03  0.23008597870E+03  0.17188257897E+03 0.  0.
         24    2    5    5    0    0  0.87789639475E+02 -0.24727692746E+02  0.15384539148E+03  0.19291025950E+03  0.72301342678E+02 0.  0.
          5    1    5    5  501    0  0.27917334716E+01  0.20279273286E+02 -0.30674116084E+02  0.37175719204E+02  0.47000000000E+01 0. -1.
        -11    1    6    6    0    0  0.52844887306E+02 -0.46397845227E+02  0.68476237670E+02  0.98154660009E+02  0.00000000000E+00 0.  1.
         12    1    6    6    0    0  0.34944752169E+02  0.21670152481E+02  0.85369153808E+02  0.94755599490E+02  0.00000000000E+00 0. -1.
         -5    1    3    3    0  503 -0.91808844038E+02  0.41824739369E+02 -0.15657137436E+03  0.18631923663E+03  0.47000000000E+01 0.  1.
         11    1    4    4    0    0  0.23448816631E+02  0.11843357783E+02 -0.51787499364E+02  0.58069417212E+02  0.00000000000E+00 0. -1.
        -12    1    4    4    0    0 -0.22221345540E+02 -0.49219677692E+02 -0.21551588984E+02  0.58144955564E+02  0.00000000000E+00 0.  1.
<mgrwt>
<rscale>  2 0.19606360E+03</rscale>
<asrwt>0</asrwt>
<pdfrwt beam="1">  1       21 0.32760031E-01 0.19664121E+03</pdfrwt>
<pdfrwt beam="2">  1       21 0.49181444E-01 0.19664121E+03</pdfrwt>
<totfact> 0.35295319E+04</totfact>
</mgrwt>
</event>
<event>
12    1  0.1050690E-001  0.1732057E+03  0.7546771E-02  0.1174988E+00
         21   -1    0    0  503  502  0.00000000000E+00  0.00000000000E+00  0.40479974846E+03  0.40479974846E+03  0.00000000000E+00 0.  1.
         21   -1    0    0  501  503 -0.00000000000E+00 -0.00000000000E+00 -0.12275888205E+03  0.12275888205E+03  0.00000000000E+00 0.  1.
          6    2    1    2  501    0  0.73980861206E+01 -0.11112503177E+02 -0.26707912138E+02  0.17354448480E+03  0.17095659165E+03 0.  0.
         24    2    3    3    0    0  0.92875266872E+01 -0.53956371875E+02 -0.63878955122E+02  0.11659763671E+03  0.80727565064E+02 0.  0.
         -6    2    1    2    0  502 -0.73980861206E+01  0.11112503177E+02  0.30874877855E+03  0.35401414572E+03  0.17269043896E+03 0.  0.
        -24    2    5    5    0    0  0.36021019930E+02  0.44156750961E+02  0.26842988894E+03  0.28600794056E+03  0.80613920940E+02 0.  0.
          5    1    3    3  501    0 -0.18894405666E+01  0.42843868698E+02  0.37171042984E+02  0.56946848088E+02  0.47000000000E+01 0. -1.
        -11    1    4    4    0    0  0.26010468917E+02  0.41965447314E+01 -0.46828851773E+02  0.53731711673E+02  0.00000000000E+00 0.  1.
         12    1    4    4    0    0 -0.16722942230E+02 -0.58152916607E+02 -0.17050103350E+02  0.62865925038E+02  0.00000000000E+00 0. -1.
         -5    1    5    5    0  502 -0.43419106051E+02 -0.33044247783E+02  0.40318889600E+02  0.68006205161E+02  0.47000000000E+01 0.  1.
         13    1    6    6    0    0  0.14376530968E+02 -0.11296200033E+02  0.10058337702E+02  0.20867652843E+02  0.00000000000E+00 0. -1.
        -14    1    6    6    0    0  0.21644488962E+02  0.55452950993E+02  0.25837155124E+03  0.26514028771E+03  0.00000000000E+00 0.  1.
<mgrwt>
<rscale>  2 0.17277189E+03</rscale>
<asrwt>0</asrwt>
<pdfrwt beam="1">  1       21 0.62276884E-01 0.17320568E+03</pdfrwt>
<pdfrwt beam="2">  1       21 0.18885982E-01 0.17320568E+03</pdfrwt>
<totfact> 0.61965737E+04</totfact>
</mgrwt>
</event>
<event>
12    1  0.1050690E-001  0.2019193E+03  0.7546771E-02  0.1148411E+00
         21   -1    0    0  503  502  0.00000000000E+00  0.00000000000E+00  0.21541475751E+02  0.21541475751E+02  0.00000000000E+00 0.  1.
         21   -1    0    0  501  503 -0.00000000000E+00 -0.00000000000E+00 -0.22343880545E+04  0.22343880545E+04  0.00000000000E+00 0. -1.
          6    2    1    2  501    0 -0.75354111527E+02 -0.73828181393E+02 -0.15586988625E+04  0.15717231158E+04  0.17217016664E+03 0.  0.
         24    2    3    3    0    0  0.47275718539E+01 -0.33098725657E+01 -0.43970902706E+03  0.44764738449E+03  0.83730801810E+02 0.  0.
         -6    2    1    2    0  502  0.75354111527E+02  0.73828181393E+02 -0.65414771626E+03  0.68420641446E+03  0.17058821887E+03 0.  0.
        -24    2    5    5    0    0  0.94076810734E+01  0.90039244805E+02 -0.28731846459E+03  0.31111457571E+03  0.77748370117E+02 0.  0.
          5    1    3    3  501    0 -0.80081683381E+02 -0.70518308827E+02 -0.11189898354E+04  0.11240757313E+04  0.47000000000E+01 0. -1.
        -11    1    4    4    0    0 -0.10439736942E+01  0.33501831770E+02 -0.91419891300E+02  0.97370730398E+02  0.00000000000E+00 0.  1.
         12    1    4    4    0    0  0.57715455481E+01 -0.36811704335E+02 -0.34828913576E+03  0.35027665409E+03  0.00000000000E+00 0. -1.
         -5    1    5    5    0  502  0.65946430454E+02 -0.16211063412E+02 -0.36682925166E+03  0.37309183875E+03  0.47000000000E+01 0.  1.
         11    1    6    6    0    0  0.34608646108E+02  0.25216093508E+02 -0.16438791075E+03  0.16987346749E+03  0.00000000000E+00 0. -1.
        -12    1    6    6    0    0 -0.25200965035E+02  0.64823151297E+02 -0.12293055384E+03  0.14124110822E+03  0.00000000000E+00 0.  1.
<mgrwt>
<rscale>  2 0.20158167E+03</rscale>
<asrwt>0</asrwt>
<pdfrwt beam="1">  1       21 0.33140750E-02 0.20191931E+03</pdfrwt>
<pdfrwt beam="2">  1       21 0.34375182E+00 0.20191931E+03</pdfrwt>
<totfact> 0.10100896E+04</totfact>
</mgrwt>
</event>
<event>
12    1  0.1050690E-001  0.2132970E+03  0.7546771E-02  0.1139163E+00
         21   -1    0    0  503  502  0.00000000000E+00  0.00000000000E+00  0.47694267920E+03  0.47694267920E+03  0.00000000000E+00 0. -1.
         21   -1    0    0  501  503 -0.00000000000E+00 -0.00000000000E+00 -0.10286958912E+03  0.10286958912E+03  0.00000000000E+00 0. -1.
          6    2    1    2  501    0  0.10508665004E+03  0.66967269758E+02  0.10633865770E+03  0.23750052455E+03  0.17196153583E+03 0.  0.
         24    2    3    3    0    0  0.52698389652E+02  0.65777611334E+02 -0.28863727563E+01  0.11626462891E+03  0.80033232870E+02 0.  0.
         -6    2    1    2    0  502 -0.10508665004E+03 -0.66967269758E+02  0.26773443239E+03  0.34231174377E+03  0.17311205735E+03 0.  0.
        -24    2    5    5    0    0 -0.11410591975E+03 -0.10381293329E+03  0.19843228954E+03  0.26316740000E+03  0.78002697709E+02 0.  0.
          5    1    3    3  501    0  0.52388260392E+02  0.11896584244E+01  0.10922503045E+03  0.12123589564E+03  0.47000000000E+01 0. -1.
        -13    1    4    4    0    0  0.33915872576E+02  0.67251941403E+01  0.30296682253E+02  0.45971769646E+02  0.00000000000E+00 0.  1.
         14    1    4    4    0    0  0.18782517076E+02  0.59052417193E+02 -0.33183055009E+02  0.70292859266E+02  0.00000000000E+00 0. -1.
         -5    1    5    5    0  502  0.90192697031E+01  0.36845663534E+02  0.69302142851E+02  0.79144343771E+02  0.47000000000E+01 0.  1.
         11    1    6    6    0    0 -0.94286133214E+02 -0.86687747587E+02  0.19935958456E+03  0.23695755834E+03  0.00000000000E+00 0. -1.
        -12    1    6    6    0    0 -0.19819786533E+02 -0.17125185705E+02 -0.92729502266E+00  0.26209841657E+02  0.00000000000E+00 0.  1.
<mgrwt>
<rscale>  2 0.21306343E+03</rscale>
<asrwt>0</asrwt>
<pdfrwt beam="1">  1       21 0.73375796E-01 0.21329698E+03</pdfrwt>
<pdfrwt beam="2">  1       21 0.15826091E-01 0.21329698E+03</pdfrwt>
<totfact> 0.58811673E+04</totfact>
</mgrwt>
</event>
<event>
12    1  0.1050690E-001  0.1778058E+03  0.7546771E-02  0.1170225E+00
         21   -1    0    0  503  502  0.00000000000E+00  0.00000000000E+00  0.49909564068E+02  0.49909564068E+02  0.00000000000E+00 0. -1.
         21   -1    0    0  501  503 -0.00000000000E+00 -0.00000000000E+00 -0.10359234296E+04  0.10359234296E+04  0.00000000000E+00 0. -1.
          6    2    1    2  501    0 -0.13557493553E+02 -0.32733568659E+02 -0.83215127220E+03  0.85069768835E+03  0.17307664487E+03 0.  0.
         24    2    3    3    0    0  0.98690008215E+01  0.46278868406E+02 -0.39152755086E+03  0.40240858559E+03  0.79998223956E+02 0.  0.
         -6    2    1    2    0  502  0.13557493553E+02  0.32733568659E+02 -0.15386259335E+03  0.23513530533E+03  0.17424012750E+03 0.  0.
        -24    2    5    5    0    0 -0.11387527320E+02  0.28850464388E+02 -0.85362168610E+01  0.87557602855E+02  0.81433664694E+02 0.  0.
          5    1    3    3  501    0 -0.23426494374E+02 -0.79012437065E+02 -0.44062372134E+03  0.44828910276E+03  0.47000000000E+01 0. -1.
        -13    1    4    4    0    0 -0.11474892456E+02  0.19481254429E+02 -0.22858761033E+02  0.32151444555E+02  0.00000000000E+00 0.  1.
         14    1    4    4    0    0  0.21343893277E+02  0.26797613977E+02 -0.36866878983E+03  0.37025714104E+03  0.00000000000E+00 0. -1.
         -5    1    5    5    0  502  0.24945020873E+02  0.38831042706E+01 -0.14532637649E+03  0.14757770248E+03  0.47000000000E+01 0.  1.
         11    1    6    6    0    0  0.11719762502E+02 -0.22801612930E+02  0.10716385323E+02  0.27786818812E+02  0.00000000000E+00 0. -1.
        -12    1    6    6    0    0 -0.23107289822E+02  0.51652077318E+02 -0.19252602184E+02  0.59770784043E+02  0.00000000000E+00 0.  1.
<mgrwt>
<rscale>  2 0.17752015E+03</rscale>
<asrwt>0</asrwt>
<pdfrwt beam="1">  1       21 0.76783953E-02 0.17780583E+03</pdfrwt>
<pdfrwt beam="2">  1       21 0.15937282E+00 0.17780583E+03</pdfrwt>
<totfact> 0.33091793E+04</totfact>
</mgrwt>
</event>
<event>
12    1  0.1050690E-001  0.1927470E+03  0.7546771E-02  0.1156055E+00
         21   -1    0    0  501  502  0.00000000000E+00  0.00000000000E+00  0.26956856563E+04  0.26956856563E+04  0.00000000000E+00 0.  1.
         21   -1    0    0  502  503 -0.00000000000E+00 -0.00000000000E+00 -0.14762130925E+02  0.14762130925E+02  0.00000000000E+00 0. -1.
         -6    2    1    2    0  503  0.27928413017E+01  0.85851933764E+02  0.98915055441E+03  0.10077550491E+04  0.17254873306E+03 0.  0.
        -24    2    3    3    0    0 -0.59681943004E+02  0.29566439531E+02  0.48901191915E+03  0.50057470645E+03  0.83703470623E+02 0.  0.
          6    2    1    2  501    0 -0.27928413017E+01 -0.85851933764E+02  0.16917729710E+04  0.17026927381E+04  0.17230328073E+03 0.  0.
         24    2    5    5    0    0 -0.58041760244E+02 -0.92156210768E+02  0.12498350463E+04  0.12572453156E+04  0.81954423277E+02 0.  0.
          5    1    5    5  501    0  0.55248918943E+02  0.63042770043E+01  0.44193792469E+03  0.44544742253E+03  0.47000000000E+01 0. -1.
        -13    1    6    6    0    0 -0.28559372703E+02 -0.50224121576E+02  0.10255974496E+04  0.10272235534E+04  0.00000000000E+00 0.  1.
         14    1    6    6    0    0 -0.29482387542E+02 -0.41932089192E+02  0.22423759672E+03  0.23002176214E+03  0.00000000000E+00 0. -1.
         -5    1    3    3    0  503  0.62474784305E+02  0.56285494233E+02  0.50013863526E+03  0.50718034269E+03  0.47000000000E+01 0.  1.
         13    1    4    4    0    0 -0.26405558945E+02  0.21197040159E+02  0.50978814164E+02  0.61199734871E+02  0.00000000000E+00 0. -1.
        -14    1    4    4    0    0 -0.33276384059E+02  0.83693993713E+01  0.43803310499E+03  0.43937497158E+03  0.00000000000E+00 0.  1.
<mgrwt>
<rscale>  2 0.19269209E+03</rscale>
<asrwt>0</asrwt>
<pdfrwt beam="1">  1       21 0.41472048E+00 0.19274704E+03</pdfrwt>
<pdfrwt beam="2">  1       21 0.22710992E-02 0.19274704E+03</pdfrwt>
<totfact> 0.70427463E+03</totfact>
</mgrwt>
</event>
<event>
12    1  0.1050690E-001  0.1853625E+03  0.7546771E-02  0.1162772E+00
         21   -1    0    0  503  502  0.00000000000E+00  0.00000000000E+00  0.19204797000E+03  0.19204797000E+03  0.00000000000E+00 0. -1.
         21   -1    0    0  501  503 -0.00000000000E+00 -0.00000000000E+00 -0.35637408614E+03  0.35637408614E+03  0.00000000000E+00 0. -1.
          6    2    1    2  501    0 -0.66778003488E+02  0.23797932995E+01 -0.27577294739E+03  0.33213605053E+03  0.17262291964E+03 0.  0.
         24    2    3    3    0    0 -0.39092235985E+02 -0.45653835939E+01 -0.46994372617E+02  0.10153582616E+03  0.80944470445E+02 0.  0.
         -6    2    1    2    0  502  0.66778003488E+02 -0.23797932995E+01  0.11144683125E+03  0.21628600560E+03  0.17289960919E+03 0.  0.
        -24    2    5    5    0    0 -0.25045361385E+02  0.10834242973E+02  0.84985561817E+02  0.11970220846E+03  0.79758523332E+02 0.  0.
          5    1    3    3  501    0 -0.27685767503E+02  0.69451768933E+01 -0.22877857477E+03  0.23060022437E+03  0.47000000000E+01 0. -1.
        -11    1    4    4    0    0 -0.57171253113E+02 -0.24426536874E+02 -0.39480365689E+02  0.73647180266E+02  0.00000000000E+00 0.  1.
         12    1    4    4    0    0  0.18079017128E+02  0.19861153280E+02 -0.75140069288E+01  0.27888645899E+02  0.00000000000E+00 0. -1.
         -5    1    5    5    0  502  0.91823364873E+02 -0.13214036273E+02  0.26461269429E+02  0.96583797145E+02  0.47000000000E+01 0.  1.
         13    1    6    6    0    0 -0.12494565791E+02  0.37617156121E+02  0.80575524457E+02  0.89797437327E+02  0.00000000000E+00 0. -1.
        -14    1    6    6    0    0 -0.12550795594E+02 -0.26782913148E+02  0.44100373602E+01  0.29904771129E+02  0.00000000000E+00 0.  1.
<mgrwt>
<rscale>  2 0.18529791E+03</rscale>
<asrwt>0</asrwt>
<pdfrwt beam="1">  1       21 0.29545842E-01 0.18536246E+03</pdfrwt>
<pdfrwt beam="2">  1       21 0.54826782E-01 0.18536246E+03</pdfrwt>
<totfact> 0.34600496E+04</totfact>
</mgrwt>
</event>
<event>
12    1  0.1050690E-001  0.2063543E+03  0.7546771E-02  0.1144750E+00
         21   -1    0    0  501  502  0.00000000000E+00  0.00000000000E+00  0.80658240695E+03  0.80658240695E+03  0.00000000000E+00 0.  1.
         21   -1    0    0  502  503 -0.00000000000E+00 -0.00000000000E+00 -0.55769879360E+02  0.55769879360E+02  0.00000000000E+00 0.  1.
         -6    2    1    2    0  503 -0.80874387498E+02 -0.77573026765E+02  0.27150678714E+03  0.34102496096E+03  0.17327390888E+03 0.  0.
        -24    2    3    3    0    0 -0.12236532523E+03 -0.46801868207E+02  0.20237910383E+03  0.25460107125E+03  0.81857902043E+02 0.  0.
          6    2    1    2  501    0  0.80874387498E+02  0.77573026765E+02  0.47930574046E+03  0.52132732536E+03  0.17172637042E+03 0.  0.
         24    2    5    5    0    0  0.21452216685E+02  0.80534804398E+02  0.42571959616E+03  0.44111927482E+03  0.80018671210E+02 0.  0.
          5    1    5    5  501    0  0.59422170813E+02 -0.29617776326E+01  0.53586144296E+02  0.80208050539E+02  0.47000000000E+01 0. -1.
        -11    1    6    6    0    0 -0.11397825675E+02  0.40926965091E+02  0.71408020704E+02  0.83090506814E+02  0.00000000000E+00 0.  1.
         12    1    6    6    0    0  0.32850042360E+02  0.39607839307E+02  0.35431157546E+03  0.35802876801E+03  0.00000000000E+00 0. -1.
         -5    1    3    3    0  503  0.41490937731E+02 -0.30771158558E+02  0.69127683304E+02  0.86423889705E+02  0.47000000000E+01 0.  1.
         11    1    4    4    0    0 -0.63381807418E+02  0.80407263558E+01  0.46088050978E+02  0.78778266260E+02  0.00000000000E+00 0. -1.
        -12    1    4    4    0    0 -0.58983517810E+02 -0.54842594563E+02  0.15629105286E+03  0.17582280499E+03  0.00000000000E+00 0.  1.
<mgrwt>
<rscale>  2 0.20602908E+03</rscale>
<asrwt>0</asrwt>
<pdfrwt beam="1">  1       21 0.12408959E+00 0.20635428E+03</pdfrwt>
<pdfrwt beam="2">  1       21 0.85799821E-02 0.20635428E+03</pdfrwt>
<totfact> 0.51225340E+04</totfact>
</mgrwt>
</event>
<event>
12    1  0.1050690E-001  0.1775934E+03  0.7546771E-02  0.1170210E+00
         21   -1    0    0  503  502  0.00000000000E+00  0.00000000000E+00  0.30645658449E+02  0.30645658449E+02  0.00000000000E+00 0.  1.
         21   -1    0    0  501  503 -0.00000000000E+00 -0.00000000000E+00 -0.11782884464E+04  0.11782884464E+04  0.00000000000E+00 0.  1.
          6    2    1    2  501    0  0.33020594574E+01 -0.39537506175E+02 -0.79014875988E+03  0.80986078003E+03  0.17310488816E+03 0.  0.
         24    2    3    3    0    0  0.21275876643E+02  0.46688270999E+02 -0.44286480616E+03  0.45155061095E+03  0.71667706413E+02 0.  0.
         -6    2    1    2    0  502 -0.33020594574E+01  0.39537506175E+02 -0.35749402805E+03  0.39907332479E+03  0.17286821709E+03 0.  0.
        -24    2    5    5    0    0 -0.31867400396E+02  0.82588866476E+02 -0.18260348266E+03  0.21665021443E+03  0.75873786391E+02 0.  0.
          5    1    3    3  501    0 -0.17973817186E+02 -0.86225777174E+02 -0.34728395372E+03  0.35831016908E+03  0.47000000000E+01 0. -1.
        -13    1    4    4    0    0  0.25414312410E+01  0.34340767606E+02 -0.69998829595E+02  0.78010148937E+02  0.00000000000E+00 0.  1.
         14    1    4    4    0    0  0.18734445402E+02  0.12347503393E+02 -0.37286597656E+03  0.37354046202E+03  0.00000000000E+00 0. -1.
         -5    1    5    5    0  502  0.28565340938E+02 -0.43051360301E+02 -0.17489054539E+03  0.18242311036E+03  0.47000000000E+01 0.  1.
         13    1    6    6    0    0 -0.48186979343E+01  0.50877257326E+02 -0.16255433971E+03  0.17039844049E+03  0.00000000000E+00 0. -1.
        -14    1    6    6    0    0 -0.27048702461E+02  0.31711609150E+02 -0.20049142942E+02  0.46251773938E+02  0.00000000000E+00 0.  1.
<mgrwt>
<rscale>  2 0.17753571E+03</rscale>
<asrwt>0</asrwt>
<pdfrwt beam="1">  1       21 0.47147167E-02 0.17759341E+03</pdfrwt>
<pdfrwt beam="2">  1       21 0.18127514E+00 0.17759341E+03</pdfrwt>
<totfact> 0.53489049E+04</totfact>
</mgrwt>
</event>
<event>
12    1  0.1050690E-001  0.1880657E+03  0.7546771E-02  0.1160341E+00
         21   -1    0    0  503  502  0.00000000000E+00  0.00000000000E+00  0.15013084020E+03  0.15013084020E+03  0.00000000000E+00 0.  1.
         21   -1    0    0  501  503 -0.00000000000E+00 -0.00000000000E+00 -0.23685896314E+03  0.23685896314E+03  0.00000000000E+00 0.  1.
          6    2    1    2  501    0 -0.70940630801E+02  0.17561197339E+02 -0.60859284537E+02  0.19715330338E+03  0.17269801321E+03 0.  0.
         24    2    3    3    0    0 -0.11570280896E+03  0.70520842077E+01 -0.37330192294E+02  0.14529000003E+03  0.79238683479E+02 0.  0.
         -6    2    1    2    0  502  0.70940630801E+02 -0.17561197339E+02 -0.25868838399E+02  0.18983649996E+03  0.17328511525E+03 0.  0.
        -24    2    5    5    0    0  0.40149644101E+02 -0.70787161208E+02  0.15837615398E+02  0.11538781709E+03  0.80253985316E+02 0.  0.
          5    1    3    3  501    0  0.44762178158E+02  0.10509113131E+02 -0.23529092243E+02  0.51863303346E+02  0.47000000000E+01 0. -1.
        -11    1    4    4    0    0 -0.17566976692E+02 -0.29587795413E+02 -0.10274458589E+01  0.34425164524E+02  0.00000000000E+00 0.  1.
         12    1    4    4    0    0 -0.98135832266E+02  0.36639879620E+02 -0.36302746435E+02  0.11086483551E+03  0.00000000000E+00 0. -1.
         -5    1    5    5    0  502  0.30790986701E+02  0.53225963870E+02 -0.41706453796E+02  0.74448682863E+02  0.47000000000E+01 0.  1.
         11    1    6    6    0    0  0.34414412836E+01 -0.36174583018E+02 -0.30076483933E+02  0.47170317578E+02  0.00000000000E+00 0. -1.
        -12    1    6    6    0    0  0.36708202817E+02 -0.34612578191E+02  0.45914099331E+02  0.68217499517E+02  0.00000000000E+00 0.  1.
<mgrwt>
<rscale>  2 0.18793033E+03</rscale>
<asrwt>0</asrwt>
<pdfrwt beam="1">  1       21 0.23097052E-01 0.18806568E+03</pdfrwt>
<pdfrwt beam="2">  1       21 0.36439840E-01 0.18806568E+03</pdfrwt>
<totfact> 0.12808125E+05</totfact>
</mgrwt>
</event>
<event>
12    1  0.1050690E-001  0.2341546E+03  0.7546771E-02  0.1125194E+00
         21   -1    0    0  501  502  0.00000000000E+00  0.00000000000E+00  0.13484096585E+03  0.13484096585E+03  0.00000000000E+00 0. -1.
         21   -1    0    0  502  503 -0.00000000000E+00 -0.00000000000E+00 -0.44564688161E+03  0.44564688161E+03  0.00000000000E+00 0.  1.
         -6    2    1    2    0  503 -0.52921659624E+02  0.13470939701E+03 -0.25813962213E+03  0.34851747013E+03  0.18406802757E+03 0.  0.
        -24    2    3    3    0    0  0.32981844755E+02  0.35468161276E+02 -0.57357049521E+02  0.10859255188E+03  0.78464760538E+02 0.  0.
          6    2    1    2  501    0  0.52921659624E+02 -0.13470939701E+03 -0.52666293632E+02  0.23197037733E+03  0.17346236992E+03 0.  0.
         24    2    5    5    0    0  0.29353965601E+02 -0.60253548447E+00 -0.44101716208E+02  0.95458368723E+02  0.79406047888E+02 0.  0.
          5    1    5    5  501    0  0.23567694023E+02 -0.13410686152E+03 -0.85645774234E+01  0.13651200861E+03  0.47000000000E+01 0. -1.
        -11    1    6    6    0    0  0.18058544229E+02 -0.54854749097E+01 -0.66921586890E+02  0.69532008791E+02  0.00000000000E+00 0.  1.
         12    1    6    6    0    0  0.11295421372E+02  0.48829394252E+01  0.22819870682E+02  0.25926359932E+02  0.00000000000E+00 0. -1.
         -5    1    3    3    0  503 -0.85903504380E+02  0.99241235729E+02 -0.20078257261E+03  0.23992491825E+03  0.47000000000E+01 0.  1.
         13    1    4    4    0    0 -0.18755093650E+01  0.17010197569E+02  0.17188644096E+02  0.24255181768E+02  0.00000000000E+00 0. -1.
        -14    1    4    4    0    0  0.34857354120E+02  0.18457963707E+02 -0.74545693618E+02  0.84337370112E+02  0.00000000000E+00 0.  1.
<mgrwt>
<rscale>  2 0.23206632E+03</rscale>
<asrwt>0</asrwt>
<pdfrwt beam="1">  1       21 0.20744764E-01 0.23415457E+03</pdfrwt>
<pdfrwt beam="2">  1       21 0.68561059E-01 0.23415457E+03</pdfrwt>
<totfact> 0.40972302E+04</totfact>
</mgrwt>
</event>
<event>
12    1  0.1050690E-001  0.2485908E+03  0.7546771E-02  0.1114379E+00
         21   -1    0    0  503  502  0.00000000000E+00  0.00000000000E+00  0.44604459444E+02  0.44604459444E+02  0.00000000000E+00 0. -1.
         21   -1    0    0  501  503 -0.00000000000E+00 -0.00000000000E+00 -0.15212675559E+04  0.15212675559E+04  0.00000000000E+00 0.  1.
          6    2    1    2  501    0 -0.12780162863E+03  0.12477017160E+03 -0.49750950956E+03  0.55565465644E+03  0.17127618961E+03 0.  0.
         24    2    3    3    0    0 -0.11734972866E+02  0.76634141344E+01 -0.19111187543E+03  0.20767899434E+03  0.80064837802E+02 0.  0.
         -6    2    1    2    0  502  0.12780162863E+03 -0.12477017160E+03 -0.97915358686E+03  0.10102173589E+04  0.17290608285E+03 0.  0.
        -24    2    5    5    0    0 -0.11755667776E+02 -0.59324110318E+02 -0.36498265753E+03  0.37698166313E+03  0.72424362258E+02 0.  0.
          5    1    3    3  501    0 -0.11606665576E+03  0.11710675746E+03 -0.30639763413E+03  0.34797566211E+03  0.47000000000E+01 0. -1.
        -11    1    4    4    0    0  0.23658320865E+01  0.21131694351E+00 -0.19170440700E+03  0.19171912132E+03  0.00000000000E+00 0.  1.
         12    1    4    4    0    0 -0.14100804953E+02  0.74520971909E+01  0.59253157200E+00  0.15959873011E+02  0.00000000000E+00 0. -1.
         -5    1    5    5    0  502  0.13955729640E+03 -0.65446061278E+02 -0.61417092932E+03  0.63323569573E+03  0.47000000000E+01 0.  1.
         13    1    6    6    0    0 -0.34792721986E+02 -0.55612572902E+02 -0.20323956803E+03  0.21356407419E+03  0.00000000000E+00 0. -1.
        -14    1    6    6    0    0  0.23037054210E+02 -0.37115374161E+01 -0.16174308950E+03  0.16341758895E+03  0.00000000000E+00 0.  1.
<mgrwt>
<rscale>  2 0.24830755E+03</rscale>
<asrwt>0</asrwt>
<pdfrwt beam="1">  1       21 0.68622239E-02 0.24859076E+03</pdfrwt>
<pdfrwt beam="2">  1       21 0.23404119E+00 0.24859076E+03</pdfrwt>
<totfact> 0.12378524E+04</totfact>
</mgrwt>
</event>
<event>
12    1  0.1050690E-001  0.2496188E+03  0.7546771E-02  0.1115542E+00
         21   -1    0    0  501  502  0.00000000000E+00  0.00000000000E+00  0.41937758030E+02  0.41937758030E+02  0.00000000000E+00 0. -1.
         21   -1    0    0  502  503 -0.00000000000E+00 -0.00000000000E+00 -0.18614811220E+04  0.18614811220E+04  0.00000000000E+00 0.  1.
         -6    2    1    2    0  503 -0.57562250356E+02  0.15137124751E+03 -0.13590732124E+04  0.13796419396E+04  0.17350855215E+03 0.  0.
        -24    2    3    3    0    0 -0.40077780927E+02  0.12237630090E+03 -0.57400556903E+03  0.59383044298E+03  0.81055623996E+02 0.  0.
          6    2    1    2  501    0  0.57562250356E+02 -0.15137124751E+03 -0.46047015158E+03  0.52377694041E+03  0.18995487774E+03 0.  0.
         24    2    5    5    0    0  0.29240698581E+02 -0.95774543145E+02 -0.11533765989E+03  0.17301829027E+03  0.81269744748E+02 0.  0.
          5    1    5    5  501    0  0.28321551775E+02 -0.55596704361E+02 -0.34513249168E+03  0.35075865014E+03  0.47000000000E+01 0. -1.
        -13    1    6    6    0    0  0.27653311708E+01 -0.60954644111E+02 -0.11394512341E+03  0.12925403995E+03  0.00000000000E+00 0.  1.
         14    1    6    6    0    0  0.26475367410E+02 -0.34819899034E+02 -0.13925364823E+01  0.43764250320E+02  0.00000000000E+00 0. -1.
         -5    1    3    3    0  503 -0.17484469429E+02  0.28994946610E+02 -0.78506764335E+03  0.78581149663E+03  0.47000000000E+01 0.  1.
         13    1    4    4    0    0 -0.26691841796E+02  0.32001770890E+02 -0.68844822897E+02  0.80474700362E+02  0.00000000000E+00 0. -1.
        -14    1    4    4    0    0 -0.13385939131E+02  0.90374530005E+02 -0.50516074614E+03  0.51335574262E+03  0.00000000000E+00 0.  1.
<mgrwt>
<rscale>  2 0.24649164E+03</rscale>
<asrwt>0</asrwt>
<pdfrwt beam="1">  1       21 0.64519636E-02 0.24961875E+03</pdfrwt>
<pdfrwt beam="2">  1       21 0.28638167E+00 0.24961875E+03</pdfrwt>
<totfact> 0.67369399E+03</totfact>
</mgrwt>
</event>
<event>
12    1  0.1050690E-001  0.3264006E+03  0.7546771E-02  0.1072949E+00
         21   -1    0    0  503  502  0.00000000000E+00  0.00000000000E+00  0.55911919862E+03  0.55911919862E+03  0.00000000000E+00 0. -1.
         21   -1    0    0  501  503 -0.00000000000E+00 -0.00000000000E+00 -0.25073422785E+03  0.25073422785E+03  0.00000000000E+00 0. -1.
          6    2    1    2  501    0  0.22383284513E+01 -0.27585265605E+03 -0.46300149786E+02  0.32783799714E+03  0.17098055601E+03 0.  0.
         24    2    3    3    0    0 -0.37756760122E+02 -0.78435889970E+02  0.90749808050E+01  0.11888469679E+03  0.80457778269E+02 0.  0.
         -6    2    1    2    0  502 -0.22383284513E+01  0.27585265605E+03  0.35468512056E+03  0.48201542934E+03  0.17446386849E+03 0.  0.
        -24    2    5    5    0    0  0.42019447392E+02  0.26387331908E+03  0.31751168077E+03  0.42280217185E+03  0.80952125431E+02 0.  0.
          5    1    3    3  501    0  0.39995088573E+02 -0.19741676608E+03 -0.55375130591E+02  0.20895330035E+03  0.47000000000E+01 0. -1.
        -11    1    4    4    0    0 -0.29551999544E+02 -0.95303388636E+02  0.77810126893E+01  0.10008296919E+03  0.00000000000E+00 0.  1.
         12    1    4    4    0    0 -0.82047605780E+01  0.16867498666E+02  0.12939681157E+01  0.18801727604E+02  0.00000000000E+00 0. -1.
         -5    1    5    5    0  502 -0.44257775843E+02  0.11979336966E+02  0.37173439793E+02  0.59213257492E+02  0.47000000000E+01 0.  1.
         11    1    6    6    0    0  0.60692017858E+02  0.16495509246E+03  0.17247675193E+03  0.24625582940E+03  0.00000000000E+00 0. -1.
        -12    1    6    6    0    0 -0.18672570466E+02  0.98918226618E+02  0.14503492884E+03  0.17654634244E+03  0.00000000000E+00 0.  1.
<mgrwt>
<rscale>  2 0.32593747E+03</rscale>
<asrwt>0</asrwt>
<pdfrwt beam="1">  1       21 0.86018338E-01 0.32640058E+03</pdfrwt>
<pdfrwt beam="2">  1       21 0.38574497E-01 0.32640058E+03</pdfrwt>
<totfact> 0.69968813E+03</totfact>
</mgrwt>
</event>
<event>
12    1  0.1050690E-001  0.1759210E+03  0.7546771E-02  0.1172462E+00
         21   -1    0    0  503  502  0.00000000000E+00  0.00000000000E+00  0.23968386386E+03  0.23968386386E+03  0.00000000000E+00 0.  1.
         21   -1    0    0  501  503 -0.00000000000E+00 -0.00000000000E+00 -0.12981066634E+03  0.12981066634E+03  0.00000000000E+00 0.  1.
          6    2    1    2  501    0 -0.29139924277E+02 -0.46806928398E+01  0.80613678688E+02  0.19115683680E+03  0.17079615626E+03 0.  0.
         24    2    3    3    0    0  0.43381503214E+02 -0.36670263270E+01  0.73754693569E+02  0.11815327085E+03  0.81394340621E+02 0.  0.
         -6    2    1    2    0  502  0.29139924277E+02  0.46806928398E+01  0.29259518838E+02  0.17833769340E+03  0.17342770647E+03 0.  0.
        -24    2    5    5    0    0  0.47803765440E+02 -0.21001966587E+02  0.77023855396E+02  0.12079240854E+03  0.77018498239E+02 0.  0.
          5    1    3    3  501    0 -0.72521427491E+02 -0.10136665128E+01  0.68589851196E+01  0.73003565954E+02  0.47000000000E+01 0. -1.
        -11    1    4    4    0    0  0.18919526888E+02  0.93524654252E+01  0.85492433459E+02  0.88058919400E+02  0.00000000000E+00 0.  1.
         12    1    4    4    0    0  0.24461976326E+02 -0.13019491752E+02 -0.11737739890E+02  0.30094351446E+02  0.00000000000E+00 0. -1.
         -5    1    5    5    0  502 -0.18663841163E+02  0.25682659427E+02 -0.47764336558E+02  0.57545284855E+02  0.47000000000E+01 0.  1.
         13    1    6    6    0    0  0.83974563844E+01  0.95766338196E+01  0.69128942627E+02  0.70292530882E+02  0.00000000000E+00 0. -1.
        -14    1    6    6    0    0  0.39406309056E+02 -0.30578600407E+02  0.78949127687E+01  0.50499877662E+02  0.00000000000E+00 0.  1.
<mgrwt>
<rscale>  2 0.17526900E+03</rscale>
<asrwt>0</asrwt>
<pdfrwt beam="1">  1       21 0.36874441E-01 0.17592104E+03</pdfrwt>
<pdfrwt beam="2">  1       21 0.19970872E-01 0.17592104E+03</pdfrwt>
<totfact> 0.16502866E+05</totfact>
</mgrwt>
</event>
<event>
11    1  0.1050690E-001  0.2348020E+03  0.7546771E-02  0.1123504E+00
         21   -1    0    0  503  502  0.00000000000E+00  0.00000000000E+00  0.93470613790E+03  0.93470613790E+03  0.00000000000E+00 0.  1.
         21   -1    0    0  501  503 -0.00000000000E+00 -0.00000000000E+00 -0.70871693662E+02  0.70871693662E+02  0.00000000000E+00 0. -1.
          6    2    1    2  501    0  0.15668714865E+03  0.86691856549E+01  0.22259831355E+03  0.32270466645E+03  0.17309614443E+03 0.  0.
         24    2    3    3    0    0  0.16574273880E+02  0.14662788332E+02  0.41555702683E+02  0.93649961409E+02  0.80955141469E+02 0.  0.
         -6    2    1    2    0  502 -0.15668714865E+03 -0.86691856549E+01  0.64123613069E+03  0.68287316512E+03  0.17465957462E+03 0.  0.
          5    1    3    3  501    0  0.14011287477E+03 -0.59936026766E+01  0.18104261087E+03  0.22905470504E+03  0.47000000000E+01 0. -1.
        -13    1    4    4    0    0  0.34139180151E+01 -0.15968315239E+02  0.55246919424E+02  0.57609582828E+02  0.00000000000E+00 0.  1.
         14    1    4    4    0    0  0.13160355865E+02  0.30631103570E+02 -0.13691216741E+02  0.36040378581E+02  0.00000000000E+00 0. -1.
         -5    1    5    5    0  502 -0.52873941974E+02 -0.45533364781E+02  0.26182472502E+03  0.27100409163E+03  0.47000000000E+01 0.  1.
         13    1    5    5    0    0  0.14948686430E+02  0.17447364537E+02  0.13433956026E+02  0.26614750229E+02  0.00000000000E+00 0. -1.
        -14    1    5    5    0    0 -0.11876189311E+03  0.19416814589E+02  0.36597744964E+03  0.38525432326E+03  0.00000000000E+00 0.  1.
<mgrwt>
<rscale>  2 0.23451131E+03</rscale>
<asrwt>0</asrwt>
<pdfrwt beam="1">  1       21 0.14380094E+00 0.23480201E+03</pdfrwt>
<pdfrwt beam="2">  1       21 0.10903338E-01 0.23480201E+03</pdfrwt>
<totfact> 0.22646938E+04</totfact>
</mgrwt>
</event>
<event>
12    1  0.1050690E-001  0.2081313E+03  0.7546771E-02  0.1145796E+00
         21   -1    0    0  501  502  0.00000000000E+00  0.00000000000E+00  0.46339770381E+02  0.46339770381E+02  0.00000000000E+00 0. -1.
         21   -1    0    0  502  503 -0.00000000000E+00 -0.00000000000E+00 -0.87638242201E+03  0.87638242201E+03  0.00000000000E+00 0. -1.
         -6    2    1    2    0  503 -0.71818268474E+02 -0.51748110196E+02 -0.42810779550E+03  0.47601986774E+03  0.18836905084E+03 0.  0.
        -24    2    3    3    0    0 -0.10249640539E+03 -0.90022684104E+02 -0.33690047805E+03  0.37235234221E+03  0.80837725522E+02 0.  0.
          6    2    1    2  501    0  0.71818268474E+02  0.51748110196E+02 -0.40193485612E+03  0.44670232465E+03  0.17365370046E+03 0.  0.
         24    2    5    5    0    0  0.62621573400E+02 -0.22456633701E+02 -0.29270756372E+03  0.31425001390E+03  0.93003180186E+02 0.  0.
          5    1    5    5  501    0  0.91966950738E+01  0.74204743897E+02 -0.10922729240E+03  0.13245231075E+03  0.47000000000E+01 0. -1.
        -13    1    6    6    0    0  0.15282378656E+02  0.49723033151E+01  0.40400261357E+00  0.16076010567E+02  0.00000000000E+00 0.  1.
         14    1    6    6    0    0  0.47339194745E+02 -0.27428937016E+02 -0.29311156634E+03  0.29817400334E+03  0.00000000000E+00 0. -1.
         -5    1    3    3    0  503  0.30678136913E+02  0.38274573908E+02 -0.91207317449E+02  0.10366752552E+03  0.47000000000E+01 0.  1.
         13    1    4    4    0    0 -0.37426172205E+02 -0.85232061329E+02 -0.18798308142E+03  0.20976859046E+03  0.00000000000E+00 0. -1.
        -14    1    4    4    0    0 -0.65070233182E+02 -0.47906227752E+01 -0.14891739663E+03  0.16258375175E+03  0.00000000000E+00 0.  1.
<mgrwt>
<rscale>  2 0.20474513E+03</rscale>
<asrwt>0</asrwt>
<pdfrwt beam="1">  1       21 0.71291958E-02 0.20813128E+03</pdfrwt>
<pdfrwt beam="2">  1       21 0.13482806E+00 0.20813128E+03</pdfrwt>
<totfact> 0.57290277E+04</totfact>
</mgrwt>
</event>
<event>
12    1  0.1050690E-001  0.1976532E+03  0.7546771E-02  0.1153475E+00
         21   -1    0    0  503  502  0.00000000000E+00  0.00000000000E+00  0.15822476546E+03  0.15822476546E+03  0.00000000000E+00 0.  1.
         21   -1    0    0  501  503 -0.00000000000E+00 -0.00000000000E+00 -0.24994971245E+03  0.24994971245E+03  0.00000000000E+00 0.  1.
          6    2    1    2  501    0  0.56135029264E+02 -0.54293197902E+02 -0.91279223634E+02  0.21052079092E+03  0.17288208089E+03 0.  0.
         24    2    3    3    0    0  0.17139099762E+02 -0.85668117314E+02 -0.10116321909E+03  0.15928748679E+03  0.86635624812E+02 0.  0.
         -6    2    1    2    0  502 -0.56135029264E+02  0.54293197902E+02 -0.44572334950E+00  0.19765368700E+03  0.18157061564E+03 0.  0.
        -24    2    5    5    0    0  0.18291567087E+02  0.39750495921E+02 -0.54125053278E+02  0.10462482649E+03  0.78116256781E+02 0.  0.
          5    1    3    3  501    0  0.38995929502E+02  0.31374919412E+02  0.98839954511E+01  0.51233304128E+02  0.47000000000E+01 0. -1.
        -13    1    4    4    0    0  0.29188162982E+02 -0.68167629333E+02 -0.22038048560E+02  0.77359227837E+02  0.00000000000E+00 0.  1.
         14    1    4    4    0    0 -0.12049063220E+02 -0.17500487981E+02 -0.79125170525E+02  0.81928258951E+02  0.00000000000E+00 0. -1.
         -5    1    5    5    0  502 -0.74426596350E+02  0.14542701981E+02  0.53679329928E+02  0.93028860504E+02  0.47000000000E+01 0.  1.
         11    1    6    6    0    0  0.19752361438E+02  0.59463129330E+02 -0.21061237940E+02  0.66102914275E+02  0.00000000000E+00 0. -1.
        -12    1    6    6    0    0 -0.14607943511E+01 -0.19712633409E+02 -0.33063815338E+02  0.38521912216E+02  0.00000000000E+00 0.  1.
<mgrwt>
<rscale>  2 0.19563485E+03</rscale>
<asrwt>0</asrwt>
<pdfrwt beam="1">  1       21 0.24342272E-01 0.19765318E+03</pdfrwt>
<pdfrwt beam="2">  1       21 0.38453802E-01 0.19765318E+03</pdfrwt>
<totfact> 0.10372313E+05</totfact>
</mgrwt>
</event>
<event>
12    1  0.1050690E-001  0.1870519E+03  0.7546771E-02  0.1161261E+00
         21   -1    0    0  501  502  0.00000000000E+00  0.00000000000E+00  0.51090599064E+03  0.51090599064E+03  0.00000000000E+00 0.  1.
         21   -1    0    0  502  503 -0.00000000000E+00 -0.00000000000E+00 -0.81034977925E+02  0.81034977925E+02  0.00000000000E+00 0. -1.
         -6    2    1    2    0  503 -0.66791281265E+02 -0.21337798152E+02  0.33201269538E+03  0.38083755530E+03  0.17288272543E+03 0.  0.
        -24    2    3    3    0    0 -0.11047650806E+03 -0.39057536933E+02  0.20424411565E+03  0.24456837996E+03  0.66086940272E+02 0.  0.
          6    2    1    2  501    0  0.66791281265E+02  0.21337798152E+02  0.97858317332E+02  0.21110341326E+03  0.17341287131E+03 0.  0.
         24    2    5    5    0    0  0.63130319388E+02 -0.50402062549E+02  0.72578348237E+02  0.13480677446E+03  0.79871425877E+02 0.  0.
          5    1    5    5  501    0  0.36609618768E+01  0.71739860701E+02  0.25279969095E+02  0.76296638803E+02  0.47000000000E+01 0. -1.
        -13    1    6    6    0    0  0.68680856090E+02 -0.13971329737E+02  0.68032341084E+02  0.97676289248E+02  0.00000000000E+00 0.  1.
         14    1    6    6    0    0 -0.55505367016E+01 -0.36430732812E+02  0.45460071530E+01  0.37130485210E+02  0.00000000000E+00 0. -1.
         -5    1    3    3    0  503  0.43685226791E+02  0.17719738781E+02  0.12776857973E+03  0.13626917534E+03  0.47000000000E+01 0.  1.
         11    1    4    4    0    0 -0.75049230631E+02 -0.31166753905E+01  0.76475489513E+02  0.10719422177E+03  0.00000000000E+00 0. -1.
        -12    1    4    4    0    0 -0.35427277425E+02 -0.35940861543E+02  0.12776862614E+03  0.13737415819E+03  0.00000000000E+00 0.  1.
<mgrwt>
<rscale>  2 0.18692890E+03</rscale>
<asrwt>0</asrwt>
<pdfrwt beam="1">  1       21 0.78600920E-01 0.18705187E+03</pdfrwt>
<pdfrwt beam="2">  1       21 0.12466920E-01 0.18705187E+03</pdfrwt>
<totfact> 0.78620592E+04</totfact>
</mgrwt>
</event>
<event>
12    1  0.1050690E-001  0.1810335E+03  0.7546771E-02  0.1167102E+00
         21   -1    0    0  501  502  0.00000000000E+00  0.00000000000E+00  0.27189842081E+03  0.27189842081E+03  0.00000000000E+00 0. -1.
         21   -1    0    0  502  503 -0.00000000000E+00 -0.00000000000E+00 -0.22394381545E+03  0.22394381545E+03  0.00000000000E+00 0. -1.
         -6    2    1    2    0  503  0.49851651276E+02  0.16446837740E+02 -0.14519900736E+03  0.23111321819E+03  0.17197349294E+03 0.  0.
        -24    2    3    3    0    0  0.79507906737E+02  0.53079271136E+02 -0.13166559612E+03  0.18185195669E+03  0.81211998452E+02 0.  0.
          6    2    1    2  501    0 -0.49851651276E+02 -0.16446837740E+02  0.19315361272E+03  0.26472901807E+03  0.17325544521E+03 0.  0.
         24    2    5    5    0    0 -0.50453678671E+02  0.24634836025E+02  0.19924489512E+03  0.22292877791E+03  0.82742147368E+02 0.  0.
          5    1    5    5  501    0  0.60202739511E+00 -0.41081673765E+02 -0.60912824004E+01  0.41800240162E+02  0.47000000000E+01 0. -1.
        -11    1    6    6    0    0 -0.67480276181E+01  0.48139177618E+02  0.77816264403E+02  0.91751225083E+02  0.00000000000E+00 0.  1.
         12    1    6    6    0    0 -0.43705651053E+02 -0.23504341593E+02  0.12142863072E+03  0.13117755283E+03  0.00000000000E+00 0. -1.
         -5    1    3    3    0  503 -0.29656255461E+02 -0.36632433395E+02 -0.13533411244E+02  0.49261261498E+02  0.47000000000E+01 0.  1.
         13    1    4    4    0    0  0.72181705916E+01  0.26731324555E+01 -0.78609341363E+02  0.78985290867E+02  0.00000000000E+00 0. -1.
        -14    1    4    4    0    0  0.72289736146E+02  0.50406138680E+02 -0.53056254753E+02  0.10286666582E+03  0.00000000000E+00 0.  1.
<mgrwt>
<rscale>  2 0.18072611E+03</rscale>
<asrwt>0</asrwt>
<pdfrwt beam="1">  1       21 0.41830526E-01 0.18103352E+03</pdfrwt>
<pdfrwt beam="2">  1       21 0.34452895E-01 0.18103352E+03</pdfrwt>
<totfact> 0.44917208E+04</totfact>
</mgrwt>
</event>
<event>
12    1  0.1050690E-001  0.1796303E+03  0.7546771E-02  0.1168240E+00
         21   -1    0    0  503  502  0.00000000000E+00  0.00000000000E+00  0.44198737908E+03  0.44198737908E+03  0.00000000000E+00 0. -1.
         21   -1    0    0  501  503 -0.00000000000E+00 -0.00000000000E+00 -0.99262186692E+02  0.99262186692E+02  0.00000000000E+00 0. -1.
          6    2    1    2  501    0 -0.31605069480E+02 -0.36061554551E+02  0.31713667005E+02  0.18209051392E+03  0.17277697315E+03 0.  0.
         24    2    3    3    0    0  0.23734143509E+02 -0.91097802159E+01  0.69092946641E+02  0.10992315855E+03  0.81627004398E+02 0.  0.
         -6    2    1    2    0  502  0.31605069480E+02  0.36061554551E+02  0.31101152538E+03  0.35915905185E+03  0.17311192759E+03 0.  0.
        -24    2    5    5    0    0  0.73997330446E+02 -0.68573700501E+01  0.25275576141E+03  0.27516523116E+03  0.79421666292E+02 0.  0.
          5    1    3    3  501    0 -0.55339212989E+02 -0.26951774335E+02 -0.37379279636E+02  0.72167355364E+02  0.47000000000E+01 0. -1.
        -13    1    4    4    0    0 -0.72342385153E+01 -0.19620054375E+02 -0.10843616970E+02  0.23555567698E+02  0.00000000000E+00 0.  1.
         14    1    4    4    0    0  0.30968382025E+02  0.10510274159E+02  0.79936563611E+02  0.86367590855E+02  0.00000000000E+00 0. -1.
         -5    1    5    5    0  502 -0.42392260966E+02  0.42918924601E+02  0.58255763976E+02  0.83993820696E+02  0.47000000000E+01 0.  1.
         11    1    6    6    0    0 -0.94571849943E+01  0.59795779554E+01  0.30898161234E+01  0.11607784639E+02  0.00000000000E+00 0. -1.
        -12    1    6    6    0    0  0.83454515440E+02 -0.12836948005E+02  0.24966594528E+03  0.26355744652E+03  0.00000000000E+00 0.  1.
<mgrwt>
<rscale>  2 0.17954958E+03</rscale>
<asrwt>0</asrwt>
<pdfrwt beam="1">  1       21 0.67998057E-01 0.17963033E+03</pdfrwt>
<pdfrwt beam="2">  1       21 0.15271106E-01 0.17963033E+03</pdfrwt>
<totfact> 0.75403079E+04</totfact>
</mgrwt>
</event>
<event>
12    1  0.1050690E-001  0.2527870E+03  0.7546771E-02  0.1111630E+00
         21   -1    0    0  503  502  0.00000000000E+00  0.00000000000E+00  0.29140983891E+02  0.29140983891E+02  0.00000000000E+00 0. -1.
         21   -1    0    0  501  503 -0.00000000000E+00 -0.00000000000E+00 -0.22018054865E+04  0.22018054865E+04  0.00000000000E+00 0.  1.
          6    2    1    2  501    0  0.15337857175E+03  0.10152495021E+03 -0.11732892031E+04  0.12002119819E+04  0.17340399535E+03 0.  0.
         24    2    3    3    0    0  0.12886105068E+03  0.41630645473E+02 -0.10419226893E+04  0.10536934250E+04  0.79552889991E+02 0.  0.
         -6    2    1    2    0  502 -0.15337857175E+03 -0.10152495021E+03 -0.99937529953E+03  0.10307344885E+04  0.17271448900E+03 0.  0.
        -24    2    5    5    0    0 -0.20451469212E+02 -0.65130795948E+02 -0.57622469049E+03  0.58568092209E+03  0.79542223987E+02 0.  0.
          5    1    3    3  501    0  0.24517521070E+02  0.59894304735E+02 -0.13136651378E+03  0.14651855692E+03  0.47000000000E+01 0. -1.
        -11    1    4    4    0    0  0.26593415391E+02  0.41159092783E+02 -0.48406821501E+03  0.48654220521E+03  0.00000000000E+00 0.  1.
         12    1    4    4    0    0  0.10226763528E+03  0.47155269029E+00 -0.55785447432E+03  0.56715121979E+03  0.00000000000E+00 0. -1.
         -5    1    5    5    0  502 -0.13292710253E+03 -0.36394154260E+02 -0.42315060904E+03  0.44505356642E+03  0.47000000000E+01 0.  1.
         11    1    6    6    0    0  0.45870983561E+01 -0.74567049126E+02 -0.35034282861E+03  0.35821974240E+03  0.00000000000E+00 0. -1.
        -12    1    6    6    0    0 -0.25038567568E+02  0.94362531773E+01 -0.22588186188E+03  0.22746117969E+03  0.00000000000E+00 0.  1.
<mgrwt>
<rscale>  2 0.25266876E+03</rscale>
<asrwt>0</asrwt>
<pdfrwt beam="1">  1       21 0.44832271E-02 0.25278696E+03</pdfrwt>
<pdfrwt beam="2">  1       21 0.33873940E+00 0.25278696E+03</pdfrwt>
<totfact> 0.61774648E+03</totfact>
</mgrwt>
</event>
<event>
12    1  0.1050690E-001  0.1749959E+03  0.7546771E-02  0.1172977E+00
         21   -1    0    0  503  502  0.00000000000E+00  0.00000000000E+00  0.12640350395E+04  0.12640350395E+04  0.00000000000E+00 0.  1.
         21   -1    0    0  501  503 -0.00000000000E+00 -0.00000000000E+00 -0.95825420400E+02  0.95825420400E+02  0.00000000000E+00 0.  1.
          6    2    1    2  501    0 -0.86279979233E+00  0.20147765437E+02 -0.45688835711E+01  0.17409784404E+03  0.17286557704E+03 0.  0.
         24    2    3    3    0    0 -0.58157442191E+02  0.34900345185E+02 -0.31258912854E+02  0.10902279260E+03  0.79426239351E+02 0.  0.
         -6    2    1    2    0  502  0.86279979233E+00 -0.20147765437E+02  0.11727785026E+04  0.11857626158E+04  0.17383005484E+03 0.  0.
        -24    2    5    5    0    0 -0.30495741314E+02  0.76993554720E+01  0.10858572910E+04  0.10891385646E+04  0.78405906384E+02 0.  0.
          5    1    3    3  501    0  0.57294642398E+02 -0.14752579748E+02  0.26690029283E+02  0.65075051440E+02  0.47000000000E+01 0. -1.
        -13    1    4    4    0    0  0.18363518523E+02 -0.29689282599E+01 -0.17319214051E+01  0.18682422202E+02  0.00000000000E+00 0.  1.
         14    1    4    4    0    0 -0.76520960714E+02  0.37869273445E+02 -0.29526991449E+02  0.90340370399E+02  0.00000000000E+00 0. -1.
         -5    1    5    5    0  502  0.31358541106E+02 -0.27847120909E+02  0.86921211602E+02  0.96624051197E+02  0.47000000000E+01 0.  1.
         11    1    6    6    0    0 -0.45989819371E+02  0.17557536699E+00  0.34159647320E+03  0.34467846584E+03  0.00000000000E+00 0. -1.
        -12    1    6    6    0    0  0.15494078057E+02  0.75237801050E+01  0.74426081783E+03  0.74446009879E+03  0.00000000000E+00 0.  1.
<mgrwt>
<rscale>  2 0.17475590E+03</rscale>
<asrwt>0</asrwt>
<pdfrwt beam="1">  1       21 0.19446692E+00 0.17499590E+03</pdfrwt>
<pdfrwt beam="2">  1       21 0.14742373E-01 0.17499590E+03</pdfrwt>
<totfact> 0.59999487E+03</totfact>
</mgrwt>
</event>
<event>
12    1  0.1050690E-001  0.1832895E+03  0.7546771E-02  0.1164920E+00
         21   -1    0    0  503  502  0.00000000000E+00  0.00000000000E+00  0.34298513429E+04  0.34298513429E+04  0.00000000000E+00 0.  1.
         21   -1    0    0  501  503 -0.00000000000E+00 -0.00000000000E+00 -0.25774830258E+02  0.25774830258E+02  0.00000000000E+00 0.  1.
          6    2    1    2  501    0  0.24434828720E+02  0.55797088603E+02  0.33710460333E+03  0.38318223706E+03  0.17169373100E+03 0.  0.
         24    2    3    3    0    0 -0.46038269090E+02  0.58614374572E+02  0.17778209384E+03  0.20888322202E+03  0.80439793781E+02 0.  0.
         -6    2    1    2    0  502 -0.24434828720E+02 -0.55797088603E+02  0.30669719093E+04  0.30724439361E+04  0.17287183688E+03 0.  0.
        -24    2    5    5    0    0 -0.76234490508E+02 -0.14940592660E+02  0.16456217064E+04  0.16495556947E+04  0.83236232751E+02 0.  0.
          5    1    3    3  501    0  0.70473097810E+02 -0.28172859696E+01  0.15932250949E+03  0.17429901505E+03  0.47000000000E+01 0. -1.
        -13    1    4    4    0    0 -0.26617983404E+02  0.48081939533E+02  0.17851020520E+03  0.18677870144E+03  0.00000000000E+00 0.  1.
         14    1    4    4    0    0 -0.19420285686E+02  0.10532435039E+02 -0.72811136128E+00  0.22104520581E+02  0.00000000000E+00 0. -1.
         -5    1    5    5    0  502  0.51799661789E+02 -0.40856495943E+02  0.14213502029E+04  0.14228882414E+04  0.47000000000E+01 0.  1.
         13    1    6    6    0    0 -0.19309539004E+02  0.22367571273E+02  0.18464601280E+03  0.18699549884E+03  0.00000000000E+00 0. -1.
        -14    1    6    6    0    0 -0.56924951504E+02 -0.37308163933E+02  0.14609756936E+04  0.14625601958E+04  0.00000000000E+00 0.  1.
<mgrwt>
<rscale>  2 0.18301120E+03</rscale>
<asrwt>0</asrwt>
<pdfrwt beam="1">  1       21 0.52766908E+00 0.18328952E+03</pdfrwt>
<pdfrwt beam="2">  1       21 0.39653612E-02 0.18328952E+03</pdfrwt>
<totfact> 0.48475792E+02</totfact>
</mgrwt>
</event>
<event>
12    1  0.1050690E-001  0.1971101E+03  0.7546771E-02  0.1152209E+00
         21   -1    0    0  501  502  0.00000000000E+00  0.00000000000E+00  0.47657604596E+03  0.47657604596E+03  0.00000000000E+00 0.  1.
         21   -1    0    0  502  503 -0.00000000000E+00 -0.00000000000E+00 -0.96107224637E+02  0.96107224637E+02  0.00000000000E+00 0.  1.
         -6    2    1    2    0  503  0.82806746890E+02  0.28905993179E+02  0.78649261387E+02  0.21222185336E+03  0.17652165577E+03 0.  0.
        -24    2    3    3    0    0  0.75382163857E+02 -0.17913349815E+02  0.10895280375E+03  0.15576328456E+03  0.79925769577E+02 0.  0.
          6    2    1    2  501    0 -0.82806746890E+02 -0.28905993179E+02  0.30181955994E+03  0.36046141724E+03  0.17647910013E+03 0.  0.
         24    2    5    5    0    0 -0.45747241769E+02 -0.88765971561E+02  0.21000619579E+03  0.24466673788E+03  0.76072350535E+02 0.  0.
          5    1    5    5  501    0 -0.37059505122E+02  0.59859978382E+02  0.91813364150E+02  0.11579467936E+03  0.47000000000E+01 0. -1.
        -13    1    6    6    0    0 -0.20073187206E+01  0.12758000907E+02  0.38616251081E+02  0.40718678308E+02  0.00000000000E+00 0.  1.
         14    1    6    6    0    0 -0.43739923048E+02 -0.10152397247E+03  0.17138994471E+03  0.20394805957E+03  0.00000000000E+00 0. -1.
         -5    1    3    3    0  503  0.74245830333E+01  0.46819342994E+02 -0.30303542364E+02  0.56458568804E+02  0.47000000000E+01 0.  1.
         13    1    4    4    0    0  0.69787734932E+02  0.71453041196E+01  0.10954301077E+03  0.13008095374E+03  0.00000000000E+00 0. -1.
        -14    1    4    4    0    0  0.55944289251E+01 -0.25058653935E+02 -0.59020701717E+00  0.25682330820E+02  0.00000000000E+00 0.  1.
<mgrwt>
<rscale>  2 0.19710062E+03</rscale>
<asrwt>0</asrwt>
<pdfrwt beam="1">  1       21 0.73319390E-01 0.19711014E+03</pdfrwt>
<pdfrwt beam="2">  1       21 0.14785727E-01 0.19711014E+03</pdfrwt>
<totfact> 0.67203331E+04</totfact>
</mgrwt>
</event>
<event>
12    1  0.1050690E-001  0.2238620E+03  0.7546771E-02  0.1131430E+00
         21   -1    0    0  503  502  0.00000000000E+00  0.00000000000E+00  0.15711944286E+04  0.15711944286E+04  0.00000000000E+00 0. -1.
         21   -1    0    0  501  503 -0.00000000000E+00 -0.00000000000E+00 -0.28783231165E+03  0.28783231165E+03  0.00000000000E+00 0. -1.
          6    2    1    2  501    0 -0.90252777687E+02 -0.10542753057E+03 -0.23568063689E+03  0.32357726172E+03  0.17290562054E+03 0.  0.
         24    2    3    3    0    0 -0.48749354381E+02 -0.47583096278E+02 -0.41045982436E+02  0.11627735472E+03  0.84823345510E+02 0.  0.
         -6    2    1    2    0  502  0.90252777687E+02  0.10542753057E+03  0.15190427539E+04  0.15354494786E+04  0.17565217063E+03 0.  0.
        -24    2    5    5    0    0  0.22561074788E+02  0.47395455781E+02  0.33563036164E+03  0.34867364951E+03  0.78550893574E+02 0.  0.
          5    1    3    3  501    0 -0.41503423306E+02 -0.57844434293E+02 -0.19463465446E+03  0.20729990699E+03  0.47000000000E+01 0. -1.
        -11    1    4    4    0    0 -0.95140212009E+01 -0.65111974139E+02 -0.25787387517E+02  0.70675845454E+02  0.00000000000E+00 0.  1.
         12    1    4    4    0    0 -0.39235333180E+02  0.17528877861E+02 -0.15258594919E+02  0.45601509270E+02  0.00000000000E+00 0. -1.
         -5    1    5    5    0  502  0.67691702899E+02  0.58032074790E+02  0.11834123922E+04  0.11867758291E+04  0.47000000000E+01 0.  1.
         13    1    6    6    0    0  0.51970471655E+02  0.30129368309E+02  0.22713419945E+03  0.23494393654E+03  0.00000000000E+00 0. -1.
        -14    1    6    6    0    0 -0.29409396867E+02  0.17266087472E+02  0.10849616219E+03  0.11372971296E+03  0.00000000000E+00 0.  1.
<mgrwt>
<rscale>  2 0.22332296E+03</rscale>
<asrwt>0</asrwt>
<pdfrwt beam="1">  1       21 0.24172221E+00 0.22386204E+03</pdfrwt>
<pdfrwt beam="2">  1       21 0.44281895E-01 0.22386204E+03</pdfrwt>
<totfact> 0.35032777E+02</totfact>
</mgrwt>
</event>
<event>
12    1  0.1050690E-001  0.2194621E+03  0.7546771E-02  0.1134336E+00
         21   -1    0    0  503  502  0.00000000000E+00  0.00000000000E+00  0.33097986175E+03  0.33097986175E+03  0.00000000000E+00 0. -1.
         21   -1    0    0  501  503 -0.00000000000E+00 -0.00000000000E+00 -0.14649884591E+03  0.14649884591E+03  0.00000000000E+00 0.  1.
          6    2    1    2  501    0  0.11256732001E+03 -0.73924386694E+02  0.11344141711E+03  0.24680525322E+03  0.17293831680E+03 0.  0.
         24    2    3    3    0    0  0.10367236943E+03 -0.41651756954E+02  0.14542010373E+03  0.20027172580E+03  0.80491791772E+02 0.  0.
         -6    2    1    2    0  502 -0.11256732001E+03  0.73924386694E+02  0.71039598726E+02  0.23067345444E+03  0.17328416406E+03 0.  0.
        -24    2    5    5    0    0 -0.67676543452E+02  0.49273014852E+02  0.11434232729E+03  0.16344185283E+03  0.81431731653E+02 0.  0.
          5    1    3    3  501    0  0.88949505791E+01 -0.32272629740E+02 -0.31978686623E+02  0.46533527421E+02  0.47000000000E+01 0. -1.
        -13    1    4    4    0    0  0.10428213208E+03 -0.49775670727E+02  0.96124143991E+02  0.15030712400E+03  0.00000000000E+00 0.  1.
         14    1    4    4    0    0 -0.60976265070E+00  0.81239137737E+01  0.49295959743E+02  0.49964601794E+02  0.00000000000E+00 0. -1.
         -5    1    5    5    0  502 -0.44890776556E+02  0.24651371842E+02 -0.43302728567E+02  0.67231601608E+02  0.47000000000E+01 0.  1.
         13    1    6    6    0    0 -0.77018156523E+02  0.34226285326E+02  0.52921232329E+02  0.99518299185E+02  0.00000000000E+00 0. -1.
        -14    1    6    6    0    0  0.93416130719E+01  0.15046729526E+02  0.61421094963E+02  0.63923553646E+02  0.00000000000E+00 0.  1.
<mgrwt>
<rscale>  2 0.21939384E+03</rscale>
<asrwt>0</asrwt>
<pdfrwt beam="1">  1       21 0.50919979E-01 0.21946211E+03</pdfrwt>
<pdfrwt beam="2">  1       21 0.22538284E-01 0.21946211E+03</pdfrwt>
<totfact> 0.66852237E+04</totfact>
</mgrwt>
</event>
<event>
12    1  0.1050690E-001  0.1970289E+03  0.7546771E-02  0.1153124E+00
         21   -1    0    0  501  502  0.00000000000E+00  0.00000000000E+00  0.21477563074E+04  0.21477563074E+04  0.00000000000E+00 0. -1.
         21   -1    0    0  502  503 -0.00000000000E+00 -0.00000000000E+00 -0.74066026426E+02  0.74066026426E+02  0.00000000000E+00 0. -1.
         -6    2    1    2    0  503  0.51716051382E+02  0.69716362492E+02  0.70372064333E+02  0.20921910558E+03  0.17687703505E+03 0.  0.
        -24    2    3    3    0    0 -0.31230382906E+02  0.70467203504E+02  0.52376672628E+02  0.12420970112E+03  0.82120462924E+02 0.  0.
          6    2    1    2  501    0 -0.51716051382E+02 -0.69716362492E+02  0.20033182167E+04  0.20126032283E+04  0.17249045213E+03 0.  0.
         24    2    5    5    0    0  0.10321431952E+02  0.20629567921E+02  0.55368993959E+03  0.55883045780E+03  0.72019582975E+02 0.  0.
          5    1    5    5  501    0 -0.62037483334E+02 -0.90345930413E+02  0.14496282771E+04  0.14537727705E+04  0.47000000000E+01 0. -1.
        -13    1    6    6    0    0  0.38358103581E+02 -0.98290616158E+00  0.22602652373E+03  0.22926033160E+03  0.00000000000E+00 0.  1.
         14    1    6    6    0    0 -0.28036671629E+02  0.21612474083E+02  0.32766341586E+03  0.32957012620E+03  0.00000000000E+00 0. -1.
         -5    1    3    3    0  503  0.82946434287E+02 -0.75084101176E+00  0.17995391706E+02  0.85009404455E+02  0.47000000000E+01 0.  1.
         11    1    4    4    0    0 -0.14577981240E+02  0.45874251410E+01 -0.19843971106E+02  0.25046859997E+02  0.00000000000E+00 0. -1.
        -12    1    4    4    0    0 -0.16652401666E+02  0.65879778363E+02  0.72220643734E+02  0.99162841123E+02  0.00000000000E+00 0.  1.
<mgrwt>
<rscale>  2 0.19603946E+03</rscale>
<asrwt>0</asrwt>
<pdfrwt beam="1">  1       21 0.33042400E+00 0.19702895E+03</pdfrwt>
<pdfrwt beam="2">  1       21 0.11394775E-01 0.19702895E+03</pdfrwt>
<totfact> 0.14568647E+03</totfact>
</mgrwt>
</event>
<event>
12    1  0.1050690E-001  0.2089285E+03  0.7546771E-02  0.1142461E+00
         21   -1    0    0  501  502  0.00000000000E+00  0.00000000000E+00  0.88124559524E+03  0.88124559524E+03  0.00000000000E+00 0. -1.
         21   -1    0    0  502  503 -0.00000000000E+00 -0.00000000000E+00 -0.50857649722E+02  0.50857649722E+02  0.00000000000E+00 0.  1.
         -6    2    1    2    0  503  0.88479188480E+02  0.71882396140E+02  0.49205688310E+03  0.53457562913E+03  0.17508706801E+03 0.  0.
        -24    2    3    3    0    0  0.61317261031E+02  0.70624897693E+02  0.49094789186E+03  0.50695912199E+03  0.85029619336E+02 0.  0.
          6    2    1    2  501    0 -0.88479188480E+02 -0.71882396140E+02  0.33833106242E+03  0.39752761583E+03  0.17482749179E+03 0.  0.
         24    2    5    5    0    0 -0.11856760798E+03 -0.36586904479E+02  0.18468680493E+03  0.23696693391E+03  0.81530562430E+02 0.  0.
          5    1    5    5  501    0  0.30088419504E+02 -0.35295491661E+02  0.15364425749E+03  0.16056068192E+03  0.47000000000E+01 0. -1.
        -13    1    6    6    0    0 -0.44472865566E+02 -0.27522782058E+02  0.19715463050E+02  0.55893101427E+02  0.00000000000E+00 0.  1.
         14    1    6    6    0    0 -0.74094742418E+02 -0.90641224210E+01  0.16497134188E+03  0.18107383248E+03  0.00000000000E+00 0. -1.
         -5    1    3    3    0  503  0.27161927449E+02  0.12574984473E+01  0.11089912329E+01  0.27616507140E+02  0.47000000000E+01 0.  1.
         13    1    4    4    0    0  0.26569306497E+02 -0.27648021216E+01  0.27423964166E+03  0.27553757137E+03  0.00000000000E+00 0. -1.
        -14    1    4    4    0    0  0.34747954534E+02  0.73389699814E+02  0.21670825021E+03  0.23142155062E+03  0.00000000000E+00 0.  1.
<mgrwt>
<rscale>  2 0.20887413E+03</rscale>
<asrwt>0</asrwt>
<pdfrwt beam="1">  1       21 0.13557623E+00 0.20892852E+03</pdfrwt>
<pdfrwt beam="2">  1       21 0.78242544E-02 0.20892852E+03</pdfrwt>
<totfact> 0.48039095E+04</totfact>
</mgrwt>
</event>
<event>
12    1  0.1050690E-001  0.2317756E+03  0.7546771E-02  0.1125831E+00
         21   -1    0    0  503  502  0.00000000000E+00  0.00000000000E+00  0.22040167057E+04  0.22040167057E+04  0.00000000000E+00 0.  1.
         21   -1    0    0  501  503 -0.00000000000E+00 -0.00000000000E+00 -0.31715780450E+02  0.31715780450E+02  0.00000000000E+00 0. -1.
          6    2    1    2  501    0 -0.47174428167E+02 -0.14672229881E+03  0.16378956368E+04  0.16542134187E+04  0.17310995933E+03 0.  0.
         24    2    3    3    0    0 -0.74418884277E+02 -0.15938798918E+03  0.12263043896E+04  0.12415002921E+04  0.80980355413E+02 0.  0.
         -6    2    1    2    0  502  0.47174428167E+02  0.14672229881E+03  0.53440528848E+03  0.58151906745E+03  0.16977206428E+03 0.  0.
        -24    2    5    5    0    0  0.82496029966E+02  0.45824402472E+02  0.29650293201E+03  0.32065967572E+03  0.77480114350E+02 0.  0.
          5    1    3    3  501    0  0.27244456109E+02  0.12665690367E+02  0.41159124723E+03  0.41271312663E+03  0.47000000000E+01 0. -1.
        -11    1    4    4    0    0 -0.35306876576E+01 -0.42601584350E+02  0.54253161458E+03  0.54421311410E+03  0.00000000000E+00 0.  1.
         12    1    4    4    0    0 -0.70888196619E+02 -0.11678640483E+03  0.68377277498E+03  0.69728717798E+03  0.00000000000E+00 0. -1.
         -5    1    5    5    0  502 -0.35321601799E+02  0.10089789634E+03  0.23790235647E+03  0.26085939173E+03  0.47000000000E+01 0.  1.
         13    1    6    6    0    0  0.91107858367E+01  0.10042079555E+01  0.15364710829E+03  0.15392026747E+03  0.00000000000E+00 0. -1.
        -14    1    6    6    0    0  0.73385244130E+02  0.44820194516E+02  0.14285582372E+03  0.16673940825E+03  0.00000000000E+00 0.  1.
<mgrwt>
<rscale>  2 0.23115250E+03</rscale>
<asrwt>0</asrwt>
<pdfrwt beam="1">  1       21 0.33907937E+00 0.23177558E+03</pdfrwt>
<pdfrwt beam="2">  1       21 0.48793526E-02 0.23177558E+03</pdfrwt>
<totfact> 0.54342740E+03</totfact>
</mgrwt>
</event>
<event>
12    1  0.1050690E-001  0.1772990E+03  0.7546771E-02  0.1170596E+00
         21   -1    0    0  501  502  0.00000000000E+00  0.00000000000E+00  0.18733994468E+03  0.18733994468E+03  0.00000000000E+00 0. -1.
         21   -1    0    0  502  503 -0.00000000000E+00 -0.00000000000E+00 -0.45998817598E+03  0.45998817598E+03  0.00000000000E+00 0. -1.
         -6    2    1    2    0  503  0.42718390736E+02  0.34875931618E+01 -0.39445759942E+03  0.43221781295E+03  0.17140132986E+03 0.  0.
        -24    2    3    3    0    0  0.84769665184E+02  0.52231330586E+01 -0.17710691750E+03  0.21077994195E+03  0.76473174694E+02 0.  0.
          6    2    1    2  501    0 -0.42718390736E+02 -0.34875931618E+01  0.12180936812E+03  0.21511030771E+03  0.17204039673E+03 0.  0.
         24    2    5    5    0    0  0.26081293395E+02 -0.30889338730E+02  0.10700642923E+03  0.13944347749E+03  0.79747867708E+02 0.  0.
          5    1    5    5  501    0 -0.68799684131E+02  0.27401745568E+02  0.14802938892E+02  0.75666830226E+02  0.47000000000E+01 0. -1.
        -11    1    6    6    0    0  0.10468834209E+02 -0.21334081446E+02 -0.63666024235E+01  0.24602299634E+02  0.00000000000E+00 0.  1.
         12    1    6    6    0    0  0.15612459186E+02 -0.95552572833E+01  0.11337303166E+03  0.11484117785E+03  0.00000000000E+00 0. -1.
         -5    1    3    3    0  503 -0.42051274449E+02 -0.17355398968E+01 -0.21735068193E+03  0.22143787101E+03  0.47000000000E+01 0.  1.
         13    1    4    4    0    0  0.40072475766E+02  0.20969966409E+02 -0.14893015649E+03  0.15564618311E+03  0.00000000000E+00 0. -1.
        -14    1    4    4    0    0  0.44697189419E+02 -0.15746833351E+02 -0.28176761007E+02  0.55133758836E+02  0.00000000000E+00 0.  1.
<mgrwt>
<rscale>  2 0.17714375E+03</rscale>
<asrwt>0</asrwt>
<pdfrwt beam="1">  1       21 0.28821530E-01 0.17729896E+03</pdfrwt>
<pdfrwt beam="2">  1       21 0.70767411E-01 0.17729896E+03</pdfrwt>
<totfact> 0.21029886E+04</totfact>
</mgrwt>
</event>
<event>
12    1  0.1050690E-001  0.1773765E+03  0.7546771E-02  0.1170573E+00
         21   -1    0    0  503  502  0.00000000000E+00  0.00000000000E+00  0.13823562585E+03  0.13823562585E+03  0.00000000000E+00 0.  1.
         21   -1    0    0  501  503 -0.00000000000E+00 -0.00000000000E+00 -0.39329123553E+03  0.39329123553E+03  0.00000000000E+00 0.  1.
          6    2    1    2  501    0  0.14915876005E+02  0.35439868221E+02 -0.30075832394E+03  0.34916755864E+03  0.17315873347E+03 0.  0.
         24    2    3    3    0    0  0.77691037784E+02  0.27605988915E+02 -0.16590793122E+03  0.20014135619E+03  0.75717454001E+02 0.  0.
         -6    2    1    2    0  502 -0.14915876005E+02 -0.35439868221E+02  0.45702714258E+02  0.18235930273E+03  0.17230121760E+03 0.  0.
        -24    2    5    5    0    0 -0.57329703888E+02  0.67238427342E+00 -0.15241885255E+02  0.99658868721E+02  0.80077637329E+02 0.  0.
          5    1    3    3  501    0 -0.62775161780E+02  0.78338793065E+01 -0.13485039272E+03  0.14902620245E+03  0.47000000000E+01 0. -1.
        -13    1    4    4    0    0  0.81984988982E+01  0.40432949537E+02 -0.59325162012E+02  0.72260041795E+02  0.00000000000E+00 0.  1.
         14    1    4    4    0    0  0.69492538886E+02 -0.12826960622E+02 -0.10658276921E+03  0.12788131440E+03  0.00000000000E+00 0. -1.
         -5    1    5    5    0  502  0.42413827883E+02 -0.36112252495E+02  0.60944599513E+02  0.82700434012E+02  0.47000000000E+01 0.  1.
         13    1    6    6    0    0  0.19440290624E+00  0.30115403621E+02  0.77019704745E+01  0.31085296797E+02  0.00000000000E+00 0. -1.
        -14    1    6    6    0    0 -0.57524106794E+02 -0.29443019348E+02 -0.22943855730E+02  0.68573571925E+02  0.00000000000E+00 0.  1.
<mgrwt>
<rscale>  2 0.17716685E+03</rscale>
<asrwt>0</asrwt>
<pdfrwt beam="1">  1       21 0.21267020E-01 0.17737648E+03</pdfrwt>
<pdfrwt beam="2">  1       21 0.60506343E-01 0.17737648E+03</pdfrwt>
<totfact> 0.52734718E+04</totfact>
</mgrwt>
</event>
<event>
12    1  0.1050690E-001  0.1925701E+03  0.7546771E-02  0.1156383E+00
         21   -1    0    0  501  502  0.00000000000E+00  0.00000000000E+00  0.11159678365E+04  0.11159678365E+04  0.00000000000E+00 0. -1.
         21   -1    0    0  502  503 -0.00000000000E+00 -0.00000000000E+00 -0.84227639849E+02  0.84227639849E+02  0.00000000000E+00 0.  1.
         -6    2    1    2    0  503  0.56367338406E+02  0.61622456977E+02  0.47620127431E+02  0.19741157629E+03  0.17242114103E+03 0.  0.
        -24    2    3    3    0    0  0.54508500542E+02  0.15249237513E+02  0.91183293876E+02  0.13358548262E+03  0.79542266812E+02 0.  0.
          6    2    1    2  501    0 -0.56367338406E+02 -0.61622456977E+02  0.98412006924E+03  0.10027839001E+04  0.17351840116E+03 0.  0.
         24    2    5    5    0    0 -0.32980667312E+02 -0.21747313631E+02  0.22339077059E+03  0.24063685438E+03  0.80262003690E+02 0.  0.
          5    1    5    5  501    0 -0.23386671093E+02 -0.39875143346E+02  0.76072929865E+03  0.76214704570E+03  0.47000000000E+01 0. -1.
        -13    1    6    6    0    0  0.23689422612E+02 -0.25334180975E+01  0.30647416822E+02  0.38818437743E+02  0.00000000000E+00 0.  1.
         14    1    6    6    0    0 -0.56670089925E+02 -0.19213895533E+02  0.19274335377E+03  0.20181841664E+03  0.00000000000E+00 0. -1.
         -5    1    3    3    0  503  0.18588378641E+01  0.46373219464E+02 -0.43563166445E+02  0.63826093664E+02  0.47000000000E+01 0.  1.
         11    1    4    4    0    0  0.12260310889E+02 -0.91360297077E+01  0.82664425859E+02  0.84066578166E+02  0.00000000000E+00 0. -1.
        -12    1    4    4    0    0  0.42248189653E+02  0.24385267220E+02  0.85188680163E+01  0.49518904457E+02  0.00000000000E+00 0.  1.
<mgrwt>
<rscale>  2 0.19232259E+03</rscale>
<asrwt>0</asrwt>
<pdfrwt beam="1">  1       21 0.17168735E+00 0.19257009E+03</pdfrwt>
<pdfrwt beam="2">  1       21 0.12958099E-01 0.19257009E+03</pdfrwt>
<totfact> 0.10617681E+04</totfact>
</mgrwt>
</event>
<event>
12    1  0.1050690E-001  0.2851714E+03  0.7546771E-02  0.1093138E+00
         21   -1    0    0  503  502  0.00000000000E+00  0.00000000000E+00  0.71901175220E+02  0.71901175220E+02  0.00000000000E+00 0. -1.
         21   -1    0    0  501  503 -0.00000000000E+00 -0.00000000000E+00 -0.11565094372E+04  0.11565094372E+04  0.00000000000E+00 0.  1.
          6    2    1    2  501    0 -0.17720893900E+03  0.13625234997E+03 -0.64709023587E+03  0.70714109541E+03  0.17707355682E+03 0.  0.
         24    2    3    3    0    0 -0.45412860896E+02  0.77879020587E+02 -0.16725218120E+03  0.20609788320E+03  0.79847201345E+02 0.  0.
         -6    2    1    2    0  502  0.17720893900E+03 -0.13625234997E+03 -0.43751802611E+03  0.52126951701E+03  0.17416134834E+03 0.  0.
        -24    2    5    5    0    0  0.69853586613E+02 -0.12293044833E+03 -0.18233838224E+03  0.24406672951E+03  0.79560443226E+02 0.  0.
          5    1    3    3  501    0 -0.13179607811E+03  0.58373329387E+02 -0.47983805468E+03  0.50104321221E+03  0.47000000000E+01 0. -1.
        -13    1    4    4    0    0 -0.14006358828E+02  0.49895240683E+02 -0.15323145931E+03  0.16175782285E+03  0.00000000000E+00 0.  1.
         14    1    4    4    0    0 -0.31406502068E+02  0.27983779905E+02 -0.14020721887E+02  0.44340060354E+02  0.00000000000E+00 0. -1.
         -5    1    5    5    0  502  0.10735535239E+03 -0.13321901641E+02 -0.25517964387E+03  0.27720278750E+03  0.47000000000E+01 0.  1.
         11    1    6    6    0    0  0.47659179531E+02 -0.13030981989E+03 -0.15893326090E+03  0.21097826422E+03  0.00000000000E+00 0. -1.
        -12    1    6    6    0    0  0.22194407082E+02  0.73793715572E+01 -0.23405121332E+02  0.33088465284E+02  0.00000000000E+00 0.  1.
<mgrwt>
<rscale>  2 0.28472061E+03</rscale>
<asrwt>0</asrwt>
<pdfrwt beam="1">  1       21 0.11061720E-01 0.28517145E+03</pdfrwt>
<pdfrwt beam="2">  1       21 0.17792452E+00 0.28517145E+03</pdfrwt>
<totfact> 0.12007734E+04</totfact>
</mgrwt>
</event>
<event>
12    1  0.1050690E-001  0.1973610E+03  0.7546771E-02  0.1156179E+00
         21   -1    0    0  503  502  0.00000000000E+00  0.00000000000E+00  0.14148833982E+02  0.14148833982E+02  0.00000000000E+00 0.  1.
         21   -1    0    0  501  503 -0.00000000000E+00 -0.00000000000E+00 -0.25461556964E+04  0.25461556964E+04  0.00000000000E+00 0.  1.
          6    2    1    2  501    0 -0.16552566921E+02  0.35435412801E+02 -0.10333345507E+04  0.10486927846E+04  0.17448956113E+03 0.  0.
         24    2    3    3    0    0  0.45693907560E+02  0.26728146318E+01 -0.36273369125E+03  0.37439640016E+03  0.80634090585E+02 0.  0.
         -6    2    1    2    0  502  0.16552566921E+02 -0.35435412801E+02 -0.14986723117E+04  0.15116117457E+04  0.19344693326E+03 0.  0.
        -24    2    5    5    0    0 -0.35987493766E+02  0.38870645483E+02 -0.10175618527E+04  0.10219473586E+04  0.78347002789E+02 0.  0.
          5    1    3    3  501    0 -0.62246474482E+02  0.32762598169E+02 -0.67060085945E+03  0.67429638448E+03  0.47000000000E+01 0. -1.
        -11    1    4    4    0    0  0.20277755691E+02  0.76870722456E+01 -0.16639693482E+02  0.27334188387E+02  0.00000000000E+00 0.  1.
         12    1    4    4    0    0  0.25416151869E+02 -0.50142576138E+01 -0.34609399776E+03  0.34706221178E+03  0.00000000000E+00 0. -1.
         -5    1    5    5    0  502  0.52540060687E+02 -0.74306058284E+02 -0.48111045900E+03  0.48966438714E+03  0.47000000000E+01 0.  1.
         11    1    6    6    0    0  0.55720257304E+01  0.16099050912E+02 -0.43258480402E+02  0.46492182544E+02  0.00000000000E+00 0. -1.
        -12    1    6    6    0    0 -0.41559519496E+02  0.22771594572E+02 -0.97430337230E+03  0.97545517604E+03  0.00000000000E+00 0.  1.
<mgrwt>
<rscale>  2 0.19255265E+03</rscale>
<asrwt>0</asrwt>
<pdfrwt beam="1">  1       21 0.21767474E-02 0.19736102E+03</pdfrwt>
<pdfrwt beam="2">  1       21 0.39171560E+00 0.19736102E+03</pdfrwt>
<totfact> 0.10449341E+04</totfact>
</mgrwt>
</event>
<event>
12    1  0.1050690E-001  0.2050275E+03  0.7546771E-02  0.1147309E+00
         21   -1    0    0  503  502  0.00000000000E+00  0.00000000000E+00  0.43750954602E+02  0.43750954602E+02  0.00000000000E+00 0. -1.
         21   -1    0    0  501  503 -0.00000000000E+00 -0.00000000000E+00 -0.11285306005E+04  0.11285306005E+04  0.00000000000E+00 0. -1.
          6    2    1    2  501    0 -0.71303882392E+02  0.86362996995E+02 -0.80225695623E+03  0.82804136493E+03  0.17173662194E+03 0.  0.
         24    2    3    3    0    0 -0.34695042810E+02  0.12275404503E+03 -0.54645087565E+03  0.56703685084E+03  0.81547097691E+02 0.  0.
         -6    2    1    2    0  502  0.71303882392E+02 -0.86362996995E+02 -0.28252268971E+03  0.34424019022E+03  0.16167692311E+03 0.  0.
        -24    2    5    5    0    0  0.70283772031E+02 -0.19683514015E+02 -0.92578028753E+02  0.14287420922E+03  0.80716162687E+02 0.  0.
          5    1    3    3  501    0 -0.36608839582E+02 -0.36391048036E+02 -0.25580608059E+03  0.26100451409E+03  0.47000000000E+01 0. -1.
        -11    1    4    4    0    0  0.22872410517E+02  0.68432570993E+02 -0.25049952119E+03  0.26068405024E+03  0.00000000000E+00 0.  1.
         12    1    4    4    0    0 -0.57567453327E+02  0.54321474038E+02 -0.29595135446E+03  0.30635280059E+03  0.00000000000E+00 0. -1.
         -5    1    5    5    0  502  0.10201103608E+01 -0.66679482980E+02 -0.18994466096E+03  0.20136598100E+03  0.47000000000E+01 0.  1.
         11    1    6    6    0    0  0.88277442824E+02 -0.14681055983E+02 -0.82178313217E+02  0.12149780031E+03  0.00000000000E+00 0. -1.
        -12    1    6    6    0    0 -0.17993670793E+02 -0.50024580323E+01 -0.10399715536E+02  0.21376408917E+02  0.00000000000E+00 0.  1.
<mgrwt>
<rscale>  2 0.20290747E+03</rscale>
<asrwt>0</asrwt>
<pdfrwt beam="1">  1       21 0.67309156E-02 0.20502751E+03</pdfrwt>
<pdfrwt beam="2">  1       21 0.17362011E+00 0.20502751E+03</pdfrwt>
<totfact> 0.32320716E+04</totfact>
</mgrwt>
</event>
<event>
12    1  0.1050690E-001  0.2108302E+03  0.7546771E-02  0.1140985E+00
         21   -1    0    0  503  502  0.00000000000E+00  0.00000000000E+00  0.16492118563E+03  0.16492118563E+03  0.00000000000E+00 0.  1.
         21   -1    0    0  501  503 -0.00000000000E+00 -0.00000000000E+00 -0.37734339353E+03  0.37734339353E+03  0.00000000000E+00 0. -1.
          6    2    1    2  501    0 -0.10937777816E+03 -0.48327382964E+02  0.39117098807E+02  0.21405520271E+03  0.17317750456E+03 0.  0.
         24    2    3    3    0    0 -0.60247304722E+01 -0.79603641364E+02  0.37783730361E+02  0.10596299819E+03  0.58544936671E+02 0.  0.
         -6    2    1    2    0  502  0.10937777816E+03  0.48327382964E+02 -0.25153930671E+03  0.32820937646E+03  0.17363852590E+03 0.  0.
        -24    2    5    5    0    0  0.32093760576E+02  0.81543831804E+02 -0.18833340825E+03  0.22288498495E+03  0.80801224491E+02 0.  0.
          5    1    3    3  501    0 -0.10335304769E+03  0.31276258399E+02  0.13333684462E+01  0.10809220452E+03  0.47000000000E+01 0. -1.
        -11    1    4    4    0    0  0.12712405300E+02 -0.44344981093E+02  0.46056880227E+02  0.65186799376E+02  0.00000000000E+00 0.  1.
         12    1    4    4    0    0 -0.18737135772E+02 -0.35258660271E+02 -0.82731498661E+01  0.40776198814E+02  0.00000000000E+00 0. -1.
         -5    1    5    5    0  502  0.77284017583E+02 -0.33216448840E+02 -0.63205898456E+02  0.10532439151E+03  0.47000000000E+01 0.  1.
         11    1    6    6    0    0  0.12405290505E+02  0.85560560382E+02 -0.99527289441E+02  0.13183391851E+03  0.00000000000E+00 0. -1.
        -12    1    6    6    0    0  0.19688470071E+02 -0.40167285775E+01 -0.88806118813E+02  0.91051066445E+02  0.00000000000E+00 0.  1.
<mgrwt>
<rscale>  2 0.21073525E+03</rscale>
<asrwt>0</asrwt>
<pdfrwt beam="1">  1       21 0.25372490E-01 0.21083020E+03</pdfrwt>
<pdfrwt beam="2">  1       21 0.58052829E-01 0.21083020E+03</pdfrwt>
<totfact> 0.40570118E+04</totfact>
</mgrwt>
</event>
<event>
12    1  0.1050690E-001  0.2353181E+03  0.7546771E-02  0.1123006E+00
         21   -1    0    0  503  502  0.00000000000E+00  0.00000000000E+00  0.48999556907E+03  0.48999556907E+03  0.00000000000E+00 0. -1.
         21   -1    0    0  501  503 -0.00000000000E+00 -0.00000000000E+00 -0.12922109663E+03  0.12922109663E+03  0.00000000000E+00 0. -1.
          6    2    1    2  501    0 -0.24499747025E+02 -0.15775498966E+03  0.70101932221E+02  0.24523121783E+03  0.17244475907E+03 0.  0.
         24    2    3    3    0    0 -0.19391155854E+02 -0.21801313039E+02  0.53862637922E+02  0.10813524937E+03  0.89110797414E+02 0.  0.
         -6    2    1    2    0  502  0.24499747025E+02  0.15775498966E+03  0.29067254022E+03  0.37398544787E+03  0.17288063863E+03 0.  0.
        -24    2    5    5    0    0 -0.23426707731E+02  0.74239642704E+02  0.24050179544E+03  0.26530724456E+03  0.80538718780E+02 0.  0.
          5    1    3    3  501    0 -0.51085911713E+01 -0.13595367662E+03  0.16239294298E+02  0.13709596846E+03  0.47000000000E+01 0. -1.
        -11    1    4    4    0    0  0.15416362745E+02 -0.99240903676E+01  0.66705451592E+02  0.69179253263E+02  0.00000000000E+00 0.  1.
         12    1    4    4    0    0 -0.34807518599E+02 -0.11877222672E+02 -0.12842813670E+02  0.38955996102E+02  0.00000000000E+00 0. -1.
         -5    1    5    5    0  502  0.47926454756E+02  0.83515346954E+02  0.50170744782E+02  0.10867820331E+03  0.47000000000E+01 0.  1.
         13    1    6    6    0    0  0.21202550130E+02  0.57455140693E+02  0.10369767485E+03  0.12043192722E+03  0.00000000000E+00 0. -1.
        -14    1    6    6    0    0 -0.44629257861E+02  0.16784502011E+02  0.13680412059E+03  0.14487531734E+03  0.00000000000E+00 0.  1.
<mgrwt>
<rscale>  2 0.23523801E+03</rscale>
<asrwt>0</asrwt>
<pdfrwt beam="1">  1       21 0.75383933E-01 0.23531806E+03</pdfrwt>
<pdfrwt beam="2">  1       21 0.19880169E-01 0.23531806E+03</pdfrwt>
<totfact> 0.35912548E+04</totfact>
</mgrwt>
</event>
<event>
12    1  0.1050690E-001  0.2514584E+03  0.7546771E-02  0.1112423E+00
         21   -1    0    0  501  502  0.00000000000E+00  0.00000000000E+00  0.31829690534E+03  0.31829690534E+03  0.00000000000E+00 0. -1.
         21   -1    0    0  502  503 -0.00000000000E+00 -0.00000000000E+00 -0.19879433349E+03  0.19879433349E+03  0.00000000000E+00 0. -1.
         -6    2    1    2    0  503  0.25109706964E+02  0.18216159543E+03  0.70161345265E+02  0.26083772333E+03  0.17117347724E+03 0.  0.
        -24    2    3    3    0    0  0.57381766606E+02  0.84457369622E+02 -0.10141248983E+02  0.13023068594E+03  0.80196460058E+02 0.  0.
          6    2    1    2  501    0 -0.25109706964E+02 -0.18216159543E+03  0.49341226588E+02  0.25625351549E+03  0.17151665612E+03 0.  0.
         24    2    5    5    0    0  0.22787604053E+02 -0.18339515026E+03  0.29700360341E+02  0.20425805716E+03  0.81769104637E+02 0.  0.
          5    1    5    5  501    0 -0.47897311017E+02  0.12335548248E+01  0.19640866246E+02  0.51995458332E+02  0.47000000000E+01 0. -1.
        -13    1    6    6    0    0  0.39118759743E+02 -0.51490280152E+02 -0.10249385381E+02  0.65471949831E+02  0.00000000000E+00 0.  1.
         14    1    6    6    0    0 -0.16331155690E+02 -0.13190487011E+03  0.39949745723E+02  0.13878610733E+03  0.00000000000E+00 0. -1.
         -5    1    3    3    0  503 -0.32272059642E+02  0.97704225811E+02  0.80302594249E+02  0.13060703740E+03  0.47000000000E+01 0.  1.
         11    1    4    4    0    0  0.60447258311E+02  0.96431568632E+02 -0.18506430745E+02  0.11530570864E+03  0.00000000000E+00 0. -1.
        -12    1    4    4    0    0 -0.30654917050E+01 -0.11974199010E+02  0.83651817614E+01  0.14924977294E+02  0.00000000000E+00 0.  1.
<mgrwt>
<rscale>  2 0.25139985E+03</rscale>
<asrwt>0</asrwt>
<pdfrwt beam="1">  1       21 0.48968755E-01 0.25145836E+03</pdfrwt>
<pdfrwt beam="2">  1       21 0.30583744E-01 0.25145836E+03</pdfrwt>
<totfact> 0.39731157E+04</totfact>
</mgrwt>
</event>
<event>
12    1  0.1050690E-001  0.1864486E+03  0.7546771E-02  0.1161948E+00
         21   -1    0    0  501  502  0.00000000000E+00  0.00000000000E+00  0.12333649672E+03  0.12333649672E+03  0.00000000000E+00 0. -1.
         21   -1    0    0  502  503 -0.00000000000E+00 -0.00000000000E+00 -0.44035674922E+03  0.44035674922E+03  0.00000000000E+00 0.  1.
         -6    2    1    2    0  503  0.36676038107E+02 -0.57467756077E+02 -0.32873257468E+03  0.37792616447E+03  0.17353790759E+03 0.  0.
        -24    2    3    3    0    0  0.88211541900E+02 -0.33166054963E+02 -0.18404649745E+03  0.22235421400E+03  0.81774200895E+02 0.  0.
          6    2    1    2  501    0 -0.36676038107E+02  0.57467756077E+02  0.11712322177E+02  0.18576708148E+03  0.17240810686E+03 0.  0.
         24    2    5    5    0    0 -0.87503594737E+02  0.15481584993E+02  0.36309444004E+01  0.11918121404E+03  0.79337377431E+02 0.  0.
          5    1    5    5  501    0  0.50827556629E+02  0.41986171084E+02  0.80813777761E+01  0.66585867435E+02  0.47000000000E+01 0. -1.
        -11    1    6    6    0    0 -0.15037570608E+02 -0.26661282912E+02  0.15843676097E+02  0.34467007537E+02  0.00000000000E+00 0.  1.
         12    1    6    6    0    0 -0.72466024129E+02  0.42142867905E+02 -0.12212731696E+02  0.84714206505E+02  0.00000000000E+00 0. -1.
         -5    1    3    3    0  503 -0.51535503793E+02 -0.24301701114E+02 -0.14468607723E+03  0.15557195047E+03  0.47000000000E+01 0.  1.
         11    1    4    4    0    0 -0.13777704702E+02 -0.78770345102E+01 -0.91490663793E+01  0.18318794588E+02  0.00000000000E+00 0. -1.
        -12    1    4    4    0    0  0.10198924660E+03 -0.25289020453E+02 -0.17489743107E+03  0.20403541941E+03  0.00000000000E+00 0.  1.
<mgrwt>
<rscale>  2 0.18618527E+03</rscale>
<asrwt>0</asrwt>
<pdfrwt beam="1">  1       21 0.18974846E-01 0.18644860E+03</pdfrwt>
<pdfrwt beam="2">  1       21 0.67747191E-01 0.18644860E+03</pdfrwt>
<totfact> 0.50843433E+04</totfact>
</mgrwt>
</event>
<event>
12    1  0.1050690E-001  0.1962816E+03  0.7546771E-02  0.1152924E+00
         21   -1    0    0  501  502  0.00000000000E+00  0.00000000000E+00  0.48811393475E+02  0.48811393475E+02  0.00000000000E+00 0.  1.
         21   -1    0    0  502  503 -0.00000000000E+00 -0.00000000000E+00 -0.17132176745E+04  0.17132176745E+04  0.00000000000E+00 0.  1.
         -6    2    1    2    0  503 -0.30004692147E+01  0.92035765074E+02 -0.14792075847E+04  0.14921679331E+04  0.17329303787E+03 0.  0.
        -24    2    3    3    0    0 -0.52741716971E+02  0.64765782145E+02 -0.58617272903E+03  0.59732091422E+03  0.78851195688E+02 0.  0.
          6    2    1    2  501    0  0.30004692147E+01 -0.92035765074E+02 -0.18519869635E+03  0.26986113494E+03  0.17334038811E+03 0.  0.
         24    2    5    5    0    0 -0.34502136292E+02 -0.70326374181E+02 -0.42880270829E+02  0.12101770271E+03  0.81672335762E+02 0.  0.
          5    1    5    5  501    0  0.37502605506E+02 -0.21709390893E+02 -0.14231842552E+03  0.14884343222E+03  0.47000000000E+01 0. -1.
        -11    1    6    6    0    0 -0.32667049576E+02  0.51779534802E+01  0.20478301986E+01  0.33138209649E+02  0.00000000000E+00 0.  1.
         12    1    6    6    0    0 -0.18350867161E+01 -0.75504327661E+02 -0.44928101028E+02  0.87879493062E+02  0.00000000000E+00 0. -1.
         -5    1    3    3    0  503  0.49741247756E+02  0.27269982930E+02 -0.89303485566E+03  0.89484701883E+03  0.47000000000E+01 0.  1.
         11    1    4    4    0    0 -0.81436952161E+01 -0.10821970280E+02 -0.18632178132E+02  0.23034601678E+02  0.00000000000E+00 0. -1.
        -12    1    4    4    0    0 -0.44598021754E+02  0.75587752424E+02 -0.56754055090E+03  0.57428631254E+03  0.00000000000E+00 0.  1.
<mgrwt>
<rscale>  2 0.19627117E+03</rscale>
<asrwt>0</asrwt>
<pdfrwt beam="1">  1       21 0.75094455E-02 0.19628162E+03</pdfrwt>
<pdfrwt beam="2">  1       21 0.26357194E+00 0.19628162E+03</pdfrwt>
<totfact> 0.73924468E+03</totfact>
</mgrwt>
</event>
<event>
12    1  0.1050690E-001  0.2021900E+03  0.7546771E-02  0.1148193E+00
         21   -1    0    0  501  502  0.00000000000E+00  0.00000000000E+00  0.91683190311E+02  0.91683190311E+02  0.00000000000E+00 0.  1.
         21   -1    0    0  502  503 -0.00000000000E+00 -0.00000000000E+00 -0.53559261345E+03  0.53559261345E+03  0.00000000000E+00 0. -1.
         -6    2    1    2    0  503  0.48437391521E+02 -0.88368869078E+02 -0.90807730260E+02  0.22038319018E+03  0.17368784850E+03 0.  0.
        -24    2    3    3    0    0  0.31896325087E+02  0.37109138998E+01 -0.93018344899E+02  0.12668543071E+03  0.79784957419E+02 0.  0.
          6    2    1    2  501    0 -0.48437391521E+02  0.88368869078E+02 -0.35310169287E+03  0.40689261358E+03  0.17528706614E+03 0.  0.
         24    2    5    5    0    0 -0.10225907088E+02  0.87276028897E+02 -0.34820392958E+03  0.36806749378E+03  0.80659959119E+02 0.  0.
          5    1    5    5  501    0 -0.38211484433E+02  0.10928401813E+01 -0.48977632916E+01  0.38825119800E+02  0.47000000000E+01 0. -1.
        -13    1    6    6    0    0 -0.45513250496E+02  0.48616639459E+02 -0.18103439976E+03  0.19289501678E+03  0.00000000000E+00 0.  1.
         14    1    6    6    0    0  0.35287343408E+02  0.38659389438E+02 -0.16716952982E+03  0.17517247700E+03  0.00000000000E+00 0. -1.
         -5    1    3    3    0  503  0.16541066433E+02 -0.92079782978E+02  0.22106146388E+01  0.93697759467E+02  0.47000000000E+01 0.  1.
         11    1    4    4    0    0  0.47837612526E+00 -0.17249282064E+02 -0.86690290759E+02  0.88391023794E+02  0.00000000000E+00 0. -1.
        -12    1    4    4    0    0  0.31417948962E+02  0.20960195964E+02 -0.63280541399E+01  0.38294406916E+02  0.00000000000E+00 0.  1.
<mgrwt>
<rscale>  2 0.20184289E+03</rscale>
<asrwt>0</asrwt>
<pdfrwt beam="1">  1       21 0.14105106E-01 0.20218999E+03</pdfrwt>
<pdfrwt beam="2">  1       21 0.82398864E-01 0.20218999E+03</pdfrwt>
<totfact> 0.56161152E+04</totfact>
</mgrwt>
</event>
<event>
12    1  0.1050690E-001  0.1770831E+03  0.7546771E-02  0.1171332E+00
         21   -1    0    0  501  502  0.00000000000E+00  0.00000000000E+00  0.27917533688E+02  0.27917533688E+02  0.00000000000E+00 0. -1.
         21   -1    0    0  502  503 -0.00000000000E+00 -0.00000000000E+00 -0.16901545310E+04  0.16901545310E+04  0.00000000000E+00 0. -1.
         -6    2    1    2    0  503 -0.67742919348E+01 -0.21233343742E+02 -0.13318866408E+04  0.13432524065E+04  0.17294004048E+03 0.  0.
        -24    2    3    3    0    0 -0.56571127065E+02 -0.30172117465E+02 -0.89098199554E+03  0.89942966856E+03  0.10494838360E+03 0.  0.
          6    2    1    2  501    0  0.67742919348E+01  0.21233343742E+02 -0.33035035648E+03  0.37481965819E+03  0.17567490494E+03 0.  0.
         24    2    5    5    0    0  0.91915586758E+01  0.79457697274E+02 -0.15693196952E+03  0.19181161068E+03  0.75934448866E+02 0.  0.
          5    1    5    5  501    0 -0.24172667410E+01 -0.58224353532E+02 -0.17341838695E+03  0.18300804752E+03  0.47000000000E+01 0. -1.
        -11    1    6    6    0    0  0.83149562330E+01  0.87715492524E+02 -0.16024537410E+03  0.18287079057E+03  0.00000000000E+00 0.  1.
         12    1    6    6    0    0  0.87660244281E+00 -0.82577952508E+01  0.33134045717E+01  0.89408201024E+01  0.00000000000E+00 0. -1.
         -5    1    3    3    0  503  0.49796835130E+02  0.89387737229E+01 -0.44090464530E+03  0.44382273794E+03  0.47000000000E+01 0.  1.
         13    1    4    4    0    0  0.25836225336E+02  0.37895032842E+01 -0.36641176590E+03  0.36734105824E+03  0.00000000000E+00 0. -1.
        -14    1    4    4    0    0 -0.82407352401E+02 -0.33961620749E+02 -0.52457022963E+03  0.53208861032E+03  0.00000000000E+00 0.  1.
<mgrwt>
<rscale>  2 0.17640096E+03</rscale>
<asrwt>0</asrwt>
<pdfrwt beam="1">  1       21 0.42950043E-02 0.17708308E+03</pdfrwt>
<pdfrwt beam="2">  1       21 0.26002383E+00 0.17708308E+03</pdfrwt>
<totfact> 0.20491603E+04</totfact>
</mgrwt>
</event>
<event>
12    1  0.1050690E-001  0.1788415E+03  0.7546771E-02  0.1169333E+00
         21   -1    0    0  501  502  0.00000000000E+00  0.00000000000E+00  0.45502008103E+02  0.45502008103E+02  0.00000000000E+00 0.  1.
         21   -1    0    0  502  503 -0.00000000000E+00 -0.00000000000E+00 -0.70007228128E+03  0.70007228128E+03  0.00000000000E+00 0.  1.
         -6    2    1    2    0  503  0.17893973071E+02  0.36617771183E+02 -0.35557129330E+03  0.39801412278E+03  0.17413569959E+03 0.  0.
        -24    2    3    3    0    0  0.56201369000E+02  0.53802103279E+02 -0.33552323241E+03  0.35125118235E+03  0.68907861798E+02 0.  0.
          6    2    1    2  501    0 -0.17893973071E+02 -0.36617771183E+02 -0.29899897988E+03  0.34756016661E+03  0.17244310368E+03 0.  0.
         24    2    5    5    0    0 -0.54337166285E+02 -0.75502429703E+02 -0.24266003728E+03  0.26986660540E+03  0.72738892539E+02 0.  0.
          5    1    5    5  501    0  0.36443193213E+02  0.38884658520E+02 -0.56338942601E+02  0.77693561208E+02  0.47000000000E+01 0. -1.
        -13    1    6    6    0    0 -0.54541224768E+02 -0.58592721916E+02 -0.23968117610E+03  0.25269530751E+03  0.00000000000E+00 0.  1.
         14    1    6    6    0    0  0.20405848306E+00 -0.16909707787E+02 -0.29788611765E+01  0.17171297890E+02  0.00000000000E+00 0. -1.
         -5    1    3    3    0  503 -0.38307395928E+02 -0.17184332096E+02 -0.20048060892E+02  0.46762940433E+02  0.47000000000E+01 0.  1.
         11    1    4    4    0    0 -0.71526685073E+01  0.20780777207E+02 -0.28305477023E+02  0.35835755854E+02  0.00000000000E+00 0. -1.
        -12    1    4    4    0    0  0.63354037507E+02  0.33021326072E+02 -0.30721775539E+03  0.31541542649E+03  0.00000000000E+00 0.  1.
<mgrwt>
<rscale>  2 0.17842820E+03</rscale>
<asrwt>0</asrwt>
<pdfrwt beam="1">  1       21 0.70003089E-02 0.17884154E+03</pdfrwt>
<pdfrwt beam="2">  1       21 0.10770343E+00 0.17884154E+03</pdfrwt>
<totfact> 0.10454776E+05</totfact>
</mgrwt>
</event>
<event>
12    1  0.1050690E-001  0.1788030E+03  0.7546771E-02  0.1169100E+00
         21   -1    0    0  503  502  0.00000000000E+00  0.00000000000E+00  0.12002398417E+03  0.12002398417E+03  0.00000000000E+00 0.  1.
         21   -1    0    0  501  503 -0.00000000000E+00 -0.00000000000E+00 -0.80440655884E+03  0.80440655884E+03  0.00000000000E+00 0.  1.
          6    2    1    2  501    0  0.34664982251E+02  0.24163742771E+02 -0.72032238826E+03  0.74205128899E+03  0.17317686048E+03 0.  0.
         24    2    3    3    0    0  0.71469318317E+02  0.58292633085E+02 -0.58461280076E+03  0.59728070342E+03  0.80412793334E+02 0.  0.
         -6    2    1    2    0  502 -0.34664982251E+02 -0.24163742771E+02  0.35939813592E+02  0.18237925402E+03  0.17373823597E+03 0.  0.
        -24    2    5    5    0    0 -0.32276274361E+02 -0.54042378390E+02  0.64654454740E+02  0.14060534580E+03  0.10783008950E+03 0.  0.
          5    1    3    3  501    0 -0.36804336066E+02 -0.34128890314E+02 -0.13570958750E+03  0.14477058557E+03  0.47000000000E+01 0. -1.
        -13    1    4    4    0    0  0.34811374070E+02 -0.15683911178E+02 -0.23280076525E+03  0.23591102801E+03  0.00000000000E+00 0.  1.
         14    1    4    4    0    0  0.36657944247E+02  0.73976544263E+02 -0.35181203551E+03  0.36136967541E+03  0.00000000000E+00 0. -1.
         -5    1    5    5    0  502 -0.23887078894E+01  0.29878635619E+02 -0.28714641148E+02  0.41773908221E+02  0.47000000000E+01 0.  1.
         13    1    6    6    0    0 -0.29011691717E+02  0.13576604471E+01 -0.22871835476E+02  0.36968126220E+02  0.00000000000E+00 0. -1.
        -14    1    6    6    0    0 -0.32645826439E+01 -0.55400038837E+02  0.87526290216E+02  0.10363721958E+03  0.00000000000E+00 0.  1.
<mgrwt>
<rscale>  2 0.17866651E+03</rscale>
<asrwt>0</asrwt>
<pdfrwt beam="1">  1       21 0.18465228E-01 0.17880303E+03</pdfrwt>
<pdfrwt beam="2">  1       21 0.12375486E+00 0.17880303E+03</pdfrwt>
<totfact> 0.13226017E+04</totfact>
</mgrwt>
</event>
<event>
12    1  0.1050690E-001  0.2174819E+03  0.7546771E-02  0.1135799E+00
         21   -1    0    0  503  502  0.00000000000E+00  0.00000000000E+00  0.16293095635E+04  0.16293095635E+04  0.00000000000E+00 0. -1.
         21   -1    0    0  501  503 -0.00000000000E+00 -0.00000000000E+00 -0.30142755263E+02  0.30142755263E+02  0.00000000000E+00 0. -1.
          6    2    1    2  501    0  0.13079743972E+03  0.16777819628E+02  0.63914272543E+03  0.67513093771E+03  0.17294188077E+03 0.  0.
         24    2    3    3    0    0 -0.37330026164E+01  0.10214654269E+02  0.28325335056E+03  0.29457758771E+03  0.80157470697E+02 0.  0.
         -6    2    1    2    0  502 -0.13079743972E+03 -0.16777819628E+02  0.96002408277E+03  0.98432138101E+03  0.17277984879E+03 0.  0.
        -24    2    5    5    0    0 -0.66908595580E+02 -0.69632221102E+02  0.69178717605E+03  0.70352162978E+03  0.83951058674E+02 0.  0.
          5    1    3    3  501    0  0.13453044233E+03  0.65631653584E+01  0.35588937487E+03  0.38055335001E+03  0.47000000000E+01 0. -1.
        -11    1    4    4    0    0  0.52771412997E+01  0.37983761926E+02  0.23553933346E+03  0.23864071739E+03  0.00000000000E+00 0.  1.
         12    1    4    4    0    0 -0.90101439161E+01 -0.27769107657E+02  0.47714017097E+02  0.55936870318E+02  0.00000000000E+00 0. -1.
         -5    1    5    5    0  502 -0.63888844136E+02  0.52854401474E+02  0.26823690673E+03  0.28079975123E+03  0.47000000000E+01 0.  1.
         11    1    6    6    0    0 -0.29621507904E+02  0.14460501127E+02  0.12282830776E+03  0.12717441964E+03  0.00000000000E+00 0. -1.
        -12    1    6    6    0    0 -0.37287087676E+02 -0.84092722228E+02  0.56895886829E+03  0.57634721015E+03  0.00000000000E+00 0.  1.
<mgrwt>
<rscale>  2 0.21744965E+03</rscale>
<asrwt>0</asrwt>
<pdfrwt beam="1">  1       21 0.25066294E+00 0.21748186E+03</pdfrwt>
<pdfrwt beam="2">  1       21 0.46373482E-02 0.21748186E+03</pdfrwt>
<totfact> 0.19717803E+04</totfact>
</mgrwt>
</event>
<event>
12    1  0.1050690E-001  0.2224963E+03  0.7546771E-02  0.1132714E+00
         21   -1    0    0  501  502  0.00000000000E+00  0.00000000000E+00  0.20549179189E+03  0.20549179189E+03  0.00000000000E+00 0.  1.
         21   -1    0    0  502  503 -0.00000000000E+00 -0.00000000000E+00 -0.24796005750E+03  0.24796005750E+03  0.00000000000E+00 0.  1.
         -6    2    1    2    0  503 -0.70329631717E+02  0.11408890205E+03  0.26343762373E+02  0.22405044483E+03  0.17760088216E+03 0.  0.
        -24    2    3    3    0    0 -0.35729491386E+02  0.42389620763E+02  0.80971131027E+02  0.12738506295E+03  0.81222864389E+02 0.  0.
          6    2    1    2  501    0  0.70329631717E+02 -0.11408890205E+03 -0.68812027991E+02  0.22940140456E+03  0.17299530210E+03 0.  0.
         24    2    5    5    0    0  0.10534468207E+03 -0.12606336925E+03 -0.56961653019E+02  0.19026110560E+03  0.77234599003E+02 0.  0.
          5    1    5    5  501    0 -0.35015050349E+02  0.11974467196E+02 -0.11850374972E+02  0.39140298958E+02  0.47000000000E+01 0. -1.
        -11    1    6    6    0    0  0.78599568177E+02 -0.13111819875E+03 -0.39396632654E+02  0.15786693392E+03  0.00000000000E+00 0.  1.
         12    1    6    6    0    0  0.26745113889E+02  0.50548295025E+01 -0.17565020364E+02  0.32394171677E+02  0.00000000000E+00 0. -1.
         -5    1    3    3    0  503 -0.34600140331E+02  0.71699281291E+02 -0.54627368654E+02  0.96665381883E+02  0.47000000000E+01 0.  1.
         13    1    4    4    0    0 -0.38654728653E+02 -0.14002551150E+02  0.42011877023E+02  0.58781436669E+02  0.00000000000E+00 0. -1.
        -14    1    4    4    0    0  0.29252372669E+01  0.56392171913E+02  0.38959254004E+02  0.68603626279E+02  0.00000000000E+00 0.  1.
<mgrwt>
<rscale>  2 0.22157595E+03</rscale>
<asrwt>0</asrwt>
<pdfrwt beam="1">  1       21 0.31614122E-01 0.22249631E+03</pdfrwt>
<pdfrwt beam="2">  1       21 0.38147701E-01 0.22249631E+03</pdfrwt>
<totfact> 0.62902080E+04</totfact>
</mgrwt>
</event>
<event>
12    1  0.1050690E-001  0.1944677E+03  0.7546771E-02  0.1155546E+00
         21   -1    0    0  501  502  0.00000000000E+00  0.00000000000E+00  0.71830711057E+03  0.71830711057E+03  0.00000000000E+00 0.  1.
         21   -1    0    0  502  503 -0.00000000000E+00 -0.00000000000E+00 -0.73081441322E+02  0.73081441322E+02  0.00000000000E+00 0.  1.
         -6    2    1    2    0  503  0.59450266310E+02  0.62651320600E+02  0.10413824516E+03  0.21641613274E+03  0.16891313232E+03 0.  0.
        -24    2    3    3    0    0  0.23927029799E+02 -0.19665617229E+02  0.93825921207E+02  0.12604792699E+03  0.78265810876E+02 0.  0.
          6    2    1    2  501    0 -0.59450266310E+02 -0.62651320600E+02  0.54108742409E+03  0.57497241915E+03  0.17423593239E+03 0.  0.
         24    2    5    5    0    0 -0.37312679312E+02  0.30415355808E+02  0.20333315118E+03  0.22390046372E+03  0.80434553402E+02 0.  0.
          5    1    5    5  501    0 -0.22137586999E+02 -0.93066676408E+02  0.33775427292E+03  0.35107195543E+03  0.47000000000E+01 0. -1.
        -13    1    6    6    0    0 -0.60003870426E+02  0.34035360796E+02  0.16951781527E+03  0.18301682968E+03  0.00000000000E+00 0.  1.
         14    1    6    6    0    0  0.22691191115E+02 -0.36200049879E+01  0.33815335906E+02  0.40883634045E+02  0.00000000000E+00 0. -1.
         -5    1    3    3    0  503  0.35523236511E+02  0.82316937829E+02  0.10312323948E+02  0.90368205753E+02  0.47000000000E+01 0.  1.
         11    1    4    4    0    0  0.45472027062E+02  0.34053637892E+01  0.78902766990E+02  0.91131489543E+02  0.00000000000E+00 0. -1.
        -12    1    4    4    0    0 -0.21544997263E+02 -0.23070981018E+02  0.14923154217E+02  0.34916437447E+02  0.00000000000E+00 0.  1.
<mgrwt>
<rscale>  2 0.19326806E+03</rscale>
<asrwt>0</asrwt>
<pdfrwt beam="1">  1       21 0.11050878E+00 0.19446769E+03</pdfrwt>
<pdfrwt beam="2">  1       21 0.11243299E-01 0.19446769E+03</pdfrwt>
<totfact> 0.42532166E+04</totfact>
</mgrwt>
</event>
<event>
12    1  0.1050690E-001  0.1849101E+03  0.7546771E-02  0.1163517E+00
         21   -1    0    0  503  502  0.00000000000E+00  0.00000000000E+00  0.94256273916E+02  0.94256273916E+02  0.00000000000E+00 0.  1.
         21   -1    0    0  501  503 -0.00000000000E+00 -0.00000000000E+00 -0.40690992852E+03  0.40690992852E+03  0.00000000000E+00 0.  1.
          6    2    1    2  501    0 -0.31097337977E+02 -0.53211088207E+02 -0.24241697372E+03  0.30488970108E+03  0.17433667526E+03 0.  0.
         24    2    3    3    0    0 -0.41777068717E+02 -0.53483548370E+01 -0.45022918867E+02  0.10144093410E+03  0.80556014783E+02 0.  0.
         -6    2    1    2    0  502  0.31097337977E+02  0.53211088207E+02 -0.70236680891E+02  0.19627650136E+03  0.17260593648E+03 0.  0.
        -24    2    5    5    0    0 -0.30315550592E+02  0.40699051014E+02 -0.89568282160E+02  0.13052017266E+03  0.80234611862E+02 0.  0.
          5    1    3    3  501    0  0.10679730740E+02 -0.47862733370E+02 -0.19739405485E+03  0.20344876698E+03  0.47000000000E+01 0. -1.
        -13    1    4    4    0    0 -0.59070715045E+02  0.15208527594E-01 -0.55048268850E+02  0.80744420926E+02  0.00000000000E+00 0.  1.
         14    1    4    4    0    0  0.17293646328E+02 -0.53635633646E+01  0.10025349984E+02  0.20696513174E+02  0.00000000000E+00 0. -1.
         -5    1    5    5    0  502  0.61412888569E+02  0.12512037193E+02  0.19331601268E+02  0.65756328705E+02  0.47000000000E+01 0.  1.
         11    1    6    6    0    0 -0.31550513237E+01  0.37273281971E+02 -0.57450812178E+00  0.37410987120E+02  0.00000000000E+00 0. -1.
        -12    1    6    6    0    0 -0.27160499269E+02  0.34257690434E+01 -0.88993774038E+02  0.93109185538E+02  0.00000000000E+00 0.  1.
<mgrwt>
<rscale>  2 0.18450102E+03</rscale>
<asrwt>0</asrwt>
<pdfrwt beam="1">  1       21 0.14500965E-01 0.18491009E+03</pdfrwt>
<pdfrwt beam="2">  1       21 0.62601527E-01 0.18491009E+03</pdfrwt>
<totfact> 0.98943926E+04</totfact>
</mgrwt>
</event>
<event>
12    1  0.1050690E-001  0.2506056E+03  0.7546771E-02  0.1114152E+00
         21   -1    0    0  501  502  0.00000000000E+00  0.00000000000E+00  0.15941394586E+03  0.15941394586E+03  0.00000000000E+00 0. -1.
         21   -1    0    0  502  503 -0.00000000000E+00 -0.00000000000E+00 -0.50569361119E+03  0.50569361119E+03  0.00000000000E+00 0. -1.
         -6    2    1    2    0  503 -0.70399608047E+02  0.16649741252E+03 -0.33556971127E+03  0.41427321841E+03  0.16228917148E+03 0.  0.
        -24    2    3    3    0    0 -0.94864242505E+02  0.16481421624E+03 -0.32906915025E+03  0.38847207924E+03  0.80380969903E+02 0.  0.
          6    2    1    2  501    0  0.70399608047E+02 -0.16649741252E+03 -0.10709954061E+02  0.25083433864E+03  0.17356747718E+03 0.  0.
         24    2    5    5    0    0  0.74260311707E+02 -0.18994679694E+03 -0.28006896151E+02  0.22106769846E+03  0.80573950558E+02 0.  0.
          5    1    5    5  501    0 -0.38607036600E+01  0.23449384413E+02  0.17296942090E+02  0.29766640183E+02  0.47000000000E+01 0. -1.
        -11    1    6    6    0    0  0.32496965971E+01 -0.12432564492E+02 -0.26969411441E+02  0.29874375999E+02  0.00000000000E+00 0.  1.
         12    1    6    6    0    0  0.71010615110E+02 -0.17751423245E+03 -0.10374847097E+01  0.19119332246E+03  0.00000000000E+00 0. -1.
         -5    1    3    3    0  503  0.24464634458E+02  0.16831962825E+01 -0.65005610255E+01  0.25801139171E+02  0.47000000000E+01 0.  1.
         11    1    4    4    0    0 -0.58362713535E+02  0.37060639358E+02 -0.15301219787E+03  0.16790601543E+03  0.00000000000E+00 0. -1.
        -12    1    4    4    0    0 -0.36501528970E+02  0.12775357688E+03 -0.17605695238E+03  0.22056606381E+03  0.00000000000E+00 0.  1.
<mgrwt>
<rscale>  2 0.24866440E+03</rscale>
<asrwt>0</asrwt>
<pdfrwt beam="1">  1       21 0.24525222E-01 0.25060559E+03</pdfrwt>
<pdfrwt beam="2">  1       21 0.77799018E-01 0.25060559E+03</pdfrwt>
<totfact> 0.22302537E+04</totfact>
</mgrwt>
</event>
<event>
12    1  0.1050690E-001  0.3137293E+03  0.7546771E-02  0.1078910E+00
         21   -1    0    0  503  502  0.00000000000E+00  0.00000000000E+00  0.83934241571E+02  0.83934241571E+02  0.00000000000E+00 0. -1.
         21   -1    0    0  501  503 -0.00000000000E+00 -0.00000000000E+00 -0.13831138300E+04  0.13831138300E+04  0.00000000000E+00 0.  1.
          6    2    1    2  501    0 -0.15465842692E+03 -0.20647033841E+03 -0.94534216342E+03  0.99604110317E+03  0.17854087379E+03 0.  0.
         24    2    3    3    0    0 -0.10925898490E+03 -0.45563998080E+02 -0.36885011306E+03  0.39577688316E+03  0.81088418671E+02 0.  0.
         -6    2    1    2    0  502  0.15465842692E+03  0.20647033841E+03 -0.35383742498E+03  0.47100696837E+03  0.17348605499E+03 0.  0.
        -24    2    5    5    0    0  0.73635791746E+02  0.19900201485E+03 -0.23280029507E+03  0.32508740120E+03  0.80385379841E+02 0.  0.
          5    1    3    3  501    0 -0.45399442024E+02 -0.16090634033E+03 -0.57649205036E+03  0.60026422001E+03  0.47000000000E+01 0. -1.
        -11    1    4    4    0    0 -0.54659845919E+01 -0.35953043643E+02 -0.13373309362E+03  0.13858946087E+03  0.00000000000E+00 0.  1.
         12    1    4    4    0    0 -0.10379300030E+03 -0.96109544369E+01 -0.23511701943E+03  0.25718742229E+03  0.00000000000E+00 0. -1.
         -5    1    5    5    0  502  0.81022635174E+02  0.74683235601E+01 -0.12103712991E+03  0.14591956717E+03  0.47000000000E+01 0.  1.
         11    1    6    6    0    0  0.43766591848E+02  0.50387667239E+02 -0.33463939608E+02  0.74661012757E+02  0.00000000000E+00 0. -1.
        -12    1    6    6    0    0  0.29869199898E+02  0.14861434761E+03 -0.19933635547E+03  0.25042638844E+03  0.00000000000E+00 0.  1.
<mgrwt>
<rscale>  2 0.31301464E+03</rscale>
<asrwt>0</asrwt>
<pdfrwt beam="1">  1       21 0.12912961E-01 0.31372930E+03</pdfrwt>
<pdfrwt beam="2">  1       21 0.21278672E+00 0.31372930E+03</pdfrwt>
<totfact> 0.52424001E+03</totfact>
</mgrwt>
</event>
<event>
12    1  0.1050690E-001  0.1950900E+03  0.7546771E-02  0.1153950E+00
         21   -1    0    0  503  502  0.00000000000E+00  0.00000000000E+00  0.11374820803E+04  0.11374820803E+04  0.00000000000E+00 0.  1.
         21   -1    0    0  501  503 -0.00000000000E+00 -0.00000000000E+00 -0.35979087448E+02  0.35979087448E+02  0.00000000000E+00 0.  1.
          6    2    1    2  501    0 -0.86891094607E+02 -0.27890249039E+02  0.70602657706E+03  0.73248305695E+03  0.17242381763E+03 0.  0.
         24    2    3    3    0    0 -0.25897611835E+02  0.35873240920E+02  0.49833978622E+03  0.50677997615E+03  0.80782584646E+02 0.  0.
         -6    2    1    2    0  502  0.86891094607E+02  0.27890249039E+02  0.39547641575E+03  0.44097811077E+03  0.17243019005E+03 0.  0.
        -24    2    5    5    0    0  0.60077294523E+02  0.31416575694E+02  0.39967901649E+03  0.41320822226E+03  0.80008975623E+02 0.  0.
          5    1    3    3  501    0 -0.60993482771E+02 -0.63763489960E+02  0.20768679084E+03  0.22570308080E+03  0.47000000000E+01 0. -1.
        -11    1    4    4    0    0  0.23532222377E+02  0.31497127262E+02  0.28768938760E+03  0.29036359664E+03  0.00000000000E+00 0.  1.
         12    1    4    4    0    0 -0.49429834212E+02  0.43761136586E+01  0.21065039862E+03  0.21641637951E+03  0.00000000000E+00 0. -1.
         -5    1    5    5    0  502  0.26813800084E+02 -0.35263266550E+01 -0.42026007306E+01  0.27769888504E+02  0.47000000000E+01 0.  1.
         11    1    6    6    0    0 -0.13894331388E+02  0.27302792464E+02  0.10713000362E+03  0.11142411138E+03  0.00000000000E+00 0. -1.
        -12    1    6    6    0    0  0.73971625911E+02  0.41137832302E+01  0.29254901287E+03  0.30178411088E+03  0.00000000000E+00 0.  1.
<mgrwt>
<rscale>  2 0.19508857E+03</rscale>
<asrwt>0</asrwt>
<pdfrwt beam="1">  1       21 0.17499722E+00 0.19508998E+03</pdfrwt>
<pdfrwt beam="2">  1       21 0.55352451E-02 0.19508998E+03</pdfrwt>
<totfact> 0.44496627E+04</totfact>
</mgrwt>
</event>
<event>
12    1  0.1050690E-001  0.1923526E+03  0.7546771E-02  0.1156463E+00
         21   -1    0    0  501  502  0.00000000000E+00  0.00000000000E+00  0.77369216793E+02  0.77369216793E+02  0.00000000000E+00 0.  1.
         21   -1    0    0  502  503 -0.00000000000E+00 -0.00000000000E+00 -0.53621125536E+03  0.53621125536E+03  0.00000000000E+00 0. -1.
         -6    2    1    2    0  503  0.23443686775E+02 -0.80241826652E+02 -0.33108700872E+03  0.38266732249E+03  0.17270586315E+03 0.  0.
        -24    2    3    3    0    0  0.64595616070E+02 -0.76088445343E+02 -0.31067505823E+03  0.33630494999E+03  0.81363274588E+02 0.  0.
          6    2    1    2  501    0 -0.23443686775E+02  0.80241826652E+02 -0.12775502985E+03  0.23091314967E+03  0.17323734540E+03 0.  0.
         24    2    5    5    0    0 -0.67690982385E+02  0.29554917637E+02 -0.17908075795E+02  0.10201229928E+03  0.68045924004E+02 0.  0.
          5    1    5    5  501    0  0.44247295610E+02  0.50686909015E+02 -0.10984695406E+03  0.12890085039E+03  0.47000000000E+01 0. -1.
        -13    1    6    6    0    0 -0.48536139791E+02  0.47678422669E+02  0.33821138958E+01  0.68120683704E+02  0.00000000000E+00 0.  1.
         14    1    6    6    0    0 -0.19154842594E+02 -0.18123505031E+02 -0.21290189691E+02  0.33891615578E+02  0.00000000000E+00 0. -1.
         -5    1    3    3    0  503 -0.41151929295E+02 -0.41533813091E+01 -0.20411950487E+02  0.46362372498E+02  0.47000000000E+01 0.  1.
         13    1    4    4    0    0  0.61111087488E+02 -0.25044540391E+02 -0.10249687937E+03  0.12193196585E+03  0.00000000000E+00 0. -1.
        -14    1    4    4    0    0  0.34845285821E+01 -0.51043904953E+02 -0.20817817886E+03  0.21437298414E+03  0.00000000000E+00 0.  1.
<mgrwt>
<rscale>  2 0.19223289E+03</rscale>
<asrwt>0</asrwt>
<pdfrwt beam="1">  1       21 0.11902956E-01 0.19235263E+03</pdfrwt>
<pdfrwt beam="2">  1       21 0.82494043E-01 0.19235263E+03</pdfrwt>
<totfact> 0.76398002E+04</totfact>
</mgrwt>
</event>
<event>
12    1  0.1050690E-001  0.2111984E+03  0.7546771E-02  0.1142878E+00
         21   -1    0    0  503  502  0.00000000000E+00  0.00000000000E+00  0.11728916687E+03  0.11728916687E+03  0.00000000000E+00 0.  1.
         21   -1    0    0  501  503 -0.00000000000E+00 -0.00000000000E+00 -0.41276675813E+03  0.41276675813E+03  0.00000000000E+00 0. -1.
          6    2    1    2  501    0 -0.94347756442E+02  0.72686177512E+02 -0.49932003296E+02  0.20617726141E+03  0.16072049845E+03 0.  0.
         24    2    3    3    0    0 -0.97571455641E+02  0.50548015935E+02  0.16022412127E+02  0.13637349827E+03  0.79156316671E+02 0.  0.
         -6    2    1    2    0  502  0.94347756442E+02 -0.72686177512E+02 -0.24554558796E+03  0.32387866359E+03  0.17441322604E+03 0.  0.
        -24    2    5    5    0    0  0.31343178324E+02  0.26473946365E+02 -0.11097042144E+03  0.14517535508E+03  0.84131947697E+02 0.  0.
          5    1    3    3  501    0  0.32236991991E+01  0.22138161577E+02 -0.65954415423E+02  0.69803763138E+02  0.47000000000E+01 0. -1.
        -11    1    4    4    0    0 -0.10092125894E+03  0.61485038352E+02  0.18884419691E+01  0.11819084846E+03  0.00000000000E+00 0.  1.
         12    1    4    4    0    0  0.33498033016E+01 -0.10937022416E+02  0.14133970158E+02  0.18182649805E+02  0.00000000000E+00 0. -1.
         -5    1    5    5    0  502  0.63004578118E+02 -0.99160123877E+02 -0.13457516652E+03  0.17870330852E+03  0.47000000000E+01 0.  1.
         13    1    6    6    0    0  0.28021928600E+02 -0.20687211958E+02 -0.14472109698E+02  0.37717783341E+02  0.00000000000E+00 0. -1.
        -14    1    6    6    0    0  0.33212497242E+01  0.47161158323E+02 -0.96498311742E+02  0.10745757173E+03  0.00000000000E+00 0.  1.
<mgrwt>
<rscale>  2 0.20835165E+03</rscale>
<asrwt>0</asrwt>
<pdfrwt beam="1">  1       21 0.18044487E-01 0.21119837E+03</pdfrwt>
<pdfrwt beam="2">  1       21 0.63502578E-01 0.21119837E+03</pdfrwt>
<totfact> 0.63532613E+04</totfact>
</mgrwt>
</event>
<event>
12    1  0.1050690E-001  0.2042612E+03  0.7546771E-02  0.1146330E+00
         21   -1    0    0  501  502  0.00000000000E+00  0.00000000000E+00  0.22957173918E+03  0.22957173918E+03  0.00000000000E+00 0.  1.
         21   -1    0    0  502  503 -0.00000000000E+00 -0.00000000000E+00 -0.21350689550E+03  0.21350689550E+03  0.00000000000E+00 0.  1.
         -6    2    1    2    0  503 -0.99702980483E+02 -0.42899410435E+02 -0.78224072135E+02  0.21810521433E+03  0.17224934057E+03 0.  0.
        -24    2    3    3    0    0 -0.51575541788E+02 -0.89697274059E+02 -0.45823820070E+02  0.14341815569E+03  0.88109632906E+02 0.  0.
          6    2    1    2  501    0  0.99702980483E+02  0.42899410435E+02  0.94288915819E+02  0.22497342035E+03  0.17303640219E+03 0.  0.
         24    2    5    5    0    0  0.71618672109E+02  0.92926695094E+02  0.45262405246E+02  0.14936160694E+03  0.80595281776E+02 0.  0.
          5    1    5    5  501    0  0.28084308374E+02 -0.50027284660E+02  0.49026510573E+02  0.75611813404E+02  0.47000000000E+01 0. -1.
        -13    1    6    6    0    0  0.21436209807E+02  0.71839019180E+02  0.56381733501E+02  0.93804347662E+02  0.00000000000E+00 0.  1.
         14    1    6    6    0    0  0.50182462302E+02  0.21087675914E+02 -0.11119328255E+02  0.55557259283E+02  0.00000000000E+00 0. -1.
         -5    1    3    3    0  503 -0.48127438695E+02  0.46797863625E+02 -0.32400252065E+02  0.74687058645E+02  0.47000000000E+01 0.  1.
         13    1    4    4    0    0 -0.62091111526E+02 -0.42572408682E+02  0.22023523252E+01  0.75316442211E+02  0.00000000000E+00 0. -1.
        -14    1    4    4    0    0  0.10515569738E+02 -0.47124865377E+02 -0.48026172395E+02  0.68101713478E+02  0.00000000000E+00 0.  1.
<mgrwt>
<rscale>  2 0.20409442E+03</rscale>
<asrwt>0</asrwt>
<pdfrwt beam="1">  1       21 0.35318729E-01 0.20426121E+03</pdfrwt>
<pdfrwt beam="2">  1       21 0.32847215E-01 0.20426121E+03</pdfrwt>
<totfact> 0.68598607E+04</totfact>
</mgrwt>
</event>
<event>
12    1  0.1050690E-001  0.2051146E+03  0.7546771E-02  0.1147349E+00
         21   -1    0    0  501  502  0.00000000000E+00  0.00000000000E+00  0.69857234715E+02  0.69857234715E+02  0.00000000000E+00 0. -1.
         21   -1    0    0  502  503 -0.00000000000E+00 -0.00000000000E+00 -0.60149115227E+03  0.60149115227E+03  0.00000000000E+00 0.  1.
         -6    2    1    2    0  503  0.35899720021E+02  0.89038766576E+02 -0.32862131716E+03  0.38275505260E+03  0.17115130250E+03 0.  0.
        -24    2    3    3    0    0  0.55474765577E+01 -0.67033979752E+01 -0.77120375282E+02  0.11189967694E+03  0.80611881110E+02 0.  0.
          6    2    1    2  501    0 -0.35899720021E+02 -0.89038766576E+02 -0.20301260040E+03  0.28859333439E+03  0.18126032351E+03 0.  0.
         24    2    5    5    0    0 -0.69184930191E+02 -0.24735522706E+02 -0.18313681919E+03  0.21336070139E+03  0.81149822589E+02 0.  0.
          5    1    5    5  501    0  0.33285210169E+02 -0.64303243871E+02 -0.19875781204E+02  0.75232632991E+02  0.47000000000E+01 0. -1.
        -11    1    6    6    0    0 -0.40779844900E+01 -0.37465850312E+02 -0.10085543867E+03  0.10766679807E+03  0.00000000000E+00 0.  1.
         12    1    6    6    0    0 -0.65106945701E+02  0.12730327606E+02 -0.82281380526E+02  0.10569390333E+03  0.00000000000E+00 0. -1.
         -5    1    3    3    0  503  0.30352243464E+02  0.95742164552E+02 -0.25150094188E+03  0.27085537566E+03  0.47000000000E+01 0.  1.
         11    1    4    4    0    0  0.16893163176E+02  0.14757911140E+02  0.76668904448E+01  0.23705613521E+02  0.00000000000E+00 0. -1.
        -12    1    4    4    0    0 -0.11345686619E+02 -0.21461309115E+02 -0.84787265727E+02  0.88194063424E+02  0.00000000000E+00 0.  1.
<mgrwt>
<rscale>  2 0.20285857E+03</rscale>
<asrwt>0</asrwt>
<pdfrwt beam="1">  1       21 0.10747267E-01 0.20511459E+03</pdfrwt>
<pdfrwt beam="2">  1       21 0.92537097E-01 0.20511459E+03</pdfrwt>
<totfact> 0.69937651E+04</totfact>
</mgrwt>
</event>
<event>
12    1  0.1050690E-001  0.2073092E+03  0.7546771E-02  0.1143777E+00
         21   -1    0    0  503  502  0.00000000000E+00  0.00000000000E+00  0.73940842087E+03  0.73940842087E+03  0.00000000000E+00 0. -1.
         21   -1    0    0  501  503 -0.00000000000E+00 -0.00000000000E+00 -0.12403770246E+03  0.12403770246E+03  0.00000000000E+00 0. -1.
          6    2    1    2  501    0 -0.45208487290E+02 -0.10451043663E+03 -0.73430273566E+01  0.20713100567E+03  0.17286727501E+03 0.  0.
         24    2    3    3    0    0  0.23791032745E+02 -0.33812668242E+02 -0.45814904362E+02  0.10101181070E+03  0.79969185731E+02 0.  0.
         -6    2    1    2    0  502  0.45208487290E+02  0.10451043663E+03  0.62271374577E+03  0.65631511766E+03  0.17323650253E+03 0.  0.
        -24    2    5    5    0    0 -0.13606199046E+02  0.49965683618E+02  0.50232275534E+03  0.51157266367E+03  0.81833620767E+02 0.  0.
          5    1    3    3  501    0 -0.68999520035E+02 -0.70697768392E+02  0.38471877006E+02  0.10611919497E+03  0.47000000000E+01 0. -1.
        -13    1    4    4    0    0  0.39089143627E+01  0.10015718420E+02  0.18070460620E+02  0.21027024849E+02  0.00000000000E+00 0.  1.
         14    1    4    4    0    0  0.19882118382E+02 -0.43828386663E+02 -0.63885364982E+02  0.79984785852E+02  0.00000000000E+00 0. -1.
         -5    1    5    5    0  502  0.58814686337E+02  0.54544753016E+02  0.12039099043E+03  0.14474245399E+03  0.47000000000E+01 0.  1.
         11    1    6    6    0    0 -0.16992973536E+02  0.70637300626E+02  0.43626706481E+03  0.44227518722E+03  0.00000000000E+00 0. -1.
        -12    1    6    6    0    0  0.33867744892E+01 -0.20671617008E+02  0.66055690528E+02  0.69297476450E+02  0.00000000000E+00 0.  1.
<mgrwt>
<rscale>  2 0.20723209E+03</rscale>
<asrwt>0</asrwt>
<pdfrwt beam="1">  1       21 0.11375514E+00 0.20730925E+03</pdfrwt>
<pdfrwt beam="2">  1       21 0.19082724E-01 0.20730925E+03</pdfrwt>
<totfact> 0.15020547E+04</totfact>
</mgrwt>
</event>
<event>
12    1  0.1050690E-001  0.2149535E+03  0.7546771E-02  0.1137903E+00
         21   -1    0    0  501  502  0.00000000000E+00  0.00000000000E+00  0.41398526871E+03  0.41398526871E+03  0.00000000000E+00 0. -1.
         21   -1    0    0  502  503 -0.00000000000E+00 -0.00000000000E+00 -0.31824753191E+03  0.31824753191E+03  0.00000000000E+00 0.  1.
         -6    2    1    2    0  503  0.12690071110E+03  0.16438341946E+02 -0.24757022010E+03  0.32718298405E+03  0.17141668998E+03 0.  0.
        -24    2    3    3    0    0  0.57861976706E+02 -0.38907024384E+01 -0.23393053503E+03  0.25378170407E+03  0.79489069615E+02 0.  0.
          6    2    1    2  501    0 -0.12690071110E+03 -0.16438341946E+02  0.34330795691E+03  0.40504981658E+03  0.17271650491E+03 0.  0.
         24    2    5    5    0    0 -0.53662617579E+02 -0.61903598744E+02  0.12496661550E+03  0.17026067866E+03  0.81610732404E+02 0.  0.
          5    1    5    5  501    0 -0.73238093526E+02  0.45465256799E+02  0.21834134140E+03  0.23478913792E+03  0.47000000000E+01 0. -1.
        -13    1    6    6    0    0  0.59132338152E+00  0.14708195539E+02  0.99230422239E+00  0.14753485928E+02  0.00000000000E+00 0.  1.
         14    1    6    6    0    0 -0.54253940960E+02 -0.76611794283E+02  0.12397431128E+03  0.15550719273E+03  0.00000000000E+00 0. -1.
         -5    1    3    3    0  503  0.69038734399E+02  0.20329044384E+02 -0.13639685072E+02  0.73401279974E+02  0.47000000000E+01 0.  1.
         11    1    4    4    0    0 -0.19805544339E+02 -0.30746684399E-01 -0.35385351282E+02  0.40551000201E+02  0.00000000000E+00 0. -1.
        -12    1    4    4    0    0  0.77667521045E+02 -0.38599557540E+01 -0.19854518375E+03  0.21323070387E+03  0.00000000000E+00 0.  1.
<mgrwt>
<rscale>  2 0.21469226E+03</rscale>
<asrwt>0</asrwt>
<pdfrwt beam="1">  1       21 0.63690041E-01 0.21495348E+03</pdfrwt>
<pdfrwt beam="2">  1       21 0.48961159E-01 0.21495348E+03</pdfrwt>
<totfact> 0.89301708E+03</totfact>
</mgrwt>
</event>
<event>
12    1  0.1050690E-001  0.2062981E+03  0.7546771E-02  0.1144783E+00
         21   -1    0    0  501  502  0.00000000000E+00  0.00000000000E+00  0.12869570770E+03  0.12869570770E+03  0.00000000000E+00 0.  1.
         21   -1    0    0  502  503 -0.00000000000E+00 -0.00000000000E+00 -0.42721573670E+03  0.42721573670E+03  0.00000000000E+00 0.  1.
         -6    2    1    2    0  503  0.11313097799E+03 -0.90091711156E+01 -0.28307214501E+03  0.35026954928E+03  0.17227633187E+03 0.  0.
        -24    2    3    3    0    0  0.31022134588E+02  0.90771474020E+01 -0.24122559613E+03  0.25623657242E+03  0.80141283863E+02 0.  0.
          6    2    1    2  501    0 -0.11313097799E+03  0.90091711156E+01 -0.15447883987E+02  0.20564189513E+03  0.17079276497E+03 0.  0.
         24    2    5    5    0    0 -0.20350426751E+02  0.52965966753E+02  0.15968304667E+02  0.98173306785E+02  0.78507820681E+02 0.  0.
          5    1    5    5  501    0 -0.92780551241E+02 -0.43956795637E+02 -0.31416188654E+02  0.10746858835E+03  0.47000000000E+01 0. -1.
        -11    1    6    6    0    0  0.27363773464E+02  0.46500499817E+01 -0.23082136717E+01  0.27851874503E+02  0.00000000000E+00 0.  1.
         12    1    6    6    0    0 -0.47714200214E+02  0.48315916771E+02  0.18276518339E+02  0.70321432281E+02  0.00000000000E+00 0. -1.
         -5    1    3    3    0  503  0.82108843404E+02 -0.18086318518E+02 -0.41846548880E+02  0.94032976853E+02  0.47000000000E+01 0.  1.
         11    1    4    4    0    0  0.30310353177E+02 -0.28889143211E+02 -0.76695845443E+02  0.87381650324E+02  0.00000000000E+00 0. -1.
        -12    1    4    4    0    0  0.71178141133E+00  0.37966290613E+02 -0.16452975069E+03  0.16885492210E+03  0.00000000000E+00 0.  1.
<mgrwt>
<rscale>  2 0.20598811E+03</rscale>
<asrwt>0</asrwt>
<pdfrwt beam="1">  1       21 0.19799339E-01 0.20629813E+03</pdfrwt>
<pdfrwt beam="2">  1       21 0.65725500E-01 0.20629813E+03</pdfrwt>
<totfact> 0.49705846E+04</totfact>
</mgrwt>
</event>
<event>
12    1  0.1050690E-001  0.3091257E+03  0.7546771E-02  0.1080919E+00
         21   -1    0    0  503  502  0.00000000000E+00  0.00000000000E+00  0.84548146448E+03  0.84548146448E+03  0.00000000000E+00 0. -1.
         21   -1    0    0  501  503 -0.00000000000E+00 -0.00000000000E+00 -0.12310289679E+03  0.12310289679E+03  0.00000000000E+00 0.  1.
          6    2    1    2  501    0 -0.22035836273E+03  0.12750790836E+03  0.21876198314E+03  0.37766273569E+03  0.17307877381E+03 0.  0.
         24    2    3    3    0    0 -0.77037472434E+02  0.79166496038E+02  0.36562666496E+02  0.14081584268E+03  0.79310571274E+02 0.  0.
         -6    2    1    2    0  502  0.22035836273E+03 -0.12750790836E+03  0.50361658455E+03  0.59092162559E+03  0.17533575971E+03 0.  0.
        -24    2    5    5    0    0  0.11317169029E+03 -0.10327107966E+03  0.18158233925E+03  0.25062094713E+03  0.79787002912E+02 0.  0.
          5    1    3    3  501    0 -0.14332089030E+03  0.48341412319E+02  0.18219931665E+03  0.23684689301E+03  0.47000000000E+01 0. -1.
        -11    1    4    4    0    0 -0.60923613857E+02  0.86017499091E+02  0.51942627096E+02  0.11751056712E+03  0.00000000000E+00 0.  1.
         12    1    4    4    0    0 -0.16113858576E+02 -0.68510030533E+01 -0.15379960600E+02  0.23305275564E+02  0.00000000000E+00 0. -1.
         -5    1    5    5    0  502  0.10718667244E+03 -0.24236828693E+02  0.32203424530E+03  0.34030067845E+03  0.47000000000E+01 0.  1.
         13    1    6    6    0    0  0.60898235479E+02 -0.57682936368E+01  0.77421929220E+02  0.98671289745E+02  0.00000000000E+00 0. -1.
        -14    1    6    6    0    0  0.52273454811E+02 -0.97502786027E+02  0.10416041003E+03  0.15194965738E+03  0.00000000000E+00 0.  1.
<mgrwt>
<rscale>  2 0.30880658E+03</rscale>
<asrwt>0</asrwt>
<pdfrwt beam="1">  1       21 0.13007407E+00 0.30912571E+03</pdfrwt>
<pdfrwt beam="2">  1       21 0.18938908E-01 0.30912571E+03</pdfrwt>
<totfact> 0.10302735E+04</totfact>
</mgrwt>
</event>
<event>
12    1  0.1050690E-001  0.2968529E+03  0.7546771E-02  0.1087088E+00
         21   -1    0    0  501  502  0.00000000000E+00  0.00000000000E+00  0.57804408681E+03  0.57804408681E+03  0.00000000000E+00 0.  1.
         21   -1    0    0  502  503 -0.00000000000E+00 -0.00000000000E+00 -0.19674978979E+03  0.19674978979E+03  0.00000000000E+00 0.  1.
         -6    2    1    2    0  503 -0.40299356005E+01 -0.23904972548E+03  0.51432981363E+01  0.29689750310E+03  0.17595642130E+03 0.  0.
        -24    2    3    3    0    0 -0.13912619685E+02 -0.18239101167E+03 -0.59898502403E+02  0.20994692453E+03  0.83844131614E+02 0.  0.
          6    2    1    2  501    0  0.40299356005E+01  0.23904972548E+03  0.37615099888E+03  0.47789637350E+03  0.17243653387E+03 0.  0.
         24    2    5    5    0    0  0.86423307237E+01  0.25641120357E+03  0.37141776657E+03  0.45873420769E+03  0.81636516257E+02 0.  0.
          5    1    5    5  501    0 -0.46123951231E+01 -0.17361478094E+02  0.47332323128E+01  0.19162165809E+02  0.47000000000E+01 0. -1.
        -11    1    6    6    0    0  0.41372690228E+02  0.12691974413E+03  0.21475899101E+03  0.25286705038E+03  0.00000000000E+00 0.  1.
         12    1    6    6    0    0 -0.32730359504E+02  0.12949145944E+03  0.15665877556E+03  0.20586715732E+03  0.00000000000E+00 0. -1.
         -5    1    3    3    0  503  0.98826840849E+01 -0.56658713810E+02  0.65041800539E+02  0.86950578565E+02  0.47000000000E+01 0.  1.
         11    1    4    4    0    0  0.84735201323E+01  0.90855936582E+00  0.94206905918E+01  0.12703363129E+02  0.00000000000E+00 0. -1.
        -12    1    4    4    0    0 -0.22386139818E+02 -0.18329957103E+03 -0.69319192995E+02  0.19724356140E+03  0.00000000000E+00 0.  1.
<mgrwt>
<rscale>  2 0.29633340E+03</rscale>
<asrwt>0</asrwt>
<pdfrwt beam="1">  1       21 0.88929859E-01 0.29685295E+03</pdfrwt>
<pdfrwt beam="2">  1       21 0.30269199E-01 0.29685295E+03</pdfrwt>
<totfact> 0.10660860E+04</totfact>
</mgrwt>
</event>
<event>
12    1  0.1050690E-001  0.1881554E+03  0.7546771E-02  0.1160391E+00
         21   -1    0    0  503  502  0.00000000000E+00  0.00000000000E+00  0.66292417983E+03  0.66292417983E+03  0.00000000000E+00 0. -1.
         21   -1    0    0  501  503 -0.00000000000E+00 -0.00000000000E+00 -0.79049699183E+02  0.79049699183E+02  0.00000000000E+00 0.  1.
          6    2    1    2  501    0  0.20280191874E+02  0.68845887853E+02  0.78751442759E+02  0.20294537233E+03  0.17272519202E+03 0.  0.
         24    2    3    3    0    0 -0.12100398383E+02  0.10732235929E+03  0.43107355272E+02  0.14112682777E+03  0.79962672497E+02 0.  0.
         -6    2    1    2    0  502 -0.20280191874E+02 -0.68845887853E+02  0.50512303789E+03  0.53902850668E+03  0.17392931080E+03 0.  0.
        -24    2    5    5    0    0 -0.36466931770E+01 -0.69745887908E+02  0.51045018943E+03  0.52091906653E+03  0.76938226757E+02 0.  0.
          5    1    3    3  501    0  0.32380590257E+02 -0.38476471432E+02  0.35644087487E+02  0.61818544565E+02  0.47000000000E+01 0. -1.
        -11    1    4    4    0    0  0.90099498659E+01 -0.10261725261E+02  0.10690452507E+02  0.17342663484E+02  0.00000000000E+00 0.  1.
         12    1    4    4    0    0 -0.21110348249E+02  0.11758408455E+03  0.32416902764E+02  0.12378416428E+03  0.00000000000E+00 0. -1.
         -5    1    5    5    0  502 -0.16633498697E+02  0.90000005465E+00 -0.53271515429E+01  0.18109440151E+02  0.47000000000E+01 0.  1.
         13    1    6    6    0    0  0.29702262210E+01  0.15774524159E+02  0.12586580402E+03  0.12688521773E+03  0.00000000000E+00 0. -1.
        -14    1    6    6    0    0 -0.66169193980E+01 -0.85520412067E+02  0.38458438541E+03  0.39403384881E+03  0.00000000000E+00 0.  1.
<mgrwt>
<rscale>  2 0.18787663E+03</rscale>
<asrwt>0</asrwt>
<pdfrwt beam="1">  1       21 0.10198833E+00 0.18815538E+03</pdfrwt>
<pdfrwt beam="2">  1       21 0.12161493E-01 0.18815538E+03</pdfrwt>
<totfact> 0.44984837E+04</totfact>
</mgrwt>
</event>
<event>
12    1  0.1050690E-001  0.2001095E+03  0.7546771E-02  0.1152490E+00
         21   -1    0    0  503  502  0.00000000000E+00  0.00000000000E+00  0.54201623098E+02  0.54201623098E+02  0.00000000000E+00 0.  1.
         21   -1    0    0  501  503 -0.00000000000E+00 -0.00000000000E+00 -0.90180500522E+03  0.90180500522E+03  0.00000000000E+00 0.  1.
          6    2    1    2  501    0 -0.31589880851E+02  0.97534323408E+02 -0.64359886797E+03  0.67024159002E+03  0.15650374218E+03 0.  0.
         24    2    3    3    0    0 -0.72964348959E+02  0.79080297345E+02 -0.54580679592E+03  0.56236306090E+03  0.82277968733E+02 0.  0.
         -6    2    1    2    0  502  0.31589880851E+02 -0.97534323408E+02 -0.20400451415E+03  0.28576503830E+03  0.17185153624E+03 0.  0.
        -24    2    5    5    0    0 -0.35276182935E+02 -0.13820951642E+02 -0.92707142111E+02  0.13120697762E+03  0.84765730054E+02 0.  0.
          5    1    3    3  501    0  0.41374468108E+02  0.18454026063E+02 -0.97792072051E+02  0.10787852912E+03  0.47000000000E+01 0. -1.
        -13    1    4    4    0    0  0.32968264480E+00  0.59289307056E+02 -0.25614802297E+03  0.26292040676E+03  0.00000000000E+00 0.  1.
         14    1    4    4    0    0 -0.73294031604E+02  0.19790990288E+02 -0.28965877295E+03  0.29944265413E+03  0.00000000000E+00 0. -1.
         -5    1    5    5    0  502  0.66866063786E+02 -0.83713371766E+02 -0.11129737204E+03  0.15455806068E+03  0.47000000000E+01 0.  1.
         11    1    6    6    0    0  0.20773973822E+02  0.70061049085E+01 -0.58148372220E+02  0.62143999599E+02  0.00000000000E+00 0. -1.
        -12    1    6    6    0    0 -0.56050156757E+02 -0.20827056550E+02 -0.34558769891E+02  0.69062978023E+02  0.00000000000E+00 0.  1.
<mgrwt>
<rscale>  2 0.19677320E+03</rscale>
<asrwt>0</asrwt>
<pdfrwt beam="1">  1       21 0.83387116E-02 0.20010951E+03</pdfrwt>
<pdfrwt beam="2">  1       21 0.13873923E+00 0.20010951E+03</pdfrwt>
<totfact> 0.40714300E+04</totfact>
</mgrwt>
</event>
<event>
12    1  0.1050690E-001  0.2233632E+03  0.7546771E-02  0.1131476E+00
         21   -1    0    0  501  502  0.00000000000E+00  0.00000000000E+00  0.17730308741E+03  0.17730308741E+03  0.00000000000E+00 0.  1.
         21   -1    0    0  502  503 -0.00000000000E+00 -0.00000000000E+00 -0.66788779491E+03  0.66788779491E+03  0.00000000000E+00 0.  1.
         -6    2    1    2    0  503 -0.16191118637E+02  0.14048442466E+03 -0.56688887555E+03  0.60915388452E+03  0.17235844020E+03 0.  0.
        -24    2    3    3    0    0  0.42096423104E+02  0.56596338393E+02 -0.18018799619E+03  0.20916099878E+03  0.79406266027E+02 0.  0.
          6    2    1    2  501    0  0.16191118637E+02 -0.14048442466E+03  0.76304168050E+02  0.23603699781E+03  0.17289624744E+03 0.  0.
         24    2    5    5    0    0  0.22063150079E+02 -0.15318373745E+03  0.15184646322E+02  0.17316061723E+03  0.76170767782E+02 0.  0.
          5    1    5    5  501    0 -0.58720314419E+01  0.12699312791E+02  0.61119521727E+02  0.62876380580E+02  0.47000000000E+01 0. -1.
        -11    1    6    6    0    0  0.29979655240E+02 -0.10301234091E+03  0.42609068854E+02  0.11543766655E+03  0.00000000000E+00 0.  1.
         12    1    6    6    0    0 -0.79165051609E+01 -0.50171396536E+02 -0.27424422532E+02  0.57722950683E+02  0.00000000000E+00 0. -1.
         -5    1    3    3    0  503 -0.58287541741E+02  0.83888086267E+02 -0.38670087936E+03  0.39999288573E+03  0.47000000000E+01 0.  1.
         11    1    4    4    0    0  0.11051720683E+02  0.11987682950E+02  0.42770492812E+01  0.16856400064E+02  0.00000000000E+00 0. -1.
        -12    1    4    4    0    0  0.31044702422E+02  0.44608655443E+02 -0.18446504547E+03  0.19230459872E+03  0.00000000000E+00 0.  1.
<mgrwt>
<rscale>  2 0.22325916E+03</rscale>
<asrwt>0</asrwt>
<pdfrwt beam="1">  1       21 0.27277398E-01 0.22336324E+03</pdfrwt>
<pdfrwt beam="2">  1       21 0.10275197E+00 0.22336324E+03</pdfrwt>
<totfact> 0.96559037E+03</totfact>
</mgrwt>
</event>
<event>
12    1  0.1050690E-001  0.1909565E+03  0.7546771E-02  0.1158331E+00
         21   -1    0    0  501  502  0.00000000000E+00  0.00000000000E+00  0.95145910727E+02  0.95145910727E+02  0.00000000000E+00 0. -1.
         21   -1    0    0  502  503 -0.00000000000E+00 -0.00000000000E+00 -0.38310810478E+03  0.38310810478E+03  0.00000000000E+00 0.  1.
         -6    2    1    2    0  503 -0.20200656411E+02  0.77855423720E+02 -0.17586758097E+03  0.25960313896E+03  0.17319021393E+03 0.  0.
        -24    2    3    3    0    0 -0.42770628475E+02  0.34278622160E+02 -0.18381776051E+03  0.20966681323E+03  0.84657267208E+02 0.  0.
          6    2    1    2  501    0  0.20200656411E+02 -0.77855423720E+02 -0.11209461308E+03  0.21865087654E+03  0.16962744474E+03 0.  0.
         24    2    5    5    0    0 -0.49330626242E+02 -0.31273464348E+02 -0.35215933683E+02  0.10491038440E+03  0.79715033168E+02 0.  0.
          5    1    5    5  501    0  0.69531282654E+02 -0.46581959372E+02 -0.76878679395E+02  0.11374049214E+03  0.47000000000E+01 0. -1.
        -13    1    6    6    0    0 -0.23494197313E+02  0.15936521132E+02 -0.41971135345E+02  0.50670762924E+02  0.00000000000E+00 0.  1.
         14    1    6    6    0    0 -0.25836428930E+02 -0.47209985480E+02  0.67552016616E+01  0.54239621481E+02  0.00000000000E+00 0. -1.
         -5    1    3    3    0  503  0.22569972063E+02  0.43576801560E+02  0.79501795413E+01  0.49936325735E+02  0.47000000000E+01 0.  1.
         13    1    4    4    0    0 -0.32994381758E+02  0.92486332863E+01 -0.12843861212E+02  0.36594141827E+02  0.00000000000E+00 0. -1.
        -14    1    4    4    0    0 -0.97762467170E+01  0.25029988873E+02 -0.17097389930E+03  0.17307267140E+03  0.00000000000E+00 0.  1.
<mgrwt>
<rscale>  2 0.19014501E+03</rscale>
<asrwt>0</asrwt>
<pdfrwt beam="1">  1       21 0.14637833E-01 0.19095650E+03</pdfrwt>
<pdfrwt beam="2">  1       21 0.58939707E-01 0.19095650E+03</pdfrwt>
<totfact> 0.11048400E+05</totfact>
</mgrwt>
</event>
<event>
12    1  0.1050690E-001  0.2629486E+03  0.7546771E-02  0.1105752E+00
         21   -1    0    0  503  502  0.00000000000E+00  0.00000000000E+00  0.37160654332E+03  0.37160654332E+03  0.00000000000E+00 0. -1.
         21   -1    0    0  501  503 -0.00000000000E+00 -0.00000000000E+00 -0.26819935281E+03  0.26819935281E+03  0.00000000000E+00 0.  1.
          6    2    1    2  501    0 -0.19669521220E+03 -0.32087977160E+01 -0.12736498819E+03  0.28995196669E+03  0.17073663897E+03 0.  0.
         24    2    3    3    0    0 -0.15300775551E+03  0.57893341576E+02 -0.72058776709E+02  0.19655532689E+03  0.81722193941E+02 0.  0.
         -6    2    1    2    0  502  0.19669521220E+03  0.32087977160E+01  0.23077217871E+03  0.34985392943E+03  0.17447828115E+03 0.  0.
        -24    2    5    5    0    0  0.15607802331E+03  0.33559083987E+02  0.23853164769E+03  0.29834475289E+03  0.81398299421E+02 0.  0.
          5    1    3    3  501    0 -0.43687456691E+02 -0.61102139292E+02 -0.55306211484E+02  0.93396639806E+02  0.47000000000E+01 0. -1.
        -11    1    4    4    0    0 -0.26034074221E+02  0.93863486511E+01 -0.52343733080E+02  0.59209314759E+02  0.00000000000E+00 0.  1.
         12    1    4    4    0    0 -0.12697368128E+03  0.48506992925E+02 -0.19715043629E+02  0.13734601213E+03  0.00000000000E+00 0. -1.
         -5    1    5    5    0  502  0.40617188883E+02 -0.30350286271E+02 -0.77594689803E+01  0.51509176545E+02  0.47000000000E+01 0.  1.
         11    1    6    6    0    0  0.81268164179E+02  0.11008331898E+02  0.18849177604E+03  0.20555983926E+03  0.00000000000E+00 0. -1.
        -12    1    6    6    0    0  0.74809859135E+02  0.22550752089E+02  0.50039871648E+02  0.92784913634E+02  0.00000000000E+00 0.  1.
<mgrwt>
<rscale>  2 0.26232950E+03</rscale>
<asrwt>0</asrwt>
<pdfrwt beam="1">  1       21 0.57170238E-01 0.26294861E+03</pdfrwt>
<pdfrwt beam="2">  1       21 0.41261439E-01 0.26294861E+03</pdfrwt>
<totfact> 0.15628280E+04</totfact>
</mgrwt>
</event>
<event>
12    1  0.1050690E-001  0.1738995E+03  0.7546771E-02  0.1174006E+00
         21   -1    0    0  503  502  0.00000000000E+00  0.00000000000E+00  0.40826644762E+03  0.40826644762E+03  0.00000000000E+00 0. -1.
         21   -1    0    0  501  503 -0.00000000000E+00 -0.00000000000E+00 -0.29220587212E+03  0.29220587212E+03  0.00000000000E+00 0. -1.
          6    2    1    2  501    0  0.11168455280E+02 -0.19658308052E+02 -0.24479540498E+03  0.29990015443E+03  0.17176765953E+03 0.  0.
         24    2    3    3    0    0  0.70965921715E+02 -0.52214843249E+01 -0.12433720792E+03  0.16456196282E+03  0.80978221695E+02 0.  0.
         -6    2    1    2    0  502 -0.11168455280E+02  0.19658308052E+02  0.36085598048E+03  0.40057216531E+03  0.17242342505E+03 0.  0.
        -24    2    5    5    0    0 -0.40113465127E+02  0.69221105036E+02  0.25677243896E+03  0.28161940975E+03  0.83526972120E+02 0.  0.
          5    1    3    3  501    0 -0.59797466435E+02 -0.14436823727E+02 -0.12045819705E+03  0.13533819161E+03  0.47000000000E+01 0. -1.
        -11    1    4    4    0    0  0.25433598913E+02  0.19899384085E+02 -0.10370404847E+03  0.10861575903E+03  0.00000000000E+00 0.  1.
         12    1    4    4    0    0  0.45532322802E+02 -0.25120868410E+02 -0.20633159456E+02  0.55946203790E+02  0.00000000000E+00 0. -1.
         -5    1    5    5    0  502  0.28945009848E+02 -0.49562796985E+02  0.10408354152E+03  0.11895275556E+03  0.47000000000E+01 0.  1.
         11    1    6    6    0    0 -0.96000258037E+01 -0.70676534017E+01  0.13002213826E+03  0.13056748698E+03  0.00000000000E+00 0. -1.
        -12    1    6    6    0    0 -0.30513439323E+02  0.76288758438E+02  0.12675030070E+03  0.15105192277E+03  0.00000000000E+00 0.  1.
<mgrwt>
<rscale>  2 0.17373668E+03</rscale>
<asrwt>0</asrwt>
<pdfrwt beam="1">  1       21 0.62810223E-01 0.17389946E+03</pdfrwt>
<pdfrwt beam="2">  1       21 0.44954749E-01 0.17389946E+03</pdfrwt>
<totfact> 0.11292717E+04</totfact>
</mgrwt>
</event>
<event>
12    1  0.1050690E-001  0.2793589E+03  0.7546771E-02  0.1096279E+00
         21   -1    0    0  503  502  0.00000000000E+00  0.00000000000E+00  0.29860626492E+03  0.29860626492E+03  0.00000000000E+00 0. -1.
         21   -1    0    0  501  503 -0.00000000000E+00 -0.00000000000E+00 -0.53477680932E+03  0.53477680932E+03  0.00000000000E+00 0. -1.
          6    2    1    2  501    0 -0.20568213719E+01  0.21881416299E+03 -0.41674219483E+03  0.50074586511E+03  0.17084641065E+03 0.  0.
         24    2    3    3    0    0  0.15021520235E+02  0.11415013418E+03 -0.11825211543E+03  0.18394206750E+03  0.81210973331E+02 0.  0.
         -6    2    1    2    0  502  0.20568213719E+01 -0.21881416299E+03  0.18057165043E+03  0.33263720914E+03  0.17365921663E+03 0.  0.
        -24    2    5    5    0    0 -0.64651086990E+00 -0.10920934715E+03  0.21508864197E+02  0.13939232919E+03  0.83907632049E+02 0.  0.
          5    1    3    3  501    0 -0.17078341607E+02  0.10466402881E+03 -0.29849007940E+03  0.31680379761E+03  0.47000000000E+01 0. -1.
        -11    1    4    4    0    0  0.14921416893E+02 -0.18002050550E+01  0.38935458532E+01  0.15525756653E+02  0.00000000000E+00 0.  1.
         12    1    4    4    0    0  0.10010334204E+00  0.11595033923E+03 -0.12214566128E+03  0.16841631084E+03  0.00000000000E+00 0. -1.
         -5    1    5    5    0  502  0.27033322418E+01 -0.10960481584E+03  0.15906278624E+03  0.19324487995E+03  0.47000000000E+01 0.  1.
         13    1    6    6    0    0 -0.70983730654E+01 -0.32084017260E+01 -0.22971381981E+02  0.24256239031E+02  0.00000000000E+00 0. -1.
        -14    1    6    6    0    0  0.64518621955E+01 -0.10600094542E+03  0.44480246177E+02  0.11513609016E+03  0.00000000000E+00 0.  1.
<mgrwt>
<rscale>  2 0.27892293E+03</rscale>
<asrwt>0</asrwt>
<pdfrwt beam="1">  1       21 0.45939426E-01 0.27935889E+03</pdfrwt>
<pdfrwt beam="2">  1       21 0.82273354E-01 0.27935889E+03</pdfrwt>
<totfact> 0.55394819E+03</totfact>
</mgrwt>
</event>
<event>
12    1  0.1050690E-001  0.2064968E+03  0.7546771E-02  0.1144471E+00
         21   -1    0    0  501  502  0.00000000000E+00  0.00000000000E+00  0.11529520228E+04  0.11529520228E+04  0.00000000000E+00 0.  1.
         21   -1    0    0  502  503 -0.00000000000E+00 -0.00000000000E+00 -0.94124857071E+02  0.94124857071E+02  0.00000000000E+00 0. -1.
         -6    2    1    2    0  503 -0.19222142968E+02 -0.11020438643E+03  0.42959949362E+02  0.21043464048E+03  0.17298174208E+03 0.  0.
        -24    2    3    3    0    0 -0.33207422937E+02 -0.67713773102E+02 -0.41761320461E+02  0.11451371556E+03  0.75375693417E+02 0.  0.
          6    2    1    2  501    0  0.19222142968E+02  0.11020438643E+03  0.10158672164E+04  0.10366422394E+04  0.17356967950E+03 0.  0.
         24    2    5    5    0    0 -0.36510663422E+00  0.39718490363E+02  0.85782562635E+03  0.86242640755E+03  0.79604091828E+02 0.  0.
          5    1    5    5  501    0  0.19587249602E+02  0.70485896067E+02  0.15804159003E+03  0.17421583186E+03  0.47000000000E+01 0. -1.
        -13    1    6    6    0    0 -0.18010089916E+02  0.42300391104E+02  0.81127901832E+03  0.81258066184E+03  0.00000000000E+00 0.  1.
         14    1    6    6    0    0  0.17644983281E+02 -0.25819007419E+01  0.46546608033E+02  0.49845745715E+02  0.00000000000E+00 0. -1.
         -5    1    3    3    0  503  0.13985279969E+02 -0.42490613327E+02  0.84721269823E+02  0.95920924918E+02  0.47000000000E+01 0.  1.
         13    1    4    4    0    0 -0.37848201335E+02 -0.56550460033E+02  0.30347318008E+01  0.68114979786E+02  0.00000000000E+00 0. -1.
        -14    1    4    4    0    0  0.46407783974E+01 -0.11163313070E+02 -0.44796052262E+02  0.46398735771E+02  0.00000000000E+00 0.  1.
<mgrwt>
<rscale>  2 0.20637321E+03</rscale>
<asrwt>0</asrwt>
<pdfrwt beam="1">  1       21 0.17737722E+00 0.20649681E+03</pdfrwt>
<pdfrwt beam="2">  1       21 0.14480748E-01 0.20649681E+03</pdfrwt>
<totfact> 0.78414761E+03</totfact>
</mgrwt>
</event>
<event>
12    1  0.1050690E-001  0.2207758E+03  0.7546771E-02  0.1133422E+00
         21   -1    0    0  501  502  0.00000000000E+00  0.00000000000E+00  0.12769105695E+04  0.12769105695E+04  0.00000000000E+00 0.  1.
         21   -1    0    0  502  503 -0.00000000000E+00 -0.00000000000E+00 -0.44960147118E+02  0.44960147118E+02  0.00000000000E+00 0. -1.
         -6    2    1    2    0  503 -0.12216420208E+02  0.13596437154E+03  0.87408974297E+03  0.90138742076E+03  0.17271610316E+03 0.  0.
        -24    2    3    3    0    0 -0.31970756872E+02  0.13259894519E+03  0.45344500705E+03  0.48023941380E+03  0.80080650502E+02 0.  0.
          6    2    1    2  501    0  0.12216420208E+02 -0.13596437154E+03  0.35786067942E+03  0.42048329586E+03  0.17351191595E+03 0.  0.
         24    2    5    5    0    0  0.17798652926E+02 -0.80684581402E+02  0.87424232581E+02  0.14435836346E+03  0.79809441394E+02 0.  0.
          5    1    5    5  501    0 -0.55822327185E+01 -0.55279790134E+02  0.27043644684E+03  0.27612493241E+03  0.47000000000E+01 0. -1.
        -13    1    6    6    0    0 -0.10850014744E+02  0.41534089842E+01  0.42726426723E+02  0.44277772828E+02  0.00000000000E+00 0.  1.
         14    1    6    6    0    0  0.28648667670E+02 -0.84837990386E+02  0.44697805858E+02  0.10008059063E+03  0.00000000000E+00 0. -1.
         -5    1    3    3    0  503  0.19754336665E+02  0.33654263434E+01  0.42064473591E+03  0.42114800696E+03  0.47000000000E+01 0.  1.
         13    1    4    4    0    0  0.17590624860E+02  0.32429322626E+02  0.53602832766E+02  0.65071919670E+02  0.00000000000E+00 0. -1.
        -14    1    4    4    0    0 -0.49561381732E+02  0.10016962257E+03  0.39984217429E+03  0.41516749413E+03  0.00000000000E+00 0.  1.
<mgrwt>
<rscale>  2 0.22061937E+03</rscale>
<asrwt>0</asrwt>
<pdfrwt beam="1">  1       21 0.19644775E+00 0.22077576E+03</pdfrwt>
<pdfrwt beam="2">  1       21 0.69169467E-02 0.22077576E+03</pdfrwt>
<totfact> 0.21419491E+04</totfact>
</mgrwt>
</event>
<event>
12    1  0.1050690E-001  0.1749826E+03  0.7546771E-02  0.1172801E+00
         21   -1    0    0  503  502  0.00000000000E+00  0.00000000000E+00  0.25088060982E+02  0.25088060982E+02  0.00000000000E+00 0. -1.
         21   -1    0    0  501  503 -0.00000000000E+00 -0.00000000000E+00 -0.12580466600E+04  0.12580466600E+04  0.00000000000E+00 0. -1.
          6    2    1    2  501    0  0.25107431916E+02  0.63033496873E+01 -0.50312503148E+03  0.53261760618E+03  0.17284849365E+03 0.  0.
         24    2    3    3    0    0 -0.29993808881E+02  0.45841436910E+02 -0.20367695586E+03  0.22554978457E+03  0.79920817441E+02 0.  0.
         -6    2    1    2    0  502 -0.25107431916E+02 -0.63033496873E+01 -0.72983356753E+03  0.75051711480E+03  0.17305718116E+03 0.  0.
        -24    2    5    5    0    0 -0.48598444339E+02  0.22653708528E+02 -0.68677638322E+03  0.69336512440E+03  0.78856806206E+02 0.  0.
          5    1    3    3  501    0  0.55101240797E+02 -0.39538087222E+02 -0.29944807561E+03  0.30706782161E+03  0.47000000000E+01 0. -1.
        -13    1    4    4    0    0 -0.80703614667E+01 -0.10591718315E+02 -0.12774171442E+03  0.12843387728E+03  0.00000000000E+00 0.  1.
         14    1    4    4    0    0 -0.21923447414E+02  0.56433155224E+02 -0.75935241447E+02  0.97115907290E+02  0.00000000000E+00 0. -1.
         -5    1    5    5    0  502  0.23491012423E+02 -0.28957058216E+02 -0.43057184313E+02  0.57151990395E+02  0.47000000000E+01 0.  1.
         11    1    6    6    0    0 -0.40817279766E+02 -0.14936052979E+01 -0.13590882640E+03  0.14191367192E+03  0.00000000000E+00 0. -1.
        -12    1    6    6    0    0 -0.77811645729E+01  0.24147313826E+02 -0.55086755682E+03  0.55145145248E+03  0.00000000000E+00 0.  1.
<mgrwt>
<rscale>  2 0.17493096E+03</rscale>
<asrwt>0</asrwt>
<pdfrwt beam="1">  1       21 0.38597026E-02 0.17498258E+03</pdfrwt>
<pdfrwt beam="2">  1       21 0.19354559E+00 0.17498258E+03</pdfrwt>
<totfact> 0.62183236E+04</totfact>
</mgrwt>
</event>
<event>
12    1  0.1050690E-001  0.1783992E+03  0.7546771E-02  0.1169638E+00
         21   -1    0    0  501  502  0.00000000000E+00  0.00000000000E+00  0.60803864627E+02  0.60803864627E+02  0.00000000000E+00 0.  1.
         21   -1    0    0  502  503 -0.00000000000E+00 -0.00000000000E+00 -0.52167040128E+03  0.52167040128E+03  0.00000000000E+00 0.  1.
         -6    2    1    2    0  503  0.40391964776E+02 -0.19338435941E+02 -0.24699048228E+03  0.30468108438E+03  0.17268693905E+03 0.  0.
        -24    2    3    3    0    0  0.81552097189E+02 -0.41782708692E+02 -0.13351403164E+03  0.18181165478E+03  0.82661610603E+02 0.  0.
          6    2    1    2  501    0 -0.40391964776E+02  0.19338435941E+02 -0.21387605438E+03  0.27779318153E+03  0.17152433981E+03 0.  0.
         24    2    5    5    0    0  0.92444621743E+01 -0.26865031910E+02 -0.49974164564E+02  0.10035458707E+03  0.82258349127E+02 0.  0.
          5    1    5    5  501    0 -0.49636426951E+02  0.46203467851E+02 -0.16390188981E+03  0.17743859447E+03  0.47000000000E+01 0. -1.
        -11    1    6    6    0    0 -0.92392959743E+01  0.12298602135E+02  0.15510928643E+02  0.21845116433E+02  0.00000000000E+00 0.  1.
         12    1    6    6    0    0  0.18483758149E+02 -0.39163634045E+02 -0.65485093208E+02  0.78509470635E+02  0.00000000000E+00 0. -1.
         -5    1    3    3    0  503 -0.41160132413E+02  0.22444272751E+02 -0.11347645064E+03  0.12286942960E+03  0.47000000000E+01 0.  1.
         11    1    4    4    0    0 -0.10294359083E+01 -0.15149961585E+02  0.69566083824E+01  0.16702558921E+02  0.00000000000E+00 0. -1.
        -12    1    4    4    0    0  0.82581533097E+02 -0.26632747107E+02 -0.14047064002E+03  0.16510909586E+03  0.00000000000E+00 0.  1.
<mgrwt>
<rscale>  2 0.17811722E+03</rscale>
<asrwt>0</asrwt>
<pdfrwt beam="1">  1       21 0.93544411E-02 0.17839917E+03</pdfrwt>
<pdfrwt beam="2">  1       21 0.80256981E-01 0.17839917E+03</pdfrwt>
<totfact> 0.12528064E+05</totfact>
</mgrwt>
</event>
<event>
12    1  0.1050690E-001  0.3160877E+03  0.7546771E-02  0.1077495E+00
         21   -1    0    0  501  502  0.00000000000E+00  0.00000000000E+00  0.49102789675E+03  0.49102789675E+03  0.00000000000E+00 0. -1.
         21   -1    0    0  502  503 -0.00000000000E+00 -0.00000000000E+00 -0.23187661170E+03  0.23187661170E+03  0.00000000000E+00 0.  1.
         -6    2    1    2    0  503  0.17088547797E+02 -0.26389835511E+03  0.26522539744E+01  0.31583793904E+03  0.17266212380E+03 0.  0.
        -24    2    3    3    0    0  0.44652958074E+02 -0.17124519823E+03  0.60043498149E+02  0.20332016667E+03  0.80094094175E+02 0.  0.
          6    2    1    2  501    0 -0.17088547797E+02  0.26389835511E+03  0.25649903107E+03  0.40706656941E+03  0.17313890001E+03 0.  0.
         24    2    5    5    0    0  0.19097127776E+02  0.25222365375E+03  0.17875215890E+03  0.32039265233E+03  0.81961244253E+02 0.  0.
          5    1    5    5  501    0 -0.36185675573E+02  0.11674701357E+02  0.77746872175E+02  0.86673917077E+02  0.47000000000E+01 0. -1.
        -11    1    6    6    0    0 -0.14356524002E+00  0.12762799316E+03  0.41921999663E+02  0.13433681291E+03  0.00000000000E+00 0.  1.
         12    1    6    6    0    0  0.19240693016E+02  0.12459566059E+03  0.13683015923E+03  0.18605583942E+03  0.00000000000E+00 0. -1.
         -5    1    3    3    0  503 -0.27564410277E+02 -0.92653156872E+02 -0.57391244174E+02  0.11251777237E+03  0.47000000000E+01 0.  1.
         11    1    4    4    0    0 -0.42916731687E+01 -0.12865645547E+03  0.47670443167E+02  0.13727116647E+03  0.00000000000E+00 0. -1.
        -12    1    4    4    0    0  0.48944631243E+02 -0.42588742766E+02  0.12373054982E+02  0.66049000200E+02  0.00000000000E+00 0.  1.
<mgrwt>
<rscale>  2 0.31602246E+03</rscale>
<asrwt>0</asrwt>
<pdfrwt beam="1">  1       21 0.75542753E-01 0.31608771E+03</pdfrwt>
<pdfrwt beam="2">  1       21 0.35673325E-01 0.31608771E+03</pdfrwt>
<totfact> 0.11091671E+04</totfact>
</mgrwt>
</event>
<event>
12    1  0.1050690E-001  0.1755559E+03  0.7546771E-02  0.1172215E+00
         21   -1    0    0  503  502  0.00000000000E+00  0.00000000000E+00  0.21982710934E+03  0.21982710934E+03  0.00000000000E+00 0. -1.
         21   -1    0    0  501  503 -0.00000000000E+00 -0.00000000000E+00 -0.15781297486E+03  0.15781297486E+03  0.00000000000E+00 0. -1.
          6    2    1    2  501    0 -0.18337701642E+01 -0.32488539179E+02 -0.32291102071E+02  0.17850094632E+03  0.17251378112E+03 0.  0.
         24    2    3    3    0    0 -0.41531214983E+01 -0.55057814417E+02 -0.79864992648E+02  0.12558481797E+03  0.79652483373E+02 0.  0.
         -6    2    1    2    0  502  0.18337701642E+01  0.32488539179E+02  0.94305236548E+02  0.19913913788E+03  0.17234863128E+03 0.  0.
        -24    2    5    5    0    0  0.11223190886E+02  0.18334809710E+02  0.13224667778E+03  0.15730455599E+03  0.82422171098E+02 0.  0.
          5    1    3    3  501    0  0.23193513340E+01  0.22569275238E+02  0.47573890576E+02  0.52916128354E+02  0.47000000000E+01 0. -1.
        -11    1    4    4    0    0  0.32096580603E+02 -0.10696290675E+02 -0.51601863256E+02  0.61703755251E+02  0.00000000000E+00 0.  1.
         12    1    4    4    0    0 -0.36249702102E+02 -0.44361523741E+02 -0.28263129392E+02  0.63881062719E+02  0.00000000000E+00 0. -1.
         -5    1    5    5    0  502 -0.93894207213E+01  0.14153729469E+02 -0.37941441235E+02  0.41834581896E+02  0.47000000000E+01 0.  1.
         13    1    6    6    0    0  0.36630978130E+02 -0.17881352974E+02  0.68495993542E+02  0.79707417937E+02  0.00000000000E+00 0. -1.
        -14    1    6    6    0    0 -0.25407787244E+02  0.36216162683E+02  0.63750684242E+02  0.77597138049E+02  0.00000000000E+00 0.  1.
<mgrwt>
<rscale>  2 0.17551531E+03</rscale>
<asrwt>0</asrwt>
<pdfrwt beam="1">  1       21 0.33819555E-01 0.17555590E+03</pdfrwt>
<pdfrwt beam="2">  1       21 0.24278919E-01 0.17555590E+03</pdfrwt>
<totfact> 0.13567732E+05</totfact>
</mgrwt>
</event>
<event>
12    1  0.1050690E-001  0.1786363E+03  0.7546771E-02  0.1169493E+00
         21   -1    0    0  501  502  0.00000000000E+00  0.00000000000E+00  0.58634504860E+02  0.58634504860E+02  0.00000000000E+00 0. -1.
         21   -1    0    0  502  503 -0.00000000000E+00 -0.00000000000E+00 -0.92585792647E+03  0.92585792647E+03  0.00000000000E+00 0. -1.
         -6    2    1    2    0  503 -0.30016746306E+02 -0.30637965753E+02 -0.75254908633E+03  0.77346045036E+03  0.17341064252E+03 0.  0.
        -24    2    3    3    0    0  0.43992354645E+02 -0.22750088417E+02 -0.53802641310E+03  0.54634454832E+03  0.81037340128E+02 0.  0.
          6    2    1    2  501    0  0.30016746306E+02  0.30637965753E+02 -0.11467433528E+03  0.21103198096E+03  0.17188543805E+03 0.  0.
         24    2    5    5    0    0  0.80470585093E+02  0.32880724286E+01 -0.44103253119E+02  0.11994974257E+03  0.77178477064E+02 0.  0.
          5    1    5    5  501    0 -0.50453838786E+02  0.27349893325E+02 -0.70571082161E+02  0.91082238392E+02  0.47000000000E+01 0. -1.
        -11    1    6    6    0    0  0.41100892584E+02  0.16249061712E+02 -0.60883349733E+02  0.75233620493E+02  0.00000000000E+00 0.  1.
         12    1    6    6    0    0  0.39369692509E+02 -0.12960989283E+02  0.16780096614E+02  0.44716122079E+02  0.00000000000E+00 0. -1.
         -5    1    3    3    0  503 -0.74009100951E+02 -0.78878773361E+01 -0.21452267323E+03  0.22711590205E+03  0.47000000000E+01 0.  1.
         13    1    4    4    0    0 -0.91005707583E+01  0.19876634636E+02 -0.22159660931E+03  0.22267231137E+03  0.00000000000E+00 0. -1.
        -14    1    4    4    0    0  0.53092925404E+02 -0.42626723053E+02 -0.31642980379E+03  0.32367223695E+03  0.00000000000E+00 0.  1.
<mgrwt>
<rscale>  2 0.17826513E+03</rscale>
<asrwt>0</asrwt>
<pdfrwt beam="1">  1       21 0.90206938E-02 0.17863634E+03</pdfrwt>
<pdfrwt beam="2">  1       21 0.14243967E+00 0.17863634E+03</pdfrwt>
<totfact> 0.33571564E+04</totfact>
</mgrwt>
</event>
<event>
12    1  0.1050690E-001  0.1894043E+03  0.7546771E-02  0.1159539E+00
         21   -1    0    0  503  502  0.00000000000E+00  0.00000000000E+00  0.19129722219E+03  0.19129722219E+03  0.00000000000E+00 0.  1.
         21   -1    0    0  501  503 -0.00000000000E+00 -0.00000000000E+00 -0.18523483654E+03  0.18523483654E+03  0.00000000000E+00 0. -1.
          6    2    1    2  501    0  0.33967649425E+02  0.58623968914E+02  0.30357697157E+00  0.18940454863E+03  0.17687119591E+03 0.  0.
         24    2    3    3    0    0  0.66880544221E+02  0.81091762155E+01  0.44951143952E+02  0.11423475308E+03  0.80561824298E+02 0.  0.
         -6    2    1    2    0  502 -0.33967649425E+02 -0.58623968914E+02  0.57588086763E+01  0.18712751010E+03  0.17433579730E+03 0.  0.
        -24    2    5    5    0    0 -0.88050556858E+01 -0.70296791484E+02 -0.54473839025E+02  0.12064839489E+03  0.81052255692E+02 0.  0.
          5    1    3    3  501    0 -0.32912894796E+02  0.50514792698E+02 -0.44647566981E+02  0.75169795547E+02  0.47000000000E+01 0. -1.
        -11    1    4    4    0    0  0.18761024823E+02  0.41388852939E+02  0.27777156001E+02  0.53259586888E+02  0.00000000000E+00 0.  1.
         12    1    4    4    0    0  0.48119519398E+02 -0.33279676723E+02  0.17173987951E+02  0.60975166191E+02  0.00000000000E+00 0. -1.
         -5    1    5    5    0  502 -0.25162593739E+02  0.11672822570E+02  0.60232647702E+02  0.66479115214E+02  0.47000000000E+01 0.  1.
         11    1    6    6    0    0 -0.35962836369E+02 -0.61630171599E+02 -0.57959708455E+02  0.91928947863E+02  0.00000000000E+00 0. -1.
        -12    1    6    6    0    0  0.27157780683E+02 -0.86666198852E+01  0.34858694295E+01  0.28719447027E+02  0.00000000000E+00 0.  1.
<mgrwt>
<rscale>  2 0.18881016E+03</rscale>
<asrwt>0</asrwt>
<pdfrwt beam="1">  1       21 0.29430342E-01 0.18940431E+03</pdfrwt>
<pdfrwt beam="2">  1       21 0.28497667E-01 0.18940431E+03</pdfrwt>
<totfact> 0.13039498E+05</totfact>
</mgrwt>
</event>
<event>
12    1  0.1050690E-001  0.2009585E+03  0.7546771E-02  0.1150101E+00
         21   -1    0    0  501  502  0.00000000000E+00  0.00000000000E+00  0.22779693334E+03  0.22779693334E+03  0.00000000000E+00 0. -1.
         21   -1    0    0  502  503 -0.00000000000E+00 -0.00000000000E+00 -0.69893159067E+03  0.69893159067E+03  0.00000000000E+00 0. -1.
         -6    2    1    2    0  503  0.14610284034E+02  0.90278036228E+02  0.16576835083E+03  0.26050618753E+03  0.17894340832E+03 0.  0.
        -24    2    3    3    0    0  0.56299854033E+02  0.11622629080E+03  0.12566954076E+03  0.19693467874E+03  0.79449417711E+02 0.  0.
          6    2    1    2  501    0 -0.14610284034E+02 -0.90278036228E+02 -0.63690300816E+03  0.66622233648E+03  0.17275177451E+03 0.  0.
         24    2    5    5    0    0 -0.59349250401E+02 -0.50517311493E+02 -0.54309094340E+03  0.55484332662E+03  0.82637836410E+02 0.  0.
          5    1    5    5  501    0  0.44738966367E+02 -0.39760724735E+02 -0.93812064757E+02  0.11137900986E+03  0.47000000000E+01 0. -1.
        -11    1    6    6    0    0 -0.21843781836E+02 -0.10006049760E+02 -0.28399424822E+02  0.37199451164E+02  0.00000000000E+00 0.  1.
         12    1    6    6    0    0 -0.37505468565E+02 -0.40511261733E+02 -0.51469151858E+03  0.51764387546E+03  0.00000000000E+00 0. -1.
         -5    1    3    3    0  503 -0.41689569999E+02 -0.25948254576E+02  0.40098810065E+02  0.63571508798E+02  0.47000000000E+01 0.  1.
         13    1    4    4    0    0  0.18692512734E+02  0.75803435128E+02  0.24756279345E+02  0.81905092495E+02  0.00000000000E+00 0. -1.
        -14    1    4    4    0    0  0.37607341298E+02  0.40422855676E+02  0.10091326142E+03  0.11502958624E+03  0.00000000000E+00 0.  1.
<mgrwt>
<rscale>  2 0.19957096E+03</rscale>
<asrwt>0</asrwt>
<pdfrwt beam="1">  1       21 0.35045682E-01 0.20095852E+03</pdfrwt>
<pdfrwt beam="2">  1       21 0.10752794E+00 0.20095852E+03</pdfrwt>
<totfact> 0.53802329E+03</totfact>
</mgrwt>
</event>
<event>
12    1  0.1050690E-001  0.2470610E+03  0.7546771E-02  0.1115182E+00
         21   -1    0    0  503  502  0.00000000000E+00  0.00000000000E+00  0.15169227904E+03  0.15169227904E+03  0.00000000000E+00 0.  1.
         21   -1    0    0  501  503 -0.00000000000E+00 -0.00000000000E+00 -0.75168271098E+03  0.75168271098E+03  0.00000000000E+00 0.  1.
          6    2    1    2  501    0  0.53568507796E+02 -0.16839097379E+03 -0.60791358190E+03  0.65618701566E+03  0.17261915123E+03 0.  0.
         24    2    3    3    0    0 -0.13051912620E+01 -0.16852661802E+03 -0.51909045432E+03  0.55167491472E+03  0.80544318617E+02 0.  0.
         -6    2    1    2    0  502 -0.53568507796E+02  0.16839097379E+03  0.79231499648E+01  0.24718797436E+03  0.17266734862E+03 0.  0.
        -24    2    5    5    0    0 -0.18877644834E+02  0.37855712012E+02 -0.47073713554E+02  0.10127822301E+03  0.79069106116E+02 0.  0.
          5    1    3    3  501    0  0.54873699058E+02  0.13564423209E+00 -0.88823127583E+02  0.10451210093E+03  0.47000000000E+01 0. -1.
        -11    1    4    4    0    0  0.14302134893E+02 -0.12418092727E+03 -0.26163781724E+03  0.28996517234E+03  0.00000000000E+00 0.  1.
         12    1    4    4    0    0 -0.15607326155E+02 -0.44345690751E+02 -0.25745263708E+03  0.26170974238E+03  0.00000000000E+00 0. -1.
         -5    1    5    5    0  502 -0.34690862962E+02  0.13053526178E+03  0.54996863519E+02  0.14590975135E+03  0.47000000000E+01 0.  1.
         11    1    6    6    0    0 -0.34778510116E+02 -0.40939215790E+01  0.16362623950E+01  0.35056844045E+02  0.00000000000E+00 0. -1.
        -12    1    6    6    0    0  0.15900865281E+02  0.41949633591E+02 -0.48709975949E+02  0.66221378966E+02  0.00000000000E+00 0.  1.
<mgrwt>
<rscale>  2 0.24705254E+03</rscale>
<asrwt>0</asrwt>
<pdfrwt beam="1">  1       21 0.23337274E-01 0.24706096E+03</pdfrwt>
<pdfrwt beam="2">  1       21 0.11564349E+00 0.24706096E+03</pdfrwt>
<totfact> 0.96345467E+03</totfact>
</mgrwt>
</event>
<event>
12    1  0.1050690E-001  0.2154888E+03  0.7546771E-02  0.1137307E+00
         21   -1    0    0  501  502  0.00000000000E+00  0.00000000000E+00  0.94261329398E+03  0.94261329398E+03  0.00000000000E+00 0. -1.
         21   -1    0    0  502  503 -0.00000000000E+00 -0.00000000000E+00 -0.83454286473E+02  0.83454286473E+02  0.00000000000E+00 0. -1.
         -6    2    1    2    0  503  0.17264806573E+02  0.12644372972E+03  0.10105667523E+03  0.23793397546E+03  0.17353395845E+03 0.  0.
        -24    2    3    3    0    0  0.41812873763E+02  0.65317236868E+02 -0.57701490310E+01  0.11234290845E+03  0.81073896008E+02 0.  0.
          6    2    1    2  501    0 -0.17264806573E+02 -0.12644372972E+03  0.75810233228E+03  0.78813360500E+03  0.17363566104E+03 0.  0.
         24    2    5    5    0    0  0.46840537696E+02 -0.39628915470E+02  0.18698018300E+03  0.20688588970E+03  0.63841174880E+02 0.  0.
          5    1    5    5  501    0 -0.64105344269E+02 -0.86814814254E+02  0.57112214928E+03  0.58124771529E+03  0.47000000000E+01 0. -1.
        -11    1    6    6    0    0  0.15231966866E+02  0.65141534703E+01  0.62619785976E+01  0.17710431559E+02  0.00000000000E+00 0.  1.
         12    1    6    6    0    0  0.31608570830E+02 -0.46143068940E+02  0.18071820440E+03  0.18917545814E+03  0.00000000000E+00 0. -1.
         -5    1    3    3    0  503 -0.24548067190E+02  0.61126492856E+02  0.10682682426E+03  0.12559106701E+03  0.47000000000E+01 0.  1.
         13    1    4    4    0    0  0.59700150358E+02  0.54590173203E+02  0.15704596436E+02  0.82406488290E+02  0.00000000000E+00 0. -1.
        -14    1    4    4    0    0 -0.17887276595E+02  0.10727063665E+02 -0.21474745467E+02  0.29936420156E+02  0.00000000000E+00 0.  1.
<mgrwt>
<rscale>  2 0.21546834E+03</rscale>
<asrwt>0</asrwt>
<pdfrwt beam="1">  1       21 0.14501742E+00 0.21548882E+03</pdfrwt>
<pdfrwt beam="2">  1       21 0.12839122E-01 0.21548882E+03</pdfrwt>
<totfact> 0.16717011E+04</totfact>
</mgrwt>
</event>
<event>
12    1  0.1050690E-001  0.2097428E+03  0.7546771E-02  0.1141943E+00
         21   -1    0    0  503  502  0.00000000000E+00  0.00000000000E+00  0.18249821106E+03  0.18249821106E+03  0.00000000000E+00 0.  1.
         21   -1    0    0  501  503 -0.00000000000E+00 -0.00000000000E+00 -0.50505825354E+03  0.50505825354E+03  0.00000000000E+00 0.  1.
          6    2    1    2  501    0 -0.11652739566E+03 -0.14908307660E+02 -0.41046047358E+03  0.46094450274E+03  0.17375598595E+03 0.  0.
         24    2    3    3    0    0 -0.12308674219E+03  0.40615701570E+02 -0.31999928667E+03  0.35449612574E+03  0.80423742620E+02 0.  0.
         -6    2    1    2    0  502  0.11652739566E+03  0.14908307660E+02  0.87900431104E+02  0.22661196187E+03  0.17270090879E+03 0.  0.
        -24    2    5    5    0    0  0.86336516128E+02  0.19002722045E+02 -0.14564022883E+02  0.11961052372E+03  0.79243101650E+02 0.  0.
          5    1    3    3  501    0  0.65593465334E+01 -0.55524009231E+02 -0.90461186916E+02  0.10644837700E+03  0.47000000000E+01 0. -1.
        -11    1    4    4    0    0 -0.98806775414E+02 -0.68529838922E+01 -0.19977731457E+03  0.22298142899E+03  0.00000000000E+00 0.  1.
         12    1    4    4    0    0 -0.24279966777E+02  0.47468685462E+02 -0.12022197210E+03  0.13151469675E+03  0.00000000000E+00 0. -1.
         -5    1    5    5    0  502  0.30190879530E+02 -0.40944143849E+01  0.10246445399E+03  0.10700143815E+03  0.47000000000E+01 0.  1.
         13    1    6    6    0    0  0.31449322094E+02 -0.23991379569E+02 -0.28186228542E+02  0.48570666386E+02  0.00000000000E+00 0. -1.
        -14    1    6    6    0    0  0.54887194034E+02  0.42994101614E+02  0.13622205659E+02  0.71039857331E+02  0.00000000000E+00 0.  1.
<mgrwt>
<rscale>  2 0.20952414E+03</rscale>
<asrwt>0</asrwt>
<pdfrwt beam="1">  1       21 0.28076648E-01 0.20974278E+03</pdfrwt>
<pdfrwt beam="2">  1       21 0.77701269E-01 0.20974278E+03</pdfrwt>
<totfact> 0.17613695E+04</totfact>
</mgrwt>
</event>
<event>
12    1  0.1050690E-001  0.4371439E+03  0.7546771E-02  0.1031702E+00
         21   -1    0    0  503  502  0.00000000000E+00  0.00000000000E+00  0.61263811086E+03  0.61263811086E+03  0.00000000000E+00 0.  1.
         21   -1    0    0  501  503 -0.00000000000E+00 -0.00000000000E+00 -0.31196819539E+03  0.31196819539E+03  0.00000000000E+00 0. -1.
          6    2    1    2  501    0  0.33548740407E+03 -0.21999521056E+03  0.12792764632E+03  0.45547802665E+03  0.17362332536E+03 0.  0.
         24    2    3    3    0    0  0.19031413991E+03 -0.48250908883E+02  0.66139628133E+02  0.22221587589E+03  0.80360581319E+02 0.  0.
         -6    2    1    2    0  502 -0.33548740407E+03  0.21999521056E+03  0.17274226915E+03  0.46912827961E+03  0.17114835733E+03 0.  0.
        -24    2    5    5    0    0 -0.11204349494E+03  0.34445155761E+02  0.83607366228E+02  0.16528107412E+03  0.81162973464E+02 0.  0.
          5    1    3    3  501    0  0.14517326416E+03 -0.17174430168E+03  0.61788018186E+02  0.23326215076E+03  0.47000000000E+01 0. -1.
        -13    1    4    4    0    0  0.73174259268E+02 -0.59623583143E+02  0.32158941885E+02  0.99717808988E+02  0.00000000000E+00 0.  1.
         14    1    4    4    0    0  0.11713988064E+03  0.11372674260E+02  0.33980686249E+02  0.12249806690E+03  0.00000000000E+00 0. -1.
         -5    1    5    5    0  502 -0.22344390913E+03  0.18555005480E+03  0.89134902923E+02  0.30384720549E+03  0.47000000000E+01 0.  1.
         11    1    6    6    0    0 -0.20099249745E+01  0.85892008256E+01 -0.13593034308E+02  0.16204467005E+02  0.00000000000E+00 0. -1.
        -12    1    6    6    0    0 -0.11003356997E+03  0.25855954936E+02  0.97200400536E+02  0.14907660712E+03  0.00000000000E+00 0.  1.
<mgrwt>
<rscale>  2 0.43689938E+03</rscale>
<asrwt>0</asrwt>
<pdfrwt beam="1">  1       21 0.94252017E-01 0.43714386E+03</pdfrwt>
<pdfrwt beam="2">  1       21 0.47995107E-01 0.43714386E+03</pdfrwt>
<totfact> 0.34300842E+03</totfact>
</mgrwt>
</event>
<event>
12    1  0.1050690E-001  0.2097105E+03  0.7546771E-02  0.1141995E+00
         21   -1    0    0  503  502  0.00000000000E+00  0.00000000000E+00  0.47642896617E+03  0.47642896617E+03  0.00000000000E+00 0.  1.
         21   -1    0    0  501  503 -0.00000000000E+00 -0.00000000000E+00 -0.14227104417E+03  0.14227104417E+03  0.00000000000E+00 0.  1.
          6    2    1    2  501    0  0.12268865712E+02  0.11549380091E+03 -0.17308749046E+02  0.20942343522E+03  0.17340484224E+03 0.  0.
         24    2    3    3    0    0 -0.30766563136E+02 -0.17311437803E+01 -0.15253658977E+02  0.84443240039E+02  0.77125925667E+02 0.  0.
         -6    2    1    2    0  502 -0.12268865712E+02 -0.11549380091E+03  0.35146667105E+03  0.40927657512E+03  0.17461142852E+03 0.  0.
        -24    2    5    5    0    0 -0.80715115477E+01 -0.37376573397E+02  0.61870359181E+02  0.10926318731E+03  0.81537385405E+02 0.  0.
          5    1    3    3  501    0  0.43035428849E+02  0.11722494469E+03 -0.20550900691E+01  0.12498019518E+03  0.47000000000E+01 0. -1.
        -13    1    4    4    0    0 -0.73709703101E+01  0.22881372270E+02  0.23015176972E+02  0.33280426249E+02  0.00000000000E+00 0.  1.
         14    1    4    4    0    0 -0.23395592826E+02 -0.24612516050E+02 -0.38268835949E+02  0.51162813790E+02  0.00000000000E+00 0. -1.
         -5    1    5    5    0  502 -0.41973541648E+01 -0.78117227511E+02  0.28959631187E+03  0.30001338781E+03  0.47000000000E+01 0.  1.
         13    1    6    6    0    0 -0.18299554053E+02  0.22553518534E+02  0.23609696698E+02  0.37429302090E+02  0.00000000000E+00 0. -1.
        -14    1    6    6    0    0  0.10228042506E+02 -0.59930091931E+02  0.38260662483E+02  0.71833885221E+02  0.00000000000E+00 0.  1.
<mgrwt>
<rscale>  2 0.20945916E+03</rscale>
<asrwt>0</asrwt>
<pdfrwt beam="1">  1       21 0.73296763E-01 0.20971050E+03</pdfrwt>
<pdfrwt beam="2">  1       21 0.21887853E-01 0.20971050E+03</pdfrwt>
<totfact> 0.32313961E+04</totfact>
</mgrwt>
</event>
<event>
12    1  0.1050690E-001  0.2576698E+03  0.7546771E-02  0.1108574E+00
         21   -1    0    0  503  502  0.00000000000E+00  0.00000000000E+00  0.21721204850E+03  0.21721204850E+03  0.00000000000E+00 0. -1.
         21   -1    0    0  501  503 -0.00000000000E+00 -0.00000000000E+00 -0.37821395386E+03  0.37821395386E+03  0.00000000000E+00 0. -1.
          6    2    1    2  501    0 -0.92839091635E+02 -0.16705249360E+03 -0.21103463431E+03  0.33294366723E+03  0.17259848237E+03 0.  0.
         24    2    3    3    0    0 -0.26496458643E+01 -0.30060007982E+02 -0.10596776652E+03  0.13810472361E+03  0.83265373589E+02 0.  0.
         -6    2    1    2    0  502  0.92839091635E+02  0.16705249360E+03  0.50032728946E+02  0.26248233513E+03  0.17282381126E+03 0.  0.
        -24    2    5    5    0    0  0.11867846906E+03  0.88149153468E+02  0.57854634467E+02  0.17895579615E+03  0.82602457415E+02 0.  0.
          5    1    3    3  501    0 -0.90189445771E+02 -0.13699248561E+03 -0.10506686779E+03  0.19483894362E+03  0.47000000000E+01 0. -1.
        -13    1    4    4    0    0 -0.88661088212E+01  0.25906874958E+02 -0.15281296713E+02  0.31357488499E+02  0.00000000000E+00 0.  1.
         14    1    4    4    0    0  0.62164629569E+01 -0.55966882940E+02 -0.90686469806E+02  0.10674723511E+03  0.00000000000E+00 0. -1.
         -5    1    5    5    0  502 -0.25839377421E+02  0.78903340127E+02 -0.78219055209E+01  0.83526538984E+02  0.47000000000E+01 0.  1.
         13    1    6    6    0    0  0.89573297844E+02  0.99155564826E+02  0.29463183654E+02  0.13683304028E+03  0.00000000000E+00 0. -1.
        -14    1    6    6    0    0  0.29105171212E+02 -0.11006411357E+02  0.28391450813E+02  0.42122755863E+02  0.00000000000E+00 0.  1.
<mgrwt>
<rscale>  2 0.25763198E+03</rscale>
<asrwt>0</asrwt>
<pdfrwt beam="1">  1       21 0.33417238E-01 0.25766975E+03</pdfrwt>
<pdfrwt beam="2">  1       21 0.58186762E-01 0.25766975E+03</pdfrwt>
<totfact> 0.23069309E+04</totfact>
</mgrwt>
</event>
<event>
12    1  0.1050690E-001  0.1849633E+03  0.7546771E-02  0.1163280E+00
         21   -1    0    0  501  502  0.00000000000E+00  0.00000000000E+00  0.36886067108E+03  0.36886067108E+03  0.00000000000E+00 0. -1.
         21   -1    0    0  502  503 -0.00000000000E+00 -0.00000000000E+00 -0.96930698209E+02  0.96930698209E+02  0.00000000000E+00 0. -1.
         -6    2    1    2    0  503  0.63232343842E+02  0.17149998254E+02  0.84934495200E+02  0.20277289590E+03  0.17207709635E+03 0.  0.
        -24    2    3    3    0    0  0.45640555994E+02 -0.54722702499E+02  0.49420528172E+02  0.12056287237E+03  0.83757883630E+02 0.  0.
          6    2    1    2  501    0 -0.63232343842E+02 -0.17149998254E+02  0.18699547767E+03  0.26301847339E+03  0.17297097135E+03 0.  0.
         24    2    5    5    0    0 -0.11703261077E+02  0.37981535146E+02  0.42527322402E+02  0.99960599518E+02  0.81264906162E+02 0.  0.
          5    1    5    5  501    0 -0.51529082765E+02 -0.55131533401E+02  0.14446815527E+03  0.16305787388E+03  0.47000000000E+01 0. -1.
        -13    1    6    6    0    0  0.67904694748E+00  0.60831416592E+02  0.42074477411E+02  0.73967452293E+02  0.00000000000E+00 0.  1.
         14    1    6    6    0    0 -0.12382308025E+02 -0.22849881445E+02  0.45284499061E+00  0.25993147225E+02  0.00000000000E+00 0. -1.
         -5    1    3    3    0  503  0.17591787849E+02  0.71872700753E+02  0.35513967028E+02  0.82210023521E+02  0.47000000000E+01 0.  1.
         11    1    4    4    0    0 -0.27108334457E+01  0.19010392345E+02  0.19713373513E+02  0.27520187687E+02  0.00000000000E+00 0. -1.
        -12    1    4    4    0    0  0.48351389439E+02 -0.73733094843E+02  0.29707154659E+02  0.93042684687E+02  0.00000000000E+00 0.  1.
<mgrwt>
<rscale>  2 0.18475400E+03</rscale>
<asrwt>0</asrwt>
<pdfrwt beam="1">  1       21 0.56747795E-01 0.18496326E+03</pdfrwt>
<pdfrwt beam="2">  1       21 0.14912415E-01 0.18496326E+03</pdfrwt>
<totfact> 0.11605370E+05</totfact>
</mgrwt>
</event>
<event>
12    1  0.1050690E-001  0.2044179E+03  0.7546771E-02  0.1146137E+00
         21   -1    0    0  501  502  0.00000000000E+00  0.00000000000E+00  0.24784654884E+03  0.24784654884E+03  0.00000000000E+00 0.  1.
         21   -1    0    0  502  503 -0.00000000000E+00 -0.00000000000E+00 -0.43113037707E+03  0.43113037707E+03  0.00000000000E+00 0.  1.
         -6    2    1    2    0  503 -0.10056274892E+03 -0.38495390024E+02 -0.35667634986E+03  0.41092533937E+03  0.17334028517E+03 0.  0.
        -24    2    3    3    0    0 -0.12370261563E+03 -0.93097018154E+01 -0.19592860369E+03  0.24585206556E+03  0.81646878297E+02 0.  0.
          6    2    1    2  501    0  0.10056274892E+03  0.38495390024E+02  0.17339252163E+03  0.26805158654E+03  0.17375823711E+03 0.  0.
         24    2    5    5    0    0  0.49571645070E+02 -0.36079460985E+01  0.13359852821E+02  0.94831123917E+02  0.79649803050E+02 0.  0.
          5    1    5    5  501    0  0.50991103853E+02  0.42103336122E+02  0.16003266881E+03  0.17322046262E+03  0.47000000000E+01 0. -1.
        -11    1    6    6    0    0  0.25760759614E+02  0.17124840679E+02  0.42028467391E+02  0.52184949702E+02  0.00000000000E+00 0.  1.
         12    1    6    6    0    0  0.23810885456E+02 -0.20732786777E+02 -0.28668614570E+02  0.42646174215E+02  0.00000000000E+00 0. -1.
         -5    1    3    3    0  503  0.23139866707E+02 -0.29185688208E+02 -0.16074774617E+03  0.16507327381E+03  0.47000000000E+01 0.  1.
         11    1    4    4    0    0 -0.84717442531E+02  0.30798364295E+02 -0.14173279377E+03  0.16796954826E+03  0.00000000000E+00 0. -1.
        -12    1    4    4    0    0 -0.38985173099E+02 -0.40108066110E+02 -0.54195809920E+02  0.77882517304E+02  0.00000000000E+00 0.  1.
<mgrwt>
<rscale>  2 0.20432908E+03</rscale>
<asrwt>0</asrwt>
<pdfrwt beam="1">  1       21 0.38130238E-01 0.20441792E+03</pdfrwt>
<pdfrwt beam="2">  1       21 0.66327750E-01 0.20441792E+03</pdfrwt>
<totfact> 0.13727679E+04</totfact>
</mgrwt>
</event>
<event>
12    1  0.1050690E-001  0.1900312E+03  0.7546771E-02  0.1158839E+00
         21   -1    0    0  503  502  0.00000000000E+00  0.00000000000E+00  0.94742885648E+02  0.94742885648E+02  0.00000000000E+00 0. -1.
         21   -1    0    0  501  503 -0.00000000000E+00 -0.00000000000E+00 -0.50228654483E+03  0.50228654483E+03  0.00000000000E+00 0. -1.
          6    2    1    2  501    0  0.44068045423E+02  0.61218828953E+02 -0.35179075689E+03  0.39898840385E+03  0.17246817713E+03 0.  0.
         24    2    3    3    0    0  0.86976592640E+02  0.90464399215E+01 -0.24955130825E+03  0.27635848718E+03  0.80320559311E+02 0.  0.
         -6    2    1    2    0  502 -0.44068045423E+02 -0.61218828953E+02 -0.55752902285E+02  0.19804102663E+03  0.17441939247E+03 0.  0.
        -24    2    5    5    0    0  0.60969676013E+01 -0.62608971734E+02  0.22003360757E+02  0.10537718540E+03  0.81628101550E+02 0.  0.
          5    1    3    3  501    0 -0.42908547217E+02  0.52172389031E+02 -0.10223944865E+03  0.12262991666E+03  0.47000000000E+01 0. -1.
        -13    1    4    4    0    0  0.63520927206E+02 -0.11410342530E+02 -0.23161185255E+03  0.24043534339E+03  0.00000000000E+00 0.  1.
         14    1    4    4    0    0  0.23455665434E+02  0.20456782451E+02 -0.17939455696E+02  0.35923143792E+02  0.00000000000E+00 0. -1.
         -5    1    5    5    0  502 -0.50165013024E+02  0.13901427817E+01 -0.77756263043E+02  0.92663841227E+02  0.47000000000E+01 0.  1.
         11    1    6    6    0    0  0.17453979493E+02 -0.78339804260E+01 -0.25575940426E+02  0.31939652129E+02  0.00000000000E+00 0. -1.
        -12    1    6    6    0    0 -0.11357011891E+02 -0.54774991308E+02  0.47579301183E+02  0.73437533272E+02  0.00000000000E+00 0.  1.
<mgrwt>
<rscale>  2 0.18958229E+03</rscale>
<asrwt>0</asrwt>
<pdfrwt beam="1">  1       21 0.14575829E-01 0.19003121E+03</pdfrwt>
<pdfrwt beam="2">  1       21 0.77274851E-01 0.19003121E+03</pdfrwt>
<totfact> 0.61532629E+04</totfact>
</mgrwt>
</event>
<event>
12    1  0.1050690E-001  0.2246342E+03  0.7546771E-02  0.1130584E+00
         21   -1    0    0  503  502  0.00000000000E+00  0.00000000000E+00  0.11606066220E+03  0.11606066220E+03  0.00000000000E+00 0. -1.
         21   -1    0    0  501  503 -0.00000000000E+00 -0.00000000000E+00 -0.49549752808E+03  0.49549752808E+03  0.00000000000E+00 0. -1.
          6    2    1    2  501    0 -0.11552651300E+03  0.83709001603E+02 -0.29801132211E+03  0.37319067943E+03  0.17351358147E+03 0.  0.
         24    2    3    3    0    0  0.59276343154E+01  0.60409979546E+02 -0.15592955236E+03  0.18476755553E+03  0.78361481596E+02 0.  0.
         -6    2    1    2    0  502  0.11552651300E+03 -0.83709001603E+02 -0.81425543772E+02  0.23836751084E+03  0.17272920683E+03 0.  0.
        -24    2    5    5    0    0  0.10832230499E+03 -0.64409161231E+01 -0.91909646268E+02  0.15991839325E+03  0.73152595732E+02 0.  0.
          5    1    3    3  501    0 -0.12145414731E+03  0.23299022057E+02 -0.14208176974E+03  0.18842312390E+03  0.47000000000E+01 0. -1.
        -11    1    4    4    0    0 -0.20068619302E+02  0.62079572270E+02 -0.13941009940E+03  0.15392140393E+03  0.00000000000E+00 0.  1.
         12    1    4    4    0    0  0.25996253617E+02 -0.16695927233E+01 -0.16519452964E+02  0.30846151595E+02  0.00000000000E+00 0. -1.
         -5    1    5    5    0  502  0.72042080059E+01 -0.77268085480E+02  0.10484102496E+02  0.78449117598E+02  0.47000000000E+01 0.  1.
         13    1    6    6    0    0  0.27961288874E+02  0.56808193735E+01 -0.70232405171E+02  0.75806966173E+02  0.00000000000E+00 0. -1.
        -14    1    6    6    0    0  0.80361016116E+02 -0.12121735497E+02 -0.21677241097E+02  0.84111427073E+02  0.00000000000E+00 0.  1.
<mgrwt>
<rscale>  2 0.22448274E+03</rscale>
<asrwt>0</asrwt>
<pdfrwt beam="1">  1       21 0.17855487E-01 0.22463423E+03</pdfrwt>
<pdfrwt beam="2">  1       21 0.76230388E-01 0.22463423E+03</pdfrwt>
<totfact> 0.43001920E+04</totfact>
</mgrwt>
</event>
<event>
12    1  0.1050690E-001  0.1761008E+03  0.7546771E-02  0.1172717E+00
         21   -1    0    0  501  502  0.00000000000E+00  0.00000000000E+00  0.24048605993E+03  0.24048605993E+03  0.00000000000E+00 0.  1.
         21   -1    0    0  502  503 -0.00000000000E+00 -0.00000000000E+00 -0.36087759507E+03  0.36087759507E+03  0.00000000000E+00 0.  1.
         -6    2    1    2    0  503 -0.57346623596E+01  0.26564233941E+02 -0.30311750546E+03  0.35055916811E+03  0.17399127378E+03 0.  0.
        -24    2    3    3    0    0 -0.13611812821E+02 -0.47367347690E+02 -0.20732768356E+03  0.22920963889E+03  0.84399899967E+02 0.  0.
          6    2    1    2  501    0  0.57346623596E+01 -0.26564233941E+02  0.18272597032E+03  0.25080448689E+03  0.16963362148E+03 0.  0.
         24    2    5    5    0    0 -0.25436535331E+02 -0.66962465488E+02  0.75264412596E+02  0.13175098183E+03  0.81009877773E+02 0.  0.
          5    1    5    5  501    0  0.31171197691E+02  0.40398231548E+02  0.10746155773E+03  0.11905350506E+03  0.47000000000E+01 0. -1.
        -11    1    6    6    0    0 -0.53770013553E+01 -0.58972508511E+02  0.88456131836E+02  0.10644790352E+03  0.00000000000E+00 0.  1.
         12    1    6    6    0    0 -0.20059533976E+02 -0.79899569774E+01 -0.13191719240E+02  0.25303078318E+02  0.00000000000E+00 0. -1.
         -5    1    3    3    0  503  0.78771504617E+01  0.73931581630E+02 -0.95789821903E+02  0.12134952922E+03  0.47000000000E+01 0.  1.
         11    1    4    4    0    0  0.28607779188E+02 -0.23781094671E+02 -0.14832914739E+03  0.15292312271E+03  0.00000000000E+00 0. -1.
        -12    1    4    4    0    0 -0.42219592009E+02 -0.23586253019E+02 -0.58998536173E+02  0.76286516183E+02  0.00000000000E+00 0.  1.
<mgrwt>
<rscale>  2 0.17501481E+03</rscale>
<asrwt>0</asrwt>
<pdfrwt beam="1">  1       21 0.36997855E-01 0.17610085E+03</pdfrwt>
<pdfrwt beam="2">  1       21 0.55519630E-01 0.17610085E+03</pdfrwt>
<totfact> 0.21755118E+04</totfact>
</mgrwt>
</event>
<event>
12    1  0.1050690E-001  0.1817010E+03  0.7546771E-02  0.1166362E+00
         21   -1    0    0  503  502  0.00000000000E+00  0.00000000000E+00  0.33783967899E+03  0.33783967899E+03  0.00000000000E+00 0.  1.
         21   -1    0    0  501  503 -0.00000000000E+00 -0.00000000000E+00 -0.13216944143E+03  0.13216944143E+03  0.00000000000E+00 0.  1.
          6    2    1    2  501    0 -0.54853375188E+02  0.10777830998E+01  0.22339306917E+03  0.28744582078E+03  0.17236757857E+03 0.  0.
         24    2    3    3    0    0 -0.17685710274E+02  0.54028178806E+02  0.66905470052E+02  0.11804795066E+03  0.78912282186E+02 0.  0.
         -6    2    1    2    0  502  0.54853375188E+02 -0.10777830998E+01 -0.17722831620E+02  0.18256329965E+03  0.17322010631E+03 0.  0.
        -24    2    5    5    0    0  0.33832615241E+02 -0.23174952409E+02  0.52344208817E+02  0.10600196870E+03  0.82551661999E+02 0.  0.
          5    1    3    3  501    0 -0.37167664914E+02 -0.52950395706E+02  0.15648759912E+03  0.16939787011E+03  0.47000000000E+01 0. -1.
        -13    1    4    4    0    0  0.77860174255E+01  0.65021771137E+02  0.30404025700E+02  0.72200121661E+02  0.00000000000E+00 0.  1.
         14    1    4    4    0    0 -0.25471727700E+02 -0.10993592331E+02  0.36501444352E+02  0.45847829002E+02  0.00000000000E+00 0. -1.
         -5    1    5    5    0  502  0.21020759947E+02  0.22097169309E+02 -0.70067040437E+02  0.76561330943E+02  0.47000000000E+01 0.  1.
         11    1    6    6    0    0 -0.19475656971E+02  0.64902349576E+01 -0.62045459152E+01  0.21445763084E+02  0.00000000000E+00 0. -1.
        -12    1    6    6    0    0  0.53308272212E+02 -0.29665187366E+02  0.58548754732E+02  0.84556205617E+02  0.00000000000E+00 0.  1.
<mgrwt>
<rscale>  2 0.18149754E+03</rscale>
<asrwt>0</asrwt>
<pdfrwt beam="1">  1       21 0.51975335E-01 0.18170102E+03</pdfrwt>
<pdfrwt beam="2">  1       21 0.20333760E-01 0.18170102E+03</pdfrwt>
<totfact> 0.78993312E+04</totfact>
</mgrwt>
</event>
<event>
12    1  0.1050690E-001  0.3622468E+03  0.7546771E-02  0.1057926E+00
         21   -1    0    0  501  502  0.00000000000E+00  0.00000000000E+00  0.12203294546E+03  0.12203294546E+03  0.00000000000E+00 0. -1.
         21   -1    0    0  502  503 -0.00000000000E+00 -0.00000000000E+00 -0.10742119131E+04  0.10742119131E+04  0.00000000000E+00 0.  1.
         -6    2    1    2    0  503 -0.27075419839E+03  0.16462351060E+03 -0.52141682888E+03  0.63490018677E+03  0.17553917377E+03 0.  0.
        -24    2    3    3    0    0 -0.73596177249E+02  0.92478154159E+02 -0.14504875007E+03  0.20391148795E+03  0.81068790051E+02 0.  0.
          6    2    1    2  501    0  0.27075419839E+03 -0.16462351060E+03 -0.43076213879E+03  0.56134467182E+03  0.17071345632E+03 0.  0.
         24    2    5    5    0    0  0.10520757218E+03 -0.13442234216E+03 -0.18497833186E+03  0.26343601840E+03  0.77740293419E+02 0.  0.
          5    1    5    5  501    0  0.16554662622E+03 -0.30201168444E+02 -0.24578380694E+03  0.29790865342E+03  0.47000000000E+01 0. -1.
        -11    1    6    6    0    0  0.23226559274E+02 -0.67991325644E+02 -0.11894032011E+03  0.13895716306E+03  0.00000000000E+00 0.  1.
         12    1    6    6    0    0  0.81981012904E+02 -0.66431016512E+02 -0.66038011751E+02  0.12447885534E+03  0.00000000000E+00 0. -1.
         -5    1    3    3    0  503 -0.19715802115E+03  0.72145356441E+02 -0.37636807881E+03  0.43098869882E+03  0.47000000000E+01 0.  1.
         13    1    4    4    0    0 -0.44776618483E+02 -0.10860461243E+01 -0.36906795146E+02  0.58036510809E+02  0.00000000000E+00 0. -1.
        -14    1    4    4    0    0 -0.28819558766E+02  0.93564200283E+02 -0.10814195492E+03  0.14587497714E+03  0.00000000000E+00 0.  1.
<mgrwt>
<rscale>  2 0.36166697E+03</rscale>
<asrwt>0</asrwt>
<pdfrwt beam="1">  1       21 0.18774299E-01 0.36224679E+03</pdfrwt>
<pdfrwt beam="2">  1       21 0.16526337E+00 0.36224679E+03</pdfrwt>
<totfact> 0.53891894E+03</totfact>
</mgrwt>
</event>
<event>
12    1  0.1050690E-001  0.1921119E+03  0.7546771E-02  0.1156698E+00
         21   -1    0    0  501  502  0.00000000000E+00  0.00000000000E+00  0.72227696048E+02  0.72227696048E+02  0.00000000000E+00 0. -1.
         21   -1    0    0  502  503 -0.00000000000E+00 -0.00000000000E+00 -0.51121683721E+03  0.51121683721E+03  0.00000000000E+00 0.  1.
         -6    2    1    2    0  503 -0.20726123055E+02  0.82283848078E+02 -0.20203666063E+03  0.27839785621E+03  0.17171589989E+03 0.  0.
        -24    2    3    3    0    0 -0.17709237346E+02  0.67003713624E+02 -0.37808207392E+02  0.11336555949E+03  0.81358311227E+02 0.  0.
          6    2    1    2  501    0  0.20726123055E+02 -0.82283848078E+02 -0.23695248053E+03  0.30504667705E+03  0.17235658768E+03 0.  0.
         24    2    5    5    0    0  0.91353718102E+01 -0.42941696576E+02 -0.24611380508E+03  0.26275991474E+03  0.80890811729E+02 0.  0.
          5    1    5    5  501    0  0.11590751245E+02 -0.39342151502E+02  0.91613245417E+01  0.42286762309E+02  0.47000000000E+01 0. -1.
        -13    1    6    6    0    0 -0.34500945925E+02 -0.31983569495E+02 -0.12551200060E+03  0.13403927141E+03  0.00000000000E+00 0.  1.
         14    1    6    6    0    0  0.43636317735E+02 -0.10958127081E+02 -0.12060180448E+03  0.12872064332E+03  0.00000000000E+00 0. -1.
         -5    1    3    3    0  503 -0.30168857084E+01  0.15280134454E+02 -0.16422845324E+03  0.16503229672E+03  0.47000000000E+01 0.  1.
         13    1    4    4    0    0 -0.22504209484E+02 -0.90828552691E+01 -0.27103050029E+02  0.36380118543E+02  0.00000000000E+00 0. -1.
        -14    1    4    4    0    0  0.47949721374E+01  0.76086568893E+02 -0.10705157363E+02  0.76985440947E+02  0.00000000000E+00 0.  1.
<mgrwt>
<rscale>  2 0.19196813E+03</rscale>
<asrwt>0</asrwt>
<pdfrwt beam="1">  1       21 0.11111953E-01 0.19211194E+03</pdfrwt>
<pdfrwt beam="2">  1       21 0.78648745E-01 0.19211194E+03</pdfrwt>
<totfact> 0.96228276E+04</totfact>
</mgrwt>
</event>
<event>
12    1  0.1050690E-001  0.2007500E+03  0.7546771E-02  0.1149823E+00
         21   -1    0    0  501  502  0.00000000000E+00  0.00000000000E+00  0.13180997565E+04  0.13180997565E+04  0.00000000000E+00 0. -1.
         21   -1    0    0  502  503 -0.00000000000E+00 -0.00000000000E+00 -0.34331337667E+02  0.34331337667E+02  0.00000000000E+00 0. -1.
         -6    2    1    2    0  503 -0.35663571052E+02 -0.96608564283E+02  0.88507607898E+03  0.90755727573E+03  0.17232364361E+03 0.  0.
        -24    2    3    3    0    0 -0.69600323677E+02 -0.22518317980E+02  0.63129359135E+03  0.64097012524E+03  0.83425555264E+02 0.  0.
          6    2    1    2  501    0  0.35663571052E+02  0.96608564283E+02  0.39869233990E+03  0.44487381848E+03  0.16838060306E+03 0.  0.
         24    2    5    5    0    0  0.13535008903E+02  0.89922872924E+02  0.40053803037E+03  0.42121228208E+03  0.93379619092E+02 0.  0.
          5    1    5    5  501    0  0.22128562149E+02  0.66856913585E+01 -0.18456904721E+01  0.23661536405E+02  0.47000000000E+01 0.  1.
        -11    1    6    6    0    0  0.27545541981E+02  0.58138462436E+02  0.36812035852E+03  0.37369966022E+03  0.00000000000E+00 0.  1.
         12    1    6    6    0    0 -0.14010533078E+02  0.31784410488E+02  0.32417671852E+02  0.47512621854E+02  0.00000000000E+00 0. -1.
         -5    1    3    3    0  503  0.33936752625E+02 -0.74090246303E+02  0.25378248764E+03  0.26658715049E+03  0.47000000000E+01 0.  1.
         13    1    4    4    0    0 -0.37811352918E+02  0.22992282148E+00  0.54413425099E+03  0.54544645417E+03  0.00000000000E+00 0. -1.
        -14    1    4    4    0    0 -0.31788970759E+02 -0.22748240802E+02  0.87159340360E+02  0.95523671063E+02  0.00000000000E+00 0.  1.
<mgrwt>
<rscale>  2 0.19990100E+03</rscale>
<asrwt>0</asrwt>
<pdfrwt beam="1">  1       21 0.20278454E+00 0.20074995E+03</pdfrwt>
<pdfrwt beam="2">  1       21 0.52817453E-02 0.20074995E+03</pdfrwt>
<totfact> 0.31403300E+04</totfact>
</mgrwt>
</event>
<event>
12    1  0.1050690E-001  0.2900723E+03  0.7546771E-02  0.1090749E+00
         21   -1    0    0  501  502  0.00000000000E+00  0.00000000000E+00  0.66001583947E+03  0.66001583947E+03  0.00000000000E+00 0. -1.
         21   -1    0    0  502  503 -0.00000000000E+00 -0.00000000000E+00 -0.15056373825E+03  0.15056373825E+03  0.00000000000E+00 0.  1.
         -6    2    1    2    0  503 -0.13543801538E+03  0.19072113252E+03  0.92340700016E+02  0.30441543622E+03  0.17153409729E+03 0.  0.
        -24    2    3    3    0    0 -0.11234556487E+03  0.18877428658E+03  0.28036700436E+02  0.23590159936E+03  0.81278845903E+02 0.  0.
          6    2    1    2  501    0  0.13543801538E+03 -0.19072113252E+03  0.41711140121E+03  0.50616414150E+03  0.16583790493E+03 0.  0.
         24    2    5    5    0    0  0.91074978255E+02 -0.98678329145E+02  0.13632059233E+03  0.20732384122E+03  0.79798539695E+02 0.  0.
          5    1    5    5  501    0  0.44363037123E+02 -0.92042803378E+02  0.28079080888E+03  0.29884030028E+03  0.47000000000E+01 0. -1.
        -13    1    6    6    0    0  0.97354668209E+02 -0.10651526250E+03  0.11789893803E+03  0.18634267401E+03  0.00000000000E+00 0.  1.
         14    1    6    6    0    0 -0.62796899540E+01  0.78369333570E+01  0.18421654300E+02  0.20981167210E+02  0.00000000000E+00 0. -1.
         -5    1    3    3    0  503 -0.23092450504E+02  0.19468459451E+01  0.64303999580E+02  0.68513836860E+02  0.47000000000E+01 0.  1.
         11    1    4    4    0    0 -0.57067480345E+02  0.55865790928E+02  0.43821028749E+02  0.91093174659E+02  0.00000000000E+00 0. -1.
        -12    1    4    4    0    0 -0.55278084528E+02  0.13290849565E+03 -0.15784328313E+02  0.14480842470E+03  0.00000000000E+00 0.  1.
<mgrwt>
<rscale>  2 0.28923580E+03</rscale>
<asrwt>0</asrwt>
<pdfrwt beam="1">  1       21 0.10154090E+00 0.29007232E+03</pdfrwt>
<pdfrwt beam="2">  1       21 0.23163652E-01 0.29007232E+03</pdfrwt>
<totfact> 0.13124115E+04</totfact>
</mgrwt>
</event>
<event>
12    1  0.1050690E-001  0.2071286E+03  0.7546771E-02  0.1145249E+00
         21   -1    0    0  503  502  0.00000000000E+00  0.00000000000E+00  0.41859434204E+03  0.41859434204E+03  0.00000000000E+00 0.  1.
         21   -1    0    0  501  503 -0.00000000000E+00 -0.00000000000E+00 -0.10020562181E+03  0.10020562181E+03  0.00000000000E+00 0.  1.
          6    2    1    2  501    0  0.61947182149E+02  0.79057894354E+02  0.13018954314E+03  0.23894075434E+03  0.17336597967E+03 0.  0.
         24    2    3    3    0    0  0.35117294568E+02  0.61346200113E+02  0.16142647511E+03  0.19386988903E+03  0.80811177200E+02 0.  0.
         -6    2    1    2    0  502 -0.61947182149E+02 -0.79057894354E+02  0.18819917710E+03  0.27985920951E+03  0.18114812406E+03 0.  0.
        -24    2    5    5    0    0 -0.88691708173E+02 -0.10650576776E+03  0.10492973153E+03  0.18807388393E+03  0.71776316376E+02 0.  0.
          5    1    3    3  501    0  0.26829887581E+02  0.17711694241E+02 -0.31236931974E+02  0.45070865308E+02  0.47000000000E+01 0. -1.
        -11    1    4    4    0    0  0.68302761257E+01 -0.16103412779E+02  0.63441351932E+02  0.65808644645E+02  0.00000000000E+00 0.  1.
         12    1    4    4    0    0  0.28287018442E+02  0.77449612892E+02  0.97985123180E+02  0.12806124439E+03  0.00000000000E+00 0. -1.
         -5    1    5    5    0  502  0.26744526024E+02  0.27447873407E+02  0.83269445567E+02  0.91785325580E+02  0.47000000000E+01 0.  1.
         13    1    6    6    0    0 -0.46057548235E+02 -0.64170247653E+02  0.10050317516E+03  0.12782803546E+03  0.00000000000E+00 0. -1.
        -14    1    6    6    0    0 -0.42634159938E+02 -0.42335520108E+02  0.44265563730E+01  0.60245848469E+02  0.00000000000E+00 0.  1.
<mgrwt>
<rscale>  2 0.20541480E+03</rscale>
<asrwt>0</asrwt>
<pdfrwt beam="1">  1       21 0.64399128E-01 0.20712858E+03</pdfrwt>
<pdfrwt beam="2">  1       21 0.15416250E-01 0.20712858E+03</pdfrwt>
<totfact> 0.82479196E+04</totfact>
</mgrwt>
</event>
<event>
12    1  0.1050690E-001  0.2231805E+03  0.7546771E-02  0.1131767E+00
         21   -1    0    0  501  502  0.00000000000E+00  0.00000000000E+00  0.82587394655E+02  0.82587394655E+02  0.00000000000E+00 0.  1.
         21   -1    0    0  502  503 -0.00000000000E+00 -0.00000000000E+00 -0.92065999935E+03  0.92065999935E+03  0.00000000000E+00 0.  1.
         -6    2    1    2    0  503  0.99307118664E+02 -0.10023150315E+03 -0.71600298114E+03  0.74997987652E+03  0.17291988940E+03 0.  0.
        -24    2    3    3    0    0  0.11629006625E+03 -0.11614732952E+03 -0.49494575629E+03  0.52765101943E+03  0.80191738830E+02 0.  0.
          6    2    1    2  501    0 -0.99307118664E+02  0.10023150315E+03 -0.12206962356E+03  0.25326751748E+03  0.17127517151E+03 0.  0.
         24    2    5    5    0    0 -0.87744868548E+02  0.13390831369E+02 -0.64745885459E+02  0.14846728440E+03  0.99860044727E+02 0.  0.
          5    1    5    5  501    0 -0.11562250116E+02  0.86840671786E+02 -0.57323738097E+02  0.10480023308E+03  0.47000000000E+01 0. -1.
        -13    1    6    6    0    0 -0.78191772513E+02  0.37638019718E+02 -0.93924837194E+01  0.87285695090E+02  0.00000000000E+00 0.  1.
         14    1    6    6    0    0 -0.95530960352E+01 -0.24247188349E+02 -0.55353401739E+02  0.61181589312E+02  0.00000000000E+00 0. -1.
         -5    1    3    3    0  503 -0.16982947585E+02  0.15915826363E+02 -0.22105722485E+03  0.22232885709E+03  0.47000000000E+01 0.  1.
         13    1    4    4    0    0  0.16719969035E+02  0.95582288894E+01 -0.91459775362E+02  0.93465542385E+02  0.00000000000E+00 0. -1.
        -14    1    4    4    0    0  0.99570097214E+02 -0.12570555841E+03 -0.40348598093E+03  0.43418547705E+03  0.00000000000E+00 0.  1.
<mgrwt>
<rscale>  2 0.22286187E+03</rscale>
<asrwt>0</asrwt>
<pdfrwt beam="1">  1       21 0.12705753E-01 0.22318052E+03</pdfrwt>
<pdfrwt beam="2">  1       21 0.14164001E+00 0.22318052E+03</pdfrwt>
<totfact> 0.18029360E+04</totfact>
</mgrwt>
</event>
<event>
12    1  0.1050690E-001  0.2160888E+03  0.7546771E-02  0.1138121E+00
         21   -1    0    0  503  502  0.00000000000E+00  0.00000000000E+00  0.66383662989E+03  0.66383662989E+03  0.00000000000E+00 0.  1.
         21   -1    0    0  501  503 -0.00000000000E+00 -0.00000000000E+00 -0.74813836542E+02  0.74813836542E+02  0.00000000000E+00 0. -1.
          6    2    1    2  501    0  0.11881715559E+03  0.71383253546E+01  0.18048146167E+03  0.27648125127E+03  0.17233645043E+03 0.  0.
         24    2    3    3    0    0 -0.84820469700E+01 -0.86303310573E+01  0.89629037929E+02  0.11922353159E+03  0.77681775925E+02 0.  0.
         -6    2    1    2    0  502 -0.11881715559E+03 -0.71383253546E+01  0.40854133168E+03  0.46216921517E+03  0.18034935987E+03 0.  0.
        -24    2    5    5    0    0 -0.21861451092E+02  0.11689209249E+02  0.69075932178E+02  0.10859640491E+03  0.80044575681E+02 0.  0.
          5    1    3    3  501    0  0.12729920256E+03  0.15768656412E+02  0.90852423739E+02  0.15725771967E+03  0.47000000000E+01 0. -1.
        -11    1    4    4    0    0 -0.17172083609E+01  0.54323037846E+01  0.10020845969E+03  0.10037028506E+03  0.00000000000E+00 0.  1.
         12    1    4    4    0    0 -0.67648386091E+01 -0.14062634842E+02 -0.10579421763E+02  0.18853246536E+02  0.00000000000E+00 0. -1.
         -5    1    5    5    0  502 -0.96955704499E+02 -0.18827534604E+02  0.33946539950E+03  0.35357281026E+03  0.47000000000E+01 0.  1.
         11    1    6    6    0    0 -0.46981829597E+02  0.48456671298E+01  0.16682836693E+02  0.50090815948E+02  0.00000000000E+00 0. -1.
        -12    1    6    6    0    0  0.25120378505E+02  0.68435421197E+01  0.52393095485E+02  0.58505588960E+02  0.00000000000E+00 0.  1.
<mgrwt>
<rscale>  2 0.21440902E+03</rscale>
<asrwt>0</asrwt>
<pdfrwt beam="1">  1       21 0.10212871E+00 0.21608879E+03</pdfrwt>
<pdfrwt beam="2">  1       21 0.11509821E-01 0.21608879E+03</pdfrwt>
<totfact> 0.48778199E+04</totfact>
</mgrwt>
</event>
<event>
12    1  0.1050690E-001  0.3758925E+03  0.7546771E-02  0.1052511E+00
         21   -1    0    0  501  502  0.00000000000E+00  0.00000000000E+00  0.15036330807E+03  0.15036330807E+03  0.00000000000E+00 0. -1.
         21   -1    0    0  502  503 -0.00000000000E+00 -0.00000000000E+00 -0.97082664231E+03  0.97082664231E+03  0.00000000000E+00 0. -1.
         -6    2    1    2    0  503 -0.56816138594E+02 -0.32873936797E+03 -0.30750581608E+03  0.48524922330E+03  0.17207363577E+03 0.  0.
        -24    2    3    3    0    0 -0.65670977512E+02 -0.33943447666E+03 -0.30829673083E+03  0.47056899618E+03  0.82824300122E+02 0.  0.
          6    2    1    2  501    0  0.56816138594E+02  0.32873936797E+03 -0.51295751815E+03  0.63594072709E+03  0.17319800021E+03 0.  0.
         24    2    5    5    0    0  0.90301943213E+02  0.17241590160E+03 -0.33688206319E+03  0.39806895261E+03  0.84188374883E+02 0.  0.
          5    1    5    5  501    0 -0.33485804619E+02  0.15632346637E+03 -0.17607545497E+03  0.23787177447E+03  0.47000000000E+01 0. -1.
        -13    1    6    6    0    0  0.24382974651E+02 -0.24643476177E+01 -0.29759421847E+02  0.38551597252E+02  0.00000000000E+00 0.  1.
         14    1    6    6    0    0  0.65918968562E+02  0.17488024922E+03 -0.30712264134E+03  0.35951735536E+03  0.00000000000E+00 0. -1.
         -5    1    3    3    0  503  0.88548389179E+01  0.10695108689E+02  0.79091474888E+00  0.14680227119E+02  0.47000000000E+01 0.  1.
         13    1    4    4    0    0  0.16506740040E+02 -0.10606345715E+03 -0.79463655769E+02  0.13355299322E+03  0.00000000000E+00 0. -1.
        -14    1    4    4    0    0 -0.82177717552E+02 -0.23337101951E+03 -0.22883307506E+03  0.33701600296E+03  0.00000000000E+00 0.  1.
<mgrwt>
<rscale>  2 0.37576328E+03</rscale>
<asrwt>0</asrwt>
<pdfrwt beam="1">  1       21 0.23132817E-01 0.37589253E+03</pdfrwt>
<pdfrwt beam="2">  1       21 0.14935795E+00 0.37589253E+03</pdfrwt>
<totfact> 0.47533828E+03</totfact>
</mgrwt>
</event>
<event>
12    1  0.1050690E-001  0.1775440E+03  0.7546771E-02  0.1171699E+00
         21   -1    0    0  501  502  0.00000000000E+00  0.00000000000E+00  0.16370414422E+03  0.16370414422E+03  0.00000000000E+00 0. -1.
         21   -1    0    0  502  503 -0.00000000000E+00 -0.00000000000E+00 -0.20121338586E+03  0.20121338586E+03  0.00000000000E+00 0. -1.
         -6    2    1    2    0  503  0.73088493651E+01  0.24034221260E+02 -0.68991833042E+02  0.19047766726E+03  0.17575780389E+03 0.  0.
        -24    2    3    3    0    0  0.30795058590E+02  0.51308722413E+02 -0.10103916537E+03  0.14205637085E+03  0.79938594752E+02 0.  0.
          6    2    1    2  501    0 -0.73088493651E+01 -0.24034221260E+02  0.31482591409E+02  0.17443986282E+03  0.16972639485E+03 0.  0.
         24    2    5    5    0    0 -0.69597094878E+02 -0.14074405567E+02  0.21980064224E+02  0.11047572067E+03  0.81730759982E+02 0.  0.
          5    1    5    5  501    0  0.62288245513E+02 -0.99598156928E+01  0.95025271853E+01  0.63964142147E+02  0.47000000000E+01 0. -1.
        -13    1    6    6    0    0 -0.65194737109E+02  0.50321624627E+01 -0.16367723161E+02  0.67406073667E+02  0.00000000000E+00 0.  1.
         14    1    6    6    0    0 -0.44023577687E+01 -0.19106568030E+02  0.38347787385E+02  0.43069647005E+02  0.00000000000E+00 0. -1.
         -5    1    3    3    0  503 -0.23486209225E+02 -0.27274501153E+02  0.32047332327E+02  0.48421296412E+02  0.47000000000E+01 0.  1.
         11    1    4    4    0    0 -0.17857829959E+02  0.67137230568E+01 -0.63119859008E+02  0.65940069528E+02  0.00000000000E+00 0. -1.
        -12    1    4    4    0    0  0.48652888550E+02  0.44594999357E+02 -0.37919306361E+02  0.76116301321E+02  0.00000000000E+00 0.  1.
<mgrwt>
<rscale>  2 0.17603265E+03</rscale>
<asrwt>0</asrwt>
<pdfrwt beam="1">  1       21 0.25185253E-01 0.17754399E+03</pdfrwt>
<pdfrwt beam="2">  1       21 0.30955906E-01 0.17754399E+03</pdfrwt>
<totfact> 0.15042191E+05</totfact>
</mgrwt>
</event>
<event>
12    1  0.1050690E-001  0.1747635E+03  0.7546771E-02  0.1173189E+00
         21   -1    0    0  503  502  0.00000000000E+00  0.00000000000E+00  0.19796752288E+03  0.19796752288E+03  0.00000000000E+00 0.  1.
         21   -1    0    0  501  503 -0.00000000000E+00 -0.00000000000E+00 -0.15457053741E+03  0.15457053741E+03  0.00000000000E+00 0.  1.
          6    2    1    2  501    0 -0.83497867783E+01 -0.26543730305E+01  0.70433845798E+01  0.17403350817E+03  0.17367005518E+03 0.  0.
         24    2    3    3    0    0  0.19837010681E+02 -0.21619845501E+02  0.63977058438E+02  0.10756759273E+03  0.81343704654E+02 0.  0.
         -6    2    1    2    0  502  0.83497867783E+01  0.26543730305E+01  0.36353600893E+02  0.17850455212E+03  0.17454376584E+03 0.  0.
        -24    2    5    5    0    0 -0.60580208423E+02 -0.45344973545E+01  0.41943381589E+02  0.10881696539E+03  0.79945990381E+02 0.  0.
          5    1    3    3  501    0 -0.28186797459E+02  0.18965472470E+02 -0.56933673858E+02  0.66465915446E+02  0.47000000000E+01 0. -1.
        -13    1    4    4    0    0  0.15111761257E+02  0.29890941648E+02  0.34258846208E+02  0.47911400150E+02  0.00000000000E+00 0.  1.
         14    1    4    4    0    0  0.47252494242E+01 -0.51510787148E+02  0.29718212230E+02  0.59656192578E+02  0.00000000000E+00 0. -1.
         -5    1    5    5    0  502  0.68929995202E+02  0.71888703850E+01 -0.55897806960E+01  0.69687586729E+02  0.47000000000E+01 0.  1.
         13    1    6    6    0    0 -0.36419779431E+02  0.34225634166E+02  0.52947472027E+01  0.50257623460E+02  0.00000000000E+00 0. -1.
        -14    1    6    6    0    0 -0.24160428992E+02 -0.38760131520E+02  0.36648634386E+02  0.58559341927E+02  0.00000000000E+00 0.  1.
<mgrwt>
<rscale>  2 0.17454497E+03</rscale>
<asrwt>0</asrwt>
<pdfrwt beam="1">  1       21 0.30456542E-01 0.17476353E+03</pdfrwt>
<pdfrwt beam="2">  1       21 0.23780083E-01 0.17476353E+03</pdfrwt>
<totfact> 0.17332564E+05</totfact>
</mgrwt>
</event>
<event>
11    1  0.1050690E-001  0.1781859E+03  0.7546771E-02  0.1171455E+00
         21   -1    0    0  501  502  0.00000000000E+00  0.00000000000E+00  0.34482095538E+02  0.34482095538E+02  0.00000000000E+00 0. -1.
         21   -1    0    0  502  503 -0.00000000000E+00 -0.00000000000E+00 -0.99023807349E+03  0.99023807349E+03  0.00000000000E+00 0. -1.
         -6    2    1    2    0  503  0.30851999333E+02  0.23838329587E+02 -0.65611855534E+03  0.67988365632E+03  0.17386809843E+03 0.  0.
        -24    2    3    3    0    0 -0.40718477506E+02  0.49592017545E+02 -0.39012011403E+03  0.40318373515E+03  0.79032008089E+02 0.  0.
          6    2    1    2  501    0 -0.30851999333E+02 -0.23838329587E+02 -0.29963742262E+03  0.34483651271E+03  0.16616113759E+03 0.  0.
          5    1    5    5  501    0  0.11424574149E+02 -0.12769276633E+02  0.16801045453E+02  0.24452820871E+02  0.47000000000E+01 0. -1.
        -13    1    5    5    0    0 -0.11167953229E+02  0.58640785156E+01 -0.48461659072E+02  0.50076371636E+02  0.00000000000E+00 0.  1.
         14    1    5    5    0    0 -0.31108620253E+02 -0.16933131470E+02 -0.26797680900E+03  0.27030732021E+03  0.00000000000E+00 0. -1.
         -5    1    3    3    0  503  0.71570476840E+02 -0.25753687958E+02 -0.26599844131E+03  0.27669992117E+03  0.47000000000E+01 0.  1.
         13    1    4    4    0    0 -0.18598799976E+02 -0.19430651283E+02 -0.70703157740E+02  0.75646560293E+02  0.00000000000E+00 0. -1.
        -14    1    4    4    0    0 -0.22119677530E+02  0.69022668828E+02 -0.31941695629E+03  0.32753717486E+03  0.00000000000E+00 0.  1.
<mgrwt>
<rscale>  2 0.17627753E+03</rscale>
<asrwt>0</asrwt>
<pdfrwt beam="1">  1       21 0.53049383E-02 0.17818594E+03</pdfrwt>
<pdfrwt beam="2">  1       21 0.15234430E+00 0.17818594E+03</pdfrwt>
<totfact> 0.70330960E+04</totfact>
</mgrwt>
</event>
<event>
11    1  0.1050690E-001  0.2096328E+03  0.7546771E-02  0.1141896E+00
         21   -1    0    0  501  502  0.00000000000E+00  0.00000000000E+00  0.85859246117E+02  0.85859246117E+02  0.00000000000E+00 0.  1.
         21   -1    0    0  502  503 -0.00000000000E+00 -0.00000000000E+00 -0.81324276843E+03  0.81324276843E+03  0.00000000000E+00 0. -1.
         -6    2    1    2    0  503 -0.70260253545E+01 -0.11691234275E+03 -0.63770032065E+03  0.67127313919E+03  0.17386220842E+03 0.  0.
          6    2    1    2  501    0  0.70260253545E+01  0.11691234275E+03 -0.89683201660E+02  0.22782887536E+03  0.17362332466E+03 0.  0.
         24    2    4    4    0    0  0.58898920618E+02  0.11297329245E+03 -0.90344645072E+02  0.17559056674E+03  0.80236179979E+02 0.  0.
          5    1    4    4  501    0 -0.51872895264E+02  0.39390503046E+01  0.66144341134E+00  0.52238308622E+02  0.47000000000E+01 0. -1.
        -13    1    5    5    0    0  0.26015269390E+02  0.11224149634E+03 -0.82692732328E+02  0.14182043478E+03  0.00000000000E+00 0.  1.
         14    1    5    5    0    0  0.32883651228E+02  0.73179610719E+00 -0.76519127440E+01  0.33770131955E+02  0.00000000000E+00 0. -1.
         -5    1    3    3    0  503 -0.72915100174E+02 -0.14874658115E+02 -0.31943059964E+03  0.32801808681E+03  0.47000000000E+01 0.  1.
         11    1    3    3    0    0  0.33640821498E+02 -0.67116083420E+02 -0.14122036020E+03  0.15993581107E+03  0.00000000000E+00 0. -1.
        -12    1    3    3    0    0  0.32248253322E+02 -0.34921601215E+02 -0.17704936081E+03  0.18331924132E+03  0.00000000000E+00 0.  1.
<mgrwt>
<rscale>  2 0.20958330E+03</rscale>
<asrwt>0</asrwt>
<pdfrwt beam="1">  1       21 0.13209115E-01 0.20963284E+03</pdfrwt>
<pdfrwt beam="2">  1       21 0.12511427E+00 0.20963284E+03</pdfrwt>
<totfact> 0.23260761E+04</totfact>
</mgrwt>
</event>
<event>
12    1  0.1050690E-001  0.2050731E+03  0.7546771E-02  0.1145814E+00
         21   -1    0    0  501  502  0.00000000000E+00  0.00000000000E+00  0.19684864851E+03  0.19684864851E+03  0.00000000000E+00 0.  1.
         21   -1    0    0  502  503 -0.00000000000E+00 -0.00000000000E+00 -0.21950657609E+03  0.21950657609E+03  0.00000000000E+00 0.  1.
         -6    2    1    2    0  503  0.10278680078E+03  0.39793831751E+02 -0.49376461726E+02  0.21093367677E+03  0.17293439671E+03 0.  0.
        -24    2    3    3    0    0  0.87064698321E+02 -0.22219442101E+02  0.12051302878E+02  0.12211762584E+03  0.81813906749E+02 0.  0.
          6    2    1    2  501    0 -0.10278680078E+03 -0.39793831751E+02  0.26718534144E+02  0.20542154783E+03  0.17127596676E+03 0.  0.
         24    2    5    5    0    0 -0.10679038620E+03  0.25500983003E+02  0.44605270481E+01  0.13616152755E+03  0.80408821429E+02 0.  0.
          5    1    5    5  501    0  0.40035854263E+01 -0.65294814754E+02  0.22258007096E+02  0.69260020285E+02  0.47000000000E+01 0. -1.
        -11    1    6    6    0    0 -0.30763489482E+02 -0.25146754498E+01  0.37578665180E+02  0.48629949151E+02  0.00000000000E+00 0.  1.
         12    1    6    6    0    0 -0.76026896719E+02  0.28015658452E+02 -0.33118138132E+02  0.87531578397E+02  0.00000000000E+00 0. -1.
         -5    1    3    3    0  503  0.15722102454E+02  0.62013273852E+02 -0.61427764605E+02  0.88816050935E+02  0.47000000000E+01 0.  1.
         13    1    4    4    0    0  0.15700696687E+02 -0.38708668570E+02 -0.14489018394E+02  0.44213171713E+02  0.00000000000E+00 0. -1.
        -14    1    4    4    0    0  0.71364001634E+02  0.16489226469E+02  0.26540321273E+02  0.77904454122E+02  0.00000000000E+00 0.  1.
<mgrwt>
<rscale>  2 0.20472307E+03</rscale>
<asrwt>0</asrwt>
<pdfrwt beam="1">  1       21 0.30284407E-01 0.20507311E+03</pdfrwt>
<pdfrwt beam="2">  1       21 0.33770242E-01 0.20507311E+03</pdfrwt>
<totfact> 0.87915547E+04</totfact>
</mgrwt>
</event>
<event>
12    1  0.1050690E-001  0.2188029E+03  0.7546771E-02  0.1135146E+00
         21   -1    0    0  503  502  0.00000000000E+00  0.00000000000E+00  0.16570750015E+03  0.16570750015E+03  0.00000000000E+00 0. -1.
         21   -1    0    0  501  503 -0.00000000000E+00 -0.00000000000E+00 -0.28820399578E+03  0.28820399578E+03  0.00000000000E+00 0. -1.
          6    2    1    2  501    0 -0.67978418760E+02  0.11105026111E+03 -0.79761272928E+02  0.23288746635E+03  0.17584506082E+03 0.  0.
         24    2    3    3    0    0 -0.25323494118E+02  0.93082839599E+02  0.15588066366E+02  0.12679384102E+03  0.80796014297E+02 0.  0.
         -6    2    1    2    0  502  0.67978418760E+02 -0.11105026111E+03 -0.42735222706E+02  0.22102402957E+03  0.17341308047E+03 0.  0.
        -24    2    5    5    0    0  0.63873306126E+02 -0.14286504864E+03 -0.11458836077E+02  0.17597588848E+03  0.79661703757E+02 0.  0.
          5    1    3    3  501    0 -0.42654924641E+02  0.17967421514E+02 -0.95349339294E+02  0.10609362533E+03  0.47000000000E+01 0. -1.
        -13    1    4    4    0    0  0.26715291337E+02  0.20325184090E+02  0.16350208064E+02  0.37338307450E+02  0.00000000000E+00 0.  1.
         14    1    4    4    0    0 -0.52038785456E+02  0.72757655509E+02 -0.76214169733E+00  0.89455533573E+02  0.00000000000E+00 0. -1.
         -5    1    5    5    0  502  0.41051126334E+01  0.31814787527E+02 -0.31276386628E+02  0.45048141090E+02  0.47000000000E+01 0.  1.
         11    1    6    6    0    0  0.32560234416E+02 -0.76097562196E+02  0.33848464468E+02  0.89424417159E+02  0.00000000000E+00 0. -1.
        -12    1    6    6    0    0  0.31313071710E+02 -0.66767486444E+02 -0.45307300545E+02  0.86551471326E+02  0.00000000000E+00 0.  1.
<mgrwt>
<rscale>  2 0.21831385E+03</rscale>
<asrwt>0</asrwt>
<pdfrwt beam="1">  1       21 0.25493462E-01 0.21880291E+03</pdfrwt>
<pdfrwt beam="2">  1       21 0.44339076E-01 0.21880291E+03</pdfrwt>
<totfact> 0.70469123E+04</totfact>
</mgrwt>
</event>
<event>
12    1  0.1050690E-001  0.1882180E+03  0.7546771E-02  0.1160320E+00
         21   -1    0    0  503  502  0.00000000000E+00  0.00000000000E+00  0.11763580170E+03  0.11763580170E+03  0.00000000000E+00 0. -1.
         21   -1    0    0  501  503 -0.00000000000E+00 -0.00000000000E+00 -0.33661037865E+03  0.33661037865E+03  0.00000000000E+00 0. -1.
          6    2    1    2  501    0  0.41888372480E+02 -0.61116171143E+02 -0.34312231670E+02  0.19132003165E+03  0.17302081708E+03 0.  0.
         24    2    3    3    0    0  0.92039987980E+02 -0.57093596727E+02 -0.38685947590E+02  0.14059937478E+03  0.80873626562E+02 0.  0.
         -6    2    1    2    0  502 -0.41888372480E+02  0.61116171143E+02 -0.18466234528E+03  0.26292614870E+03  0.17187249862E+03 0.  0.
        -24    2    5    5    0    0 -0.10315982904E+02  0.65820729583E+02 -0.34267732493E+02  0.10910944541E+03  0.79320902933E+02 0.  0.
          5    1    3    3  501    0 -0.50151615501E+02 -0.40225744162E+01  0.43737159194E+01  0.50720656869E+02  0.47000000000E+01 0. -1.
        -11    1    4    4    0    0  0.65709952710E+01 -0.83857451845E+01 -0.40835264210E+02  0.42202103078E+02  0.00000000000E+00 0.  1.
         12    1    4    4    0    0  0.85468992709E+02 -0.48707851542E+02  0.21493166201E+01  0.98397271703E+02  0.00000000000E+00 0. -1.
         -5    1    5    5    0  502 -0.31572389576E+02 -0.47045584402E+01 -0.15039461279E+03  0.15381670328E+03  0.47000000000E+01 0.  1.
         13    1    6    6    0    0 -0.34769845036E+02  0.33932473158E+02 -0.46350484426E+02  0.67147019778E+02  0.00000000000E+00 0. -1.
        -14    1    6    6    0    0  0.24453862132E+02  0.31888256425E+02  0.12082751933E+02  0.41962425636E+02  0.00000000000E+00 0.  1.
<mgrwt>
<rscale>  2 0.18795371E+03</rscale>
<asrwt>0</asrwt>
<pdfrwt beam="1">  1       21 0.18097816E-01 0.18821803E+03</pdfrwt>
<pdfrwt beam="2">  1       21 0.51786212E-01 0.18821803E+03</pdfrwt>
<totfact> 0.98586681E+04</totfact>
</mgrwt>
</event>
<event>
12    1  0.1050690E-001  0.1848097E+03  0.7546771E-02  0.1163261E+00
         21   -1    0    0  503  502  0.00000000000E+00  0.00000000000E+00  0.13998314252E+03  0.13998314252E+03  0.00000000000E+00 0. -1.
         21   -1    0    0  501  503 -0.00000000000E+00 -0.00000000000E+00 -0.18683725892E+04  0.18683725892E+04  0.00000000000E+00 0. -1.
          6    2    1    2  501    0  0.51723923281E+02 -0.42293270817E+02 -0.18006106503E+04  0.18100699802E+04  0.17230941473E+03 0.  0.
         24    2    3    3    0    0  0.39216355757E+02 -0.14535088728E+02 -0.37436538946E+03  0.38349205038E+03  0.71885440193E+02 0.  0.
         -6    2    1    2    0  502 -0.51723923281E+02  0.42293270817E+02  0.72221203551E+02  0.19828575154E+03  0.17215473280E+03 0.  0.
        -24    2    5    5    0    0 -0.78659749297E+02  0.25830442410E+02 -0.33772709799E+01  0.11622612204E+03  0.81501764215E+02 0.  0.
          5    1    3    3  501    0  0.12507567524E+02 -0.27758182089E+02 -0.14262452608E+04  0.14265779298E+04  0.47000000000E+01 0. -1.
        -13    1    4    4    0    0  0.28206381390E+02 -0.35267924694E+02 -0.33200214533E+03  0.33505947378E+03  0.00000000000E+00 0.  1.
         14    1    4    4    0    0  0.11009974367E+02  0.20732835966E+02 -0.42363244129E+02  0.48432576598E+02  0.00000000000E+00 0. -1.
         -5    1    5    5    0  502  0.26935826016E+02  0.16462828407E+02  0.75598474531E+02  0.82059629500E+02  0.47000000000E+01 0.  1.
         13    1    6    6    0    0 -0.37084190727E+02 -0.91754477085E+01  0.33283205858E+02  0.50667522485E+02  0.00000000000E+00 0. -1.
        -14    1    6    6    0    0 -0.41575558570E+02  0.35005890119E+02 -0.36660476838E+02  0.65558599553E+02  0.00000000000E+00 0.  1.
<mgrwt>
<rscale>  2 0.18477362E+03</rscale>
<asrwt>0</asrwt>
<pdfrwt beam="1">  1       21 0.21535870E-01 0.18480968E+03</pdfrwt>
<pdfrwt beam="2">  1       21 0.28744192E+00 0.18480968E+03</pdfrwt>
<totfact> 0.81897805E+02</totfact>
</mgrwt>
</event>
<event>
12    1  0.1050690E-001  0.1909317E+03  0.7546771E-02  0.1157781E+00
         21   -1    0    0  501  502  0.00000000000E+00  0.00000000000E+00  0.16121355825E+04  0.16121355825E+04  0.00000000000E+00 0. -1.
         21   -1    0    0  502  503 -0.00000000000E+00 -0.00000000000E+00 -0.22544347023E+02  0.22544347023E+02  0.00000000000E+00 0.  1.
         -6    2    1    2    0  503 -0.78977983089E+02  0.96293639363E+01  0.77274040027E+03  0.79581152567E+03  0.17279470974E+03 0.  0.
        -24    2    3    3    0    0 -0.71502886537E+02  0.68991512366E+02  0.57570641409E+03  0.58984011153E+03  0.81246479161E+02 0.  0.
          6    2    1    2  501    0  0.78977983089E+02 -0.96293639363E+01  0.81685083523E+03  0.83886840388E+03  0.17356458609E+03 0.  0.
         24    2    5    5    0    0  0.73728300765E+02  0.37585894563E+02  0.33669930533E+03  0.35634957372E+03  0.82280220411E+02 0.  0.
          5    1    5    5  501    0  0.52496823239E+01 -0.47215258499E+02  0.48015152990E+03  0.48251883016E+03  0.47000000000E+01 0. -1.
        -13    1    6    6    0    0  0.91268580105E+02  0.26530239618E+02  0.29191271374E+03  0.30699648170E+03  0.00000000000E+00 0.  1.
         14    1    6    6    0    0 -0.17540279340E+02  0.11055654945E+02  0.44786591592E+02  0.49353092021E+02  0.00000000000E+00 0. -1.
         -5    1    3    3    0  503 -0.74750965524E+01 -0.59362148429E+02  0.19703398618E+03  0.20597141414E+03  0.47000000000E+01 0.  1.
         13    1    4    4    0    0 -0.41694924823E+02  0.26752474390E+02  0.46529578880E+03  0.46792556322E+03  0.00000000000E+00 0. -1.
        -14    1    4    4    0    0 -0.29807961714E+02  0.42239037976E+02  0.11041062530E+03  0.12191454831E+03  0.00000000000E+00 0.  1.
<mgrwt>
<rscale>  2 0.19075656E+03</rscale>
<asrwt>0</asrwt>
<pdfrwt beam="1">  1       21 0.24802077E+00 0.19093169E+03</pdfrwt>
<pdfrwt beam="2">  1       21 0.34683624E-02 0.19093169E+03</pdfrwt>
<totfact> 0.34013986E+04</totfact>
</mgrwt>
</event>
<event>
12    1  0.1050690E-001  0.1838638E+03  0.7546771E-02  0.1164125E+00
         21   -1    0    0  501  502  0.00000000000E+00  0.00000000000E+00  0.55506352943E+03  0.55506352943E+03  0.00000000000E+00 0. -1.
         21   -1    0    0  502  503 -0.00000000000E+00 -0.00000000000E+00 -0.16875145546E+03  0.16875145546E+03  0.00000000000E+00 0. -1.
         -6    2    1    2    0  503  0.57041918566E+02 -0.13921851580E+02 -0.96173917201E+02  0.20749779160E+03  0.17423637032E+03 0.  0.
        -24    2    3    3    0    0  0.50436959627E+02  0.45340442238E+02 -0.10918044168E+03  0.14628582683E+03  0.69853644773E+02 0.  0.
          6    2    1    2  501    0 -0.57041918566E+02  0.13921851580E+02  0.48248599118E+03  0.51631719329E+03  0.17419274951E+03 0.  0.
         24    2    5    5    0    0 -0.95866284677E+02 -0.22978400279E+02  0.30405391327E+03  0.32995985800E+03  0.81892455690E+02 0.  0.
          5    1    5    5  501    0  0.38824366110E+02  0.36900251858E+02  0.17843207791E+03  0.18635733529E+03  0.47000000000E+01 0. -1.
        -11    1    6    6    0    0 -0.11909247779E+02 -0.21565963202E+02  0.17002155285E+03  0.17179711693E+03  0.00000000000E+00 0.  1.
         12    1    6    6    0    0 -0.83957036898E+02 -0.14124370763E+01  0.13403236042E+03  0.15816274107E+03  0.00000000000E+00 0. -1.
         -5    1    3    3    0  503  0.66049589390E+01 -0.59262293817E+02  0.13006524480E+02  0.61211964763E+02  0.47000000000E+01 0.  1.
         13    1    4    4    0    0  0.19520513233E+02  0.57995435685E+02 -0.53148010628E+02  0.81050799077E+02  0.00000000000E+00 0. -1.
        -14    1    4    4    0    0  0.30916446394E+02 -0.12654993448E+02 -0.56032431053E+02  0.65235027757E+02  0.00000000000E+00 0.  1.
<mgrwt>
<rscale>  2 0.18385350E+03</rscale>
<asrwt>0</asrwt>
<pdfrwt beam="1">  1       21 0.85394388E-01 0.18386384E+03</pdfrwt>
<pdfrwt beam="2">  1       21 0.25961763E-01 0.18386384E+03</pdfrwt>
<totfact> 0.16799780E+04</totfact>
</mgrwt>
</event>
<event>
12    1  0.1050690E-001  0.2100090E+03  0.7546771E-02  0.1141729E+00
         21   -1    0    0  503  502  0.00000000000E+00  0.00000000000E+00  0.26263921396E+03  0.26263921396E+03  0.00000000000E+00 0.  1.
         21   -1    0    0  501  503 -0.00000000000E+00 -0.00000000000E+00 -0.20793594255E+03  0.20793594255E+03  0.00000000000E+00 0.  1.
          6    2    1    2  501    0 -0.18573004461E+02  0.11813937414E+03 -0.76694930787E+02  0.22357524659E+03  0.17263229785E+03 0.  0.
         24    2    3    3    0    0 -0.50976924833E+02  0.15947216102E+02 -0.61532502712E+02  0.11519978606E+03  0.81435749218E+02 0.  0.
         -6    2    1    2    0  502  0.18573004461E+02 -0.11813937414E+03  0.13139820220E+03  0.24699990992E+03  0.17158554642E+03 0.  0.
        -24    2    5    5    0    0  0.42355904044E+02 -0.35820579071E+02  0.12876007630E+03  0.16114503212E+03  0.79444494048E+02 0.  0.
          5    1    3    3  501    0  0.32403920372E+02  0.10219215804E+03 -0.15162428075E+02  0.10837546053E+03  0.47000000000E+01 0. -1.
        -11    1    4    4    0    0 -0.20396869404E+02  0.19871541335E+02 -0.75987842502E+02  0.81148398904E+02  0.00000000000E+00 0.  1.
         12    1    4    4    0    0 -0.30580055429E+02 -0.39243252330E+01  0.14455339791E+02  0.34051387153E+02  0.00000000000E+00 0. -1.
         -5    1    5    5    0  502 -0.23782899583E+02 -0.82318795068E+02  0.26381258980E+01  0.85854877801E+02  0.47000000000E+01 0.  1.
         11    1    6    6    0    0  0.50965338003E+02 -0.80679696352E+01  0.33424813459E+02  0.61479882617E+02  0.00000000000E+00 0. -1.
        -12    1    6    6    0    0 -0.86094339596E+01 -0.27752609436E+02  0.95335262843E+02  0.99665149500E+02  0.00000000000E+00 0.  1.
<mgrwt>
<rscale>  2 0.20979376E+03</rscale>
<asrwt>0</asrwt>
<pdfrwt beam="1">  1       21 0.40406033E-01 0.21000900E+03</pdfrwt>
<pdfrwt beam="2">  1       21 0.31990145E-01 0.21000900E+03</pdfrwt>
<totfact> 0.55012877E+04</totfact>
</mgrwt>
</event>
<event>
12    1  0.1050690E-001  0.1936717E+03  0.7546771E-02  0.1155219E+00
         21   -1    0    0  501  502  0.00000000000E+00  0.00000000000E+00  0.11928934194E+04  0.11928934194E+04  0.00000000000E+00 0. -1.
         21   -1    0    0  502  503 -0.00000000000E+00 -0.00000000000E+00 -0.71760636982E+02  0.71760636982E+02  0.00000000000E+00 0. -1.
         -6    2    1    2    0  503 -0.85645090614E+02  0.53554850813E+01  0.86563530197E+02  0.21213665955E+03  0.17362302496E+03 0.  0.
        -24    2    3    3    0    0 -0.47602057251E+02  0.78354734023E+02  0.44208744325E+02  0.11944264345E+03  0.62503694305E+02 0.  0.
          6    2    1    2  501    0  0.85645090614E+02 -0.53554850813E+01  0.10345692522E+04  0.10525173968E+04  0.17348074887E+03 0.  0.
         24    2    5    5    0    0  0.89641472101E+02 -0.63003671355E+02  0.72254274741E+03  0.73515023698E+03  0.79829775018E+02 0.  0.
          5    1    5    5  501    0 -0.39963814869E+01  0.57648186274E+02  0.31202650479E+03  0.31736715983E+03  0.47000000000E+01 0. -1.
        -13    1    6    6    0    0  0.69609191710E+00 -0.14713704340E+02  0.17472803724E+02  0.22853369758E+02  0.00000000000E+00 0.  1.
         14    1    6    6    0    0  0.88945380183E+02 -0.48289967015E+02  0.70506994368E+03  0.71229686722E+03  0.00000000000E+00 0. -1.
         -5    1    3    3    0  503 -0.38043033362E+02 -0.72999248942E+02  0.42354785872E+02  0.92694016095E+02  0.47000000000E+01 0.  1.
         11    1    4    4    0    0  0.63641072955E+01  0.48677143143E+02  0.23837516432E+02  0.54572825800E+02  0.00000000000E+00 0. -1.
        -12    1    4    4    0    0 -0.53966164547E+02  0.29677590881E+02  0.20371227893E+02  0.64869817653E+02  0.00000000000E+00 0.  1.
<mgrwt>
<rscale>  2 0.19363978E+03</rscale>
<asrwt>0</asrwt>
<pdfrwt beam="1">  1       21 0.18352205E+00 0.19367167E+03</pdfrwt>
<pdfrwt beam="2">  1       21 0.11040099E-01 0.19367167E+03</pdfrwt>
<totfact> 0.11719388E+04</totfact>
</mgrwt>
</event>
<event>
12    1  0.1050690E-001  0.2267580E+03  0.7546771E-02  0.1129031E+00
         21   -1    0    0  503  502  0.00000000000E+00  0.00000000000E+00  0.10833512665E+03  0.10833512665E+03  0.00000000000E+00 0. -1.
         21   -1    0    0  501  503 -0.00000000000E+00 -0.00000000000E+00 -0.54151923667E+03  0.54151923667E+03  0.00000000000E+00 0.  1.
          6    2    1    2  501    0  0.69974474687E+01  0.14644240323E+03 -0.33146036187E+03  0.40132489488E+03  0.17234081938E+03 0.  0.
         24    2    3    3    0    0  0.36468817332E+02  0.36365360349E+02 -0.79483544301E+02  0.12473869927E+03  0.81176937668E+02 0.  0.
         -6    2    1    2    0  502 -0.69974474687E+01 -0.14644240323E+03 -0.10172374815E+03  0.24852946844E+03  0.17298795915E+03 0.  0.
        -24    2    5    5    0    0 -0.64753331870E+02 -0.10920121816E+03 -0.97674786376E+02  0.17952851091E+03  0.81069243873E+02 0.  0.
          5    1    3    3  501    0 -0.29471369864E+02  0.11007704288E+03 -0.25197681757E+03  0.27658619561E+03  0.47000000000E+01 0. -1.
        -11    1    4    4    0    0  0.42737248604E+02  0.44276220221E+02 -0.90728061332E+02  0.10962863316E+03  0.00000000000E+00 0.  1.
         12    1    4    4    0    0 -0.62684312713E+01 -0.79108598711E+01  0.11244517031E+02  0.15110066107E+02  0.00000000000E+00 0. -1.
         -5    1    5    5    0  502  0.57755884401E+02 -0.37241185076E+02 -0.40489617733E+01  0.69000957532E+02  0.47000000000E+01 0.  1.
         13    1    6    6    0    0  0.37914072516E+01 -0.17902711113E+02  0.11459348992E+02  0.21591630635E+02  0.00000000000E+00 0. -1.
        -14    1    6    6    0    0 -0.68544739121E+02 -0.91298507042E+02 -0.10913413537E+03  0.15793688028E+03  0.00000000000E+00 0.  1.
<mgrwt>
<rscale>  2 0.22663454E+03</rscale>
<asrwt>0</asrwt>
<pdfrwt beam="1">  1       21 0.16666943E-01 0.22675797E+03</pdfrwt>
<pdfrwt beam="2">  1       21 0.83310652E-01 0.22675797E+03</pdfrwt>
<totfact> 0.39890776E+04</totfact>
</mgrwt>
</event>
<event>
12    1  0.1050690E-001  0.3167179E+03  0.7546771E-02  0.1077282E+00
         21   -1    0    0  501  502  0.00000000000E+00  0.00000000000E+00  0.10719700131E+03  0.10719700131E+03  0.00000000000E+00 0.  1.
         21   -1    0    0  502  503 -0.00000000000E+00 -0.00000000000E+00 -0.11336017359E+04  0.11336017359E+04  0.00000000000E+00 0. -1.
         -6    2    1    2    0  503 -0.59950738459E+02  0.25890938916E+03 -0.77487650390E+03  0.83710442715E+03  0.17228483053E+03 0.  0.
        -24    2    3    3    0    0 -0.16620957878E+02  0.82956724723E+02 -0.45150165359E+03  0.46638864139E+03  0.80663171263E+02 0.  0.
          6    2    1    2  501    0  0.59950738459E+02 -0.25890938916E+03 -0.25152823068E+03  0.40369431005E+03  0.17051241098E+03 0.  0.
         24    2    5    5    0    0  0.94090090997E+02 -0.17779352396E+03 -0.12688786225E+03  0.25104244985E+03  0.80363546806E+02 0.  0.
          5    1    5    5  501    0 -0.34139352538E+02 -0.81115865205E+02 -0.12464036843E+03  0.15265186020E+03  0.47000000000E+01 0. -1.
        -13    1    6    6    0    0  0.11329668378E+02 -0.10599707563E+03 -0.70670060939E+02  0.12789839304E+03  0.00000000000E+00 0.  1.
         14    1    6    6    0    0  0.82760422619E+02 -0.71796448325E+02 -0.56217801310E+02  0.12314405681E+03  0.00000000000E+00 0. -1.
         -5    1    3    3    0  503 -0.43329780582E+02  0.17595266444E+03 -0.32337485030E+03  0.37071578577E+03  0.47000000000E+01 0.  1.
         11    1    4    4    0    0  0.21796750375E+02  0.51844146406E+02 -0.13810843828E+03  0.14912026880E+03  0.00000000000E+00 0. -1.
        -12    1    4    4    0    0 -0.38417708253E+02  0.31112578317E+02 -0.31339321532E+03  0.31726837259E+03  0.00000000000E+00 0.  1.
<mgrwt>
<rscale>  2 0.31647746E+03</rscale>
<asrwt>0</asrwt>
<pdfrwt beam="1">  1       21 0.16491847E-01 0.31671790E+03</pdfrwt>
<pdfrwt beam="2">  1       21 0.17440027E+00 0.31671790E+03</pdfrwt>
<totfact> 0.60334799E+03</totfact>
</mgrwt>
</event>
<event>
12    1  0.1050690E-001  0.1897078E+03  0.7546771E-02  0.1158741E+00
         21   -1    0    0  503  502  0.00000000000E+00  0.00000000000E+00  0.61994739558E+03  0.61994739558E+03  0.00000000000E+00 0. -1.
         21   -1    0    0  501  503 -0.00000000000E+00 -0.00000000000E+00 -0.70607735521E+02  0.70607735521E+02  0.00000000000E+00 0. -1.
          6    2    1    2  501    0 -0.69200498781E+02  0.35522324330E+02  0.42043393922E+03  0.46125237262E+03  0.17302748175E+03 0.  0.
         24    2    3    3    0    0 -0.47180973639E+02  0.88811711574E+02  0.24845235050E+03  0.27980162134E+03  0.80292044743E+02 0.  0.
         -6    2    1    2    0  502  0.69200498781E+02 -0.35522324330E+02  0.12890572084E+03  0.22930275849E+03  0.17295237965E+03 0.  0.
        -24    2    5    5    0    0  0.91228157668E+02  0.10440628071E+02  0.41571452927E+02  0.12807442697E+03  0.79014490313E+02 0.  0.
          5    1    3    3  501    0 -0.22019525142E+02 -0.53289387244E+02  0.17198158872E+03  0.18145075128E+03  0.47000000000E+01 0. -1.
        -11    1    4    4    0    0  0.21180391828E+02  0.32127954430E+02  0.57229220069E+02  0.68963744704E+02  0.00000000000E+00 0.  1.
         12    1    4    4    0    0 -0.68361365467E+02  0.56683757144E+02  0.19122313043E+03  0.21083787663E+03  0.00000000000E+00 0. -1.
         -5    1    5    5    0  502 -0.22027658887E+02 -0.45962952402E+02  0.87334267914E+02  0.10122833152E+03  0.47000000000E+01 0.  1.
         13    1    6    6    0    0  0.39227741233E+02 -0.32997268732E+02  0.29830788986E+02  0.59308611496E+02  0.00000000000E+00 0. -1.
        -14    1    6    6    0    0  0.52000416435E+02  0.43437896804E+02  0.11740663941E+02  0.68765815475E+02  0.00000000000E+00 0.  1.
<mgrwt>
<rscale>  2 0.18969069E+03</rscale>
<asrwt>0</asrwt>
<pdfrwt beam="1">  1       21 0.95376519E-01 0.18970781E+03</pdfrwt>
<pdfrwt beam="2">  1       21 0.10862729E-01 0.18970781E+03</pdfrwt>
<totfact> 0.64408278E+04</totfact>
</mgrwt>
</event>
<event>
12    1  0.1050690E-001  0.2598490E+03  0.7546771E-02  0.1109078E+00
         21   -1    0    0  501  502  0.00000000000E+00  0.00000000000E+00  0.54849313897E+02  0.54849313897E+02  0.00000000000E+00 0. -1.
         21   -1    0    0  502  503 -0.00000000000E+00 -0.00000000000E+00 -0.18865319786E+04  0.18865319786E+04  0.00000000000E+00 0.  1.
         -6    2    1    2    0  503  0.18660134951E+03  0.53540308721E+02 -0.15253083019E+04  0.15472837179E+04  0.17272770299E+03 0.  0.
        -24    2    3    3    0    0  0.47365801135E+02  0.70802674815E+02 -0.78913880742E+03  0.79784916980E+03  0.81035192905E+02 0.  0.
          6    2    1    2  501    0 -0.18660134951E+03 -0.53540308721E+02 -0.30637436276E+03  0.39409757461E+03  0.15414609906E+03 0.  0.
         24    2    5    5    0    0 -0.19658471822E+03 -0.22246504669E+02 -0.25299893151E+03  0.33124857713E+03  0.81096868591E+02 0.  0.
          5    1    5    5  501    0  0.99833687122E+01 -0.31293804051E+02 -0.53375431250E+02  0.62848997477E+02  0.47000000000E+01 0. -1.
        -11    1    6    6    0    0 -0.70241078876E+02  0.54570443720E+01 -0.15064185753E+03  0.16630260893E+03  0.00000000000E+00 0.  1.
         12    1    6    6    0    0 -0.12634363935E+03 -0.27703549041E+02 -0.10235707398E+03  0.16494596820E+03  0.00000000000E+00 0. -1.
         -5    1    3    3    0  503  0.13923554837E+03 -0.17262366095E+02 -0.73616949451E+03  0.74943454808E+03  0.47000000000E+01 0.  1.
         11    1    4    4    0    0  0.48121611554E+02  0.82259259102E+02 -0.53298416359E+03  0.54143734065E+03  0.00000000000E+00 0. -1.
        -12    1    4    4    0    0 -0.75581041890E+00 -0.11456584287E+02 -0.25615464383E+03  0.25641182915E+03  0.00000000000E+00 0.  1.
<mgrwt>
<rscale>  2 0.25680526E+03</rscale>
<asrwt>0</asrwt>
<pdfrwt beam="1">  1       21 0.84383580E-02 0.25984897E+03</pdfrwt>
<pdfrwt beam="2">  1       21 0.29023562E+00 0.25984897E+03</pdfrwt>
<totfact> 0.39711480E+03</totfact>
</mgrwt>
</event>
<event>
12    1  0.1050690E-001  0.2261561E+03  0.7546771E-02  0.1129507E+00
         21   -1    0    0  501  502  0.00000000000E+00  0.00000000000E+00  0.36874906062E+03  0.36874906062E+03  0.00000000000E+00 0.  1.
         21   -1    0    0  502  503 -0.00000000000E+00 -0.00000000000E+00 -0.15956373907E+03  0.15956373907E+03  0.00000000000E+00 0.  1.
         -6    2    1    2    0  503 -0.11756720706E+03  0.86119296586E+02  0.79087445998E+01  0.22556066762E+03  0.17197815301E+03 0.  0.
        -24    2    3    3    0    0 -0.30442282941E+02  0.28002048879E+02  0.59221754201E+02  0.10884099559E+03  0.81414364934E+02 0.  0.
          6    2    1    2  501    0  0.11756720706E+03 -0.86119296586E+02  0.20127657695E+03  0.30275213207E+03  0.17293932931E+03 0.  0.
         24    2    5    5    0    0  0.12672452583E+03 -0.60172643928E+02  0.21605338592E+03  0.27116844396E+03  0.84695967503E+02 0.  0.
          5    1    5    5  501    0 -0.91573187627E+01 -0.25946652658E+02 -0.14776808966E+02  0.31583688105E+02  0.47000000000E+01 0. -1.
        -13    1    6    6    0    0  0.96147522175E+02 -0.56454469142E+01  0.96967623543E+02  0.13667090805E+03  0.00000000000E+00 0.  1.
         14    1    6    6    0    0  0.30577003652E+02 -0.54527197013E+02  0.11908576238E+03  0.13449753592E+03  0.00000000000E+00 0. -1.
         -5    1    3    3    0  503 -0.87124924123E+02  0.58117247707E+02 -0.51313009601E+02  0.11671967203E+03  0.47000000000E+01 0.  1.
         13    1    4    4    0    0 -0.19594237219E+02 -0.22380976498E+02  0.47406676750E+02  0.55966375992E+02  0.00000000000E+00 0. -1.
        -14    1    4    4    0    0 -0.10848045722E+02  0.50383025377E+02  0.11815077452E+02  0.52874619595E+02  0.00000000000E+00 0.  1.
<mgrwt>
<rscale>  2 0.22597236E+03</rscale>
<asrwt>0</asrwt>
<pdfrwt beam="1">  1       21 0.56730624E-01 0.22615613E+03</pdfrwt>
<pdfrwt beam="2">  1       21 0.24548268E-01 0.22615613E+03</pdfrwt>
<totfact> 0.45073336E+04</totfact>
</mgrwt>
</event>
<event>
12    1  0.1050690E-001  0.2725835E+03  0.7546771E-02  0.1100573E+00
         21   -1    0    0  503  502  0.00000000000E+00  0.00000000000E+00  0.14113199571E+04  0.14113199571E+04  0.00000000000E+00 0.  1.
         21   -1    0    0  501  503 -0.00000000000E+00 -0.00000000000E+00 -0.52420291296E+02  0.52420291296E+02  0.00000000000E+00 0. -1.
          6    2    1    2  501    0 -0.18043006158E+02 -0.20370706817E+03  0.76323431240E+03  0.80866851840E+03  0.17203498868E+03 0.  0.
         24    2    3    3    0    0 -0.74449558124E+02 -0.16656621766E+03  0.58318185742E+03  0.61630917128E+03  0.80304882824E+02 0.  0.
         -6    2    1    2    0  502  0.18043006158E+02  0.20370706817E+03  0.59566535342E+03  0.65507173001E+03  0.18022108230E+03 0.  0.
        -24    2    5    5    0    0 -0.56700656554E+02  0.12175211949E+03  0.40925334817E+03  0.43810455639E+03  0.80054708095E+02 0.  0.
          5    1    3    3  501    0  0.56406551965E+02 -0.37140850512E+02  0.18005245497E+03  0.19235934712E+03  0.47000000000E+01 0. -1.
        -13    1    4    4    0    0 -0.45600813568E+02 -0.15472442515E+03  0.53605993949E+03  0.55980294806E+03  0.00000000000E+00 0.  1.
         14    1    4    4    0    0 -0.28848744555E+02 -0.11841792501E+02  0.47121917937E+02  0.56506223216E+02  0.00000000000E+00 0. -1.
         -5    1    5    5    0  502  0.74743662712E+02  0.81954948674E+02  0.18641200526E+03  0.21696717363E+03  0.47000000000E+01 0.  1.
         13    1    6    6    0    0 -0.59470732828E+02  0.49578752500E+02  0.27455794066E+03  0.28526633791E+03  0.00000000000E+00 0. -1.
        -14    1    6    6    0    0  0.27700762736E+01  0.72173366993E+02  0.13469540750E+03  0.15283821848E+03  0.00000000000E+00 0.  1.
<mgrwt>
<rscale>  2 0.27123813E+03</rscale>
<asrwt>0</asrwt>
<pdfrwt beam="1">  1       21 0.21712612E+00 0.27258349E+03</pdfrwt>
<pdfrwt beam="2">  1       21 0.80646613E-02 0.27258349E+03</pdfrwt>
<totfact> 0.11690668E+04</totfact>
</mgrwt>
</event>
<event>
12    1  0.1050690E-001  0.2070341E+03  0.7546771E-02  0.1144107E+00
         21   -1    0    0  501  502  0.00000000000E+00  0.00000000000E+00  0.14360788172E+03  0.14360788172E+03  0.00000000000E+00 0.  1.
         21   -1    0    0  502  503 -0.00000000000E+00 -0.00000000000E+00 -0.37155456322E+03  0.37155456322E+03  0.00000000000E+00 0. -1.
         -6    2    1    2    0  503  0.96924770065E+02  0.57498207573E+02 -0.22934420314E+03  0.30896907020E+03  0.17367402770E+03 0.  0.
        -24    2    3    3    0    0  0.64891389117E+02 -0.32648514407E+02 -0.14651913942E+03  0.18234107108E+03  0.80644839345E+02 0.  0.
          6    2    1    2  501    0 -0.96924770065E+02 -0.57498207573E+02  0.13975216434E+01  0.20619337474E+03  0.17266528254E+03 0.  0.
         24    2    5    5    0    0 -0.25190923158E+01  0.12913971962E+02  0.29524972732E+02  0.85017673697E+02  0.78633099444E+02 0.  0.
          5    1    5    5  501    0 -0.94405677749E+02 -0.70412179535E+02 -0.28127451088E+02  0.12117570104E+03  0.47000000000E+01 0. -1.
        -13    1    6    6    0    0 -0.17427155538E+02 -0.27395339230E+02  0.26541586044E+02  0.41936453729E+02  0.00000000000E+00 0.  1.
         14    1    6    6    0    0  0.14908063222E+02  0.40309311192E+02  0.29833866878E+01  0.43081219968E+02  0.00000000000E+00 0. -1.
         -5    1    3    3    0  503  0.32033380948E+02  0.90146721980E+02 -0.82825063720E+02  0.12662799911E+03  0.47000000000E+01 0.  1.
         11    1    4    4    0    0  0.71402653612E+02 -0.19290263184E+02 -0.14985225565E+03  0.16711119568E+03  0.00000000000E+00 0. -1.
        -12    1    4    4    0    0 -0.65112644947E+01 -0.13358251223E+02  0.33331162330E+01  0.15229875406E+02  0.00000000000E+00 0.  1.
<mgrwt>
<rscale>  2 0.20682242E+03</rscale>
<asrwt>0</asrwt>
<pdfrwt beam="1">  1       21 0.22093520E-01 0.20703411E+03</pdfrwt>
<pdfrwt beam="2">  1       21 0.57162240E-01 0.20703411E+03</pdfrwt>
<totfact> 0.54660789E+04</totfact>
</mgrwt>
</event>
<event>
12    1  0.1050690E-001  0.2310541E+03  0.7546771E-02  0.1126508E+00
         21   -1    0    0  503  502  0.00000000000E+00  0.00000000000E+00  0.43927985668E+02  0.43927985668E+02  0.00000000000E+00 0.  1.
         21   -1    0    0  501  503 -0.00000000000E+00 -0.00000000000E+00 -0.16860471614E+04  0.16860471614E+04  0.00000000000E+00 0.  1.
          6    2    1    2  501    0 -0.10025555851E+03 -0.11701073191E+03 -0.12911682763E+04  0.13116788927E+04  0.17217233051E+03 0.  0.
         24    2    3    3    0    0 -0.40954251266E+02 -0.12576900242E+03 -0.11109475512E+04  0.11216921771E+04  0.80584030496E+02 0.  0.
         -6    2    1    2    0  502  0.10025555851E+03  0.11701073191E+03 -0.35095089944E+03  0.41829625439E+03  0.16751875784E+03 0.  0.
        -24    2    5    5    0    0  0.11293451365E+03  0.25951500724E+02 -0.22592764029E+03  0.26303697185E+03  0.68683805605E+02 0.  0.
          5    1    3    3  501    0 -0.59301307248E+02  0.87582705172E+01 -0.18022072506E+03  0.18998671555E+03  0.47000000000E+01 0. -1.
        -11    1    4    4    0    0  0.19144765211E+02 -0.52742970148E+02 -0.29564307581E+03  0.30092053969E+03  0.00000000000E+00 0.  1.
         12    1    4    4    0    0 -0.60099016476E+02 -0.73026032276E+02 -0.81530447542E+03  0.82077163743E+03  0.00000000000E+00 0. -1.
         -5    1    5    5    0  502 -0.12678955132E+02  0.91059231182E+02 -0.12502325915E+03  0.15525928254E+03  0.47000000000E+01 0.  1.
         11    1    6    6    0    0  0.23628269418E+02 -0.22069811871E+02 -0.41913864709E+02  0.52935279035E+02  0.00000000000E+00 0. -1.
        -12    1    6    6    0    0  0.89306244228E+02  0.48021312595E+02 -0.18401377558E+03  0.21010169282E+03  0.00000000000E+00 0.  1.
<mgrwt>
<rscale>  2 0.23018762E+03</rscale>
<asrwt>0</asrwt>
<pdfrwt beam="1">  1       21 0.67581519E-02 0.23105411E+03</pdfrwt>
<pdfrwt beam="2">  1       21 0.25939186E+00 0.23105411E+03</pdfrwt>
<totfact> 0.90881870E+03</totfact>
</mgrwt>
</event>
<event>
12    1  0.1050690E-001  0.2423873E+03  0.7546771E-02  0.1118294E+00
         21   -1    0    0  503  502  0.00000000000E+00  0.00000000000E+00  0.36375225071E+03  0.36375225071E+03  0.00000000000E+00 0.  1.
         21   -1    0    0  501  503 -0.00000000000E+00 -0.00000000000E+00 -0.16506295565E+03  0.16506295565E+03  0.00000000000E+00 0.  1.
          6    2    1    2  501    0  0.88003612186E+02 -0.14377879700E+03  0.58920372335E+02  0.24944583729E+03  0.17416841630E+03 0.  0.
         24    2    3    3    0    0 -0.16682207045E+02 -0.34494791721E+02  0.28916895769E+02  0.95094247840E+02  0.82088625421E+02 0.  0.
         -6    2    1    2    0  502 -0.88003612186E+02  0.14377879700E+03  0.13976892273E+03  0.27936936908E+03  0.17347885863E+03 0.  0.
        -24    2    5    5    0    0 -0.18530952496E+02  0.92364983309E+02  0.56144376256E+01  0.11971553556E+03  0.73658680427E+02 0.  0.
          5    1    3    3  501    0  0.10468581923E+03 -0.10928400528E+03  0.30003476566E+02  0.15435158945E+03  0.47000000000E+01 0. -1.
        -13    1    4    4    0    0  0.11452919275E+02 -0.52714219199E+02  0.29672975533E+02  0.61566579754E+02  0.00000000000E+00 0.  1.
         14    1    4    4    0    0 -0.28135126320E+02  0.18219427478E+02 -0.75607976341E+00  0.33527668086E+02  0.00000000000E+00 0. -1.
         -5    1    5    5    0  502 -0.69472659690E+02  0.51413813694E+02  0.13415448511E+03  0.15965383352E+03  0.47000000000E+01 0.  1.
         11    1    6    6    0    0 -0.19216488845E+02  0.84782155630E+02 -0.23148555173E+02  0.89961897286E+02  0.00000000000E+00 0. -1.
        -12    1    6    6    0    0  0.68553634816E+00  0.75828276793E+01  0.28762992799E+02  0.29753638273E+02  0.00000000000E+00 0.  1.
<mgrwt>
<rscale>  2 0.24226348E+03</rscale>
<asrwt>0</asrwt>
<pdfrwt beam="1">  1       21 0.55961885E-01 0.24238733E+03</pdfrwt>
<pdfrwt beam="2">  1       21 0.25394301E-01 0.24238733E+03</pdfrwt>
<totfact> 0.43179742E+04</totfact>
</mgrwt>
</event>
<event>
12    1  0.1050690E-001  0.2825119E+03  0.7546771E-02  0.1094403E+00
         21   -1    0    0  501  502  0.00000000000E+00  0.00000000000E+00  0.10004788429E+03  0.10004788429E+03  0.00000000000E+00 0. -1.
         21   -1    0    0  502  503 -0.00000000000E+00 -0.00000000000E+00 -0.13836637649E+04  0.13836637649E+04  0.00000000000E+00 0. -1.
         -6    2    1    2    0  503 -0.22135825544E+03 -0.26317030987E+02 -0.11256123378E+04  0.11605240685E+04  0.17355378184E+03 0.  0.
        -24    2    3    3    0    0 -0.21293103415E+03  0.23495687706E+02 -0.98165640372E+03  0.10078881423E+04  0.79357040232E+02 0.  0.
          6    2    1    2  501    0  0.22135825544E+03  0.26317030987E+02 -0.15800354278E+03  0.32318758066E+03  0.17260657402E+03 0.  0.
         24    2    5    5    0    0  0.21735805271E+03  0.53254809066E+02 -0.17068064978E+03  0.29278290090E+03  0.80680512406E+02 0.  0.
          5    1    5    5  501    0  0.40002027293E+01 -0.26937778079E+02  0.12677107003E+02  0.30404679766E+02  0.47000000000E+01 0. -1.
        -11    1    6    6    0    0 -0.71879994357E+01  0.59199144029E+00 -0.43349834498E+01  0.84148601452E+01  0.00000000000E+00 0.  1.
         12    1    6    6    0    0  0.22454605214E+03  0.52662817626E+02 -0.16634566634E+03  0.28436804075E+03  0.00000000000E+00 0. -1.
         -5    1    3    3    0  503 -0.84272212828E+01 -0.49812718693E+02 -0.14395593413E+03  0.15263592622E+03  0.47000000000E+01 0.  1.
         11    1    4    4    0    0 -0.16805876069E+03  0.33664384178E+02 -0.61782000249E+03  0.64115411040E+03  0.00000000000E+00 0. -1.
        -12    1    4    4    0    0 -0.44872273463E+02 -0.10168696472E+02 -0.36383640123E+03  0.36673403193E+03  0.00000000000E+00 0.  1.
<mgrwt>
<rscale>  2 0.28236657E+03</rscale>
<asrwt>0</asrwt>
<pdfrwt beam="1">  1       21 0.15391982E-01 0.28251191E+03</pdfrwt>
<pdfrwt beam="2">  1       21 0.21287135E+00 0.28251191E+03</pdfrwt>
<totfact> 0.38710149E+03</totfact>
</mgrwt>
</event>
<event>
12    1  0.1050690E-001  0.2320317E+03  0.7546771E-02  0.1125366E+00
         21   -1    0    0  503  502  0.00000000000E+00  0.00000000000E+00  0.40943198318E+03  0.40943198318E+03  0.00000000000E+00 0. -1.
         21   -1    0    0  501  503 -0.00000000000E+00 -0.00000000000E+00 -0.27048727488E+03  0.27048727488E+03  0.00000000000E+00 0. -1.
          6    2    1    2  501    0 -0.11065868959E+03 -0.10661517881E+03 -0.17470503040E+03  0.28977199501E+03  0.17272469283E+03 0.  0.
         24    2    3    3    0    0 -0.61154001038E+02  0.10820125495E+02 -0.56259413215E+02  0.11572252183E+03  0.79810359761E+02 0.  0.
         -6    2    1    2    0  502  0.11065868959E+03  0.10661517881E+03  0.31364973870E+03  0.39014726306E+03  0.17385794878E+03 0.  0.
        -24    2    5    5    0    0  0.13608746311E+03  0.11890728201E+03  0.23688922520E+03  0.30822055949E+03  0.78896571201E+02 0.  0.
          5    1    3    3  501    0 -0.49504688548E+02 -0.11743530430E+03 -0.11844561718E+03  0.17404947318E+03  0.47000000000E+01 0. -1.
        -11    1    4    4    0    0  0.18327418380E+02 -0.70913999105E+01 -0.11059385052E+02  0.22549771948E+02  0.00000000000E+00 0.  1.
         12    1    4    4    0    0 -0.79481419418E+02  0.17911525406E+02 -0.45200028163E+02  0.93172749884E+02  0.00000000000E+00 0. -1.
         -5    1    5    5    0  502 -0.25428773529E+02 -0.12292103200E+02  0.76760513498E+02  0.81926703564E+02  0.47000000000E+01 0.  1.
         11    1    6    6    0    0  0.65950059092E+02  0.98727761703E+02  0.11007398969E+03  0.16190387405E+03  0.00000000000E+00 0. -1.
        -12    1    6    6    0    0  0.70137404023E+02  0.20179520304E+02  0.12681523551E+03  0.14631668544E+03  0.00000000000E+00 0.  1.
<mgrwt>
<rscale>  2 0.23181947E+03</rscale>
<asrwt>0</asrwt>
<pdfrwt beam="1">  1       21 0.62989536E-01 0.23203174E+03</pdfrwt>
<pdfrwt beam="2">  1       21 0.41613427E-01 0.23203174E+03</pdfrwt>
<totfact> 0.12658505E+04</totfact>
</mgrwt>
</event>
<event>
12    1  0.1050690E-001  0.2112644E+03  0.7546771E-02  0.1140613E+00
         21   -1    0    0  503  502  0.00000000000E+00  0.00000000000E+00  0.66589710481E+03  0.66589710481E+03  0.00000000000E+00 0.  1.
         21   -1    0    0  501  503 -0.00000000000E+00 -0.00000000000E+00 -0.67390040115E+02  0.67390040115E+02  0.00000000000E+00 0. -1.
          6    2    1    2  501    0 -0.35924378126E+02 -0.11602510735E+03  0.32857349688E+03  0.39050910685E+03  0.17258167111E+03 0.  0.
         24    2    3    3    0    0 -0.37817380475E+01 -0.53843795285E+02  0.61448401541E+02  0.11432516191E+03  0.79880415382E+02 0.  0.
         -6    2    1    2    0  502  0.35924378126E+02  0.11602510735E+03  0.26993356782E+03  0.34277803807E+03  0.17285909254E+03 0.  0.
        -24    2    5    5    0    0  0.55327709258E+02  0.10173802046E+03  0.28235174689E+03  0.31526601738E+03  0.79109876291E+02 0.  0.
          5    1    3    3  501    0 -0.32142640078E+02 -0.62181312064E+02  0.26712509533E+03  0.27618394493E+03  0.47000000000E+01 0. -1.
        -13    1    4    4    0    0 -0.27076118062E+02  0.96450452936E+01  0.19787052307E+02  0.34895135865E+02  0.00000000000E+00 0.  1.
         14    1    4    4    0    0  0.23294380015E+02 -0.63488840578E+02  0.41661349234E+02  0.79430026050E+02  0.00000000000E+00 0. -1.
         -5    1    5    5    0  502 -0.19403331133E+02  0.14287086891E+02 -0.12418179074E+02  0.27512020689E+02  0.47000000000E+01 0.  1.
         13    1    6    6    0    0  0.69416804881E+01 -0.62927937535E+01  0.82189700844E+02  0.82722023102E+02  0.00000000000E+00 0. -1.
        -14    1    6    6    0    0  0.48386028770E+02  0.10803081421E+03  0.20016204605E+03  0.23254399428E+03  0.00000000000E+00 0.  1.
<mgrwt>
<rscale>  2 0.21120766E+03</rscale>
<asrwt>0</asrwt>
<pdfrwt beam="1">  1       21 0.10244570E+00 0.21126441E+03</pdfrwt>
<pdfrwt beam="2">  1       21 0.10367699E-01 0.21126441E+03</pdfrwt>
<totfact> 0.58460430E+04</totfact>
</mgrwt>
</event>
<event>
12    1  0.1050690E-001  0.2210333E+03  0.7546771E-02  0.1133143E+00
         21   -1    0    0  501  502  0.00000000000E+00  0.00000000000E+00  0.84481410843E+02  0.84481410843E+02  0.00000000000E+00 0.  1.
         21   -1    0    0  502  503 -0.00000000000E+00 -0.00000000000E+00 -0.13432605964E+04  0.13432605964E+04  0.00000000000E+00 0.  1.
         -6    2    1    2    0  503 -0.11310014037E+03  0.78267315957E+02 -0.11681511929E+04  0.11888504991E+04  0.17283195625E+03 0.  0.
        -24    2    3    3    0    0 -0.70509955706E+02  0.12022455637E+03 -0.86807717909E+03  0.88284259454E+03  0.80171441765E+02 0.  0.
          6    2    1    2  501    0  0.11310014037E+03 -0.78267315957E+02 -0.90627992584E+02  0.23889150813E+03  0.17302689131E+03 0.  0.
         24    2    5    5    0    0  0.65229553887E+02 -0.35446282251E+02 -0.12228279788E+03  0.16713253185E+03  0.86422606532E+02 0.  0.
          5    1    5    5  501    0  0.47870586487E+02 -0.42821033706E+02  0.31654805295E+02  0.71758976278E+02  0.47000000000E+01 0. -1.
        -11    1    6    6    0    0  0.66208540842E+01 -0.51793263316E+02 -0.46265707602E+02  0.69763124454E+02  0.00000000000E+00 0.  1.
         12    1    6    6    0    0  0.58608699803E+02  0.16346981064E+02 -0.76017090277E+02  0.97369407397E+02  0.00000000000E+00 0. -1.
         -5    1    3    3    0  503 -0.42590184668E+02 -0.41957240409E+02 -0.30007401385E+03  0.30600790454E+03  0.47000000000E+01 0.  1.
         13    1    4    4    0    0 -0.89355645648E+01 -0.94310872307E+01 -0.32042991411E+02  0.34576625327E+02  0.00000000000E+00 0. -1.
        -14    1    4    4    0    0 -0.61574391141E+02  0.12965564360E+03 -0.83603418768E+03  0.84826596921E+03  0.00000000000E+00 0.  1.
<mgrwt>
<rscale>  2 0.22099515E+03</rscale>
<asrwt>0</asrwt>
<pdfrwt beam="1">  1       21 0.12997142E-01 0.22103330E+03</pdfrwt>
<pdfrwt beam="2">  1       21 0.20665545E+00 0.22103330E+03</pdfrwt>
<totfact> 0.60412487E+03</totfact>
</mgrwt>
</event>
<event>
12    1  0.1050690E-001  0.2133611E+03  0.7546771E-02  0.1139269E+00
         21   -1    0    0  501  502  0.00000000000E+00  0.00000000000E+00  0.96529415977E+02  0.96529415977E+02  0.00000000000E+00 0. -1.
         21   -1    0    0  502  503 -0.00000000000E+00 -0.00000000000E+00 -0.51254932010E+03  0.51254932010E+03  0.00000000000E+00 0. -1.
         -6    2    1    2    0  503 -0.81375001048E+02  0.94048968072E+02 -0.29724658635E+03  0.36488605177E+03  0.17122849789E+03 0.  0.
        -24    2    3    3    0    0 -0.25029103715E+02 -0.13569307224E+02 -0.78203867892E+02  0.11436987298E+03  0.78447694432E+02 0.  0.
          6    2    1    2  501    0  0.81375001048E+02 -0.94048968072E+02 -0.11877331778E+03  0.24419268431E+03  0.17336627949E+03 0.  0.
         24    2    5    5    0    0  0.31804581643E+02 -0.72264249561E+02 -0.60029717261E+00  0.11412057647E+03  0.82398376429E+02 0.  0.
          5    1    5    5  501    0  0.49570419405E+02 -0.21784718511E+02 -0.11817302060E+03  0.13007210785E+03  0.47000000000E+01 0. -1.
        -13    1    6    6    0    0 -0.25252877505E+02 -0.14461535946E+02  0.12819773216E+02  0.31799220580E+02  0.00000000000E+00 0.  1.
         14    1    6    6    0    0  0.57057459148E+02 -0.57802713615E+02 -0.13420070389E+02  0.82321355886E+02  0.00000000000E+00 0. -1.
         -5    1    3    3    0  503 -0.56345897333E+02  0.10761827530E+03 -0.21904271845E+03  0.25051617878E+03  0.47000000000E+01 0.  1.
         13    1    4    4    0    0 -0.37996978114E+02  0.12934184059E+02 -0.74510343600E+02  0.84633650320E+02  0.00000000000E+00 0. -1.
        -14    1    4    4    0    0  0.12967874399E+02 -0.26503491283E+02 -0.36935242919E+01  0.29736222664E+02  0.00000000000E+00 0.  1.
<mgrwt>
<rscale>  2 0.21292644E+03</rscale>
<asrwt>0</asrwt>
<pdfrwt beam="1">  1       21 0.14850680E-01 0.21336112E+03</pdfrwt>
<pdfrwt beam="2">  1       21 0.78853741E-01 0.21336112E+03</pdfrwt>
<totfact> 0.56204757E+04</totfact>
</mgrwt>
</event>
<event>
12    1  0.1050690E-001  0.1820412E+03  0.7546771E-02  0.1165954E+00
         21   -1    0    0  503  502  0.00000000000E+00  0.00000000000E+00  0.76949947161E+03  0.76949947161E+03  0.00000000000E+00 0.  1.
         21   -1    0    0  501  503 -0.00000000000E+00 -0.00000000000E+00 -0.45723488480E+02  0.45723488480E+02  0.00000000000E+00 0.  1.
          6    2    1    2  501    0  0.74494429545E+00 -0.57842519655E+02  0.26114420048E+03  0.31806386567E+03  0.17211047957E+03 0.  0.
         24    2    3    3    0    0 -0.38157814652E+02  0.22749221283E+02  0.11657656964E+03  0.14797464423E+03  0.79579223792E+02 0.  0.
         -6    2    1    2    0  502 -0.74494429545E+00  0.57842519655E+02  0.46263178265E+03  0.49715909443E+03  0.17260558168E+03 0.  0.
        -24    2    5    5    0    0  0.25847522452E+02  0.90349668089E+02  0.20847753304E+03  0.23951525774E+03  0.71228645681E+02 0.  0.
          5    1    3    3  501    0  0.38902758948E+02 -0.80591740938E+02  0.14456763084E+03  0.17008922143E+03  0.47000000000E+01 0. -1.
        -11    1    4    4    0    0 -0.13695310363E+02  0.46238199088E+02  0.98200406224E+02  0.10940225027E+03  0.00000000000E+00 0.  1.
         12    1    4    4    0    0 -0.24462504290E+02 -0.23488977805E+02  0.18376163412E+02  0.38572393965E+02  0.00000000000E+00 0. -1.
         -5    1    5    5    0  502 -0.26592466747E+02 -0.32507148434E+02  0.25415424961E+03  0.25764383668E+03  0.47000000000E+01 0.  1.
         13    1    6    6    0    0  0.33916502490E+02  0.68189570330E+02  0.20072963236E+03  0.21469171374E+03  0.00000000000E+00 0. -1.
        -14    1    6    6    0    0 -0.80689800386E+01  0.22160097759E+02  0.77479006847E+01  0.24823543997E+02  0.00000000000E+00 0.  1.
<mgrwt>
<rscale>  2 0.18192374E+03</rscale>
<asrwt>0</asrwt>
<pdfrwt beam="1">  1       21 0.11838452E+00 0.18204120E+03</pdfrwt>
<pdfrwt beam="2">  1       21 0.70343834E-02 0.18204120E+03</pdfrwt>
<totfact> 0.82309651E+04</totfact>
</mgrwt>
</event>
<event>
12    1  0.1050690E-001  0.1958817E+03  0.7546771E-02  0.1153637E+00
         21   -1    0    0  501  502  0.00000000000E+00  0.00000000000E+00  0.10351602589E+04  0.10351602589E+04  0.00000000000E+00 0.  1.
         21   -1    0    0  502  503 -0.00000000000E+00 -0.00000000000E+00 -0.39349943532E+02  0.39349943532E+02  0.00000000000E+00 0.  1.
         -6    2    1    2    0  503 -0.82869850265E+02  0.38022157367E+02  0.36160094232E+03  0.41124793845E+03  0.17336818871E+03 0.  0.
        -24    2    3    3    0    0 -0.39614438066E+02 -0.14546706594E+02  0.32519476538E+03  0.33390444575E+03  0.62925615495E+02 0.  0.
          6    2    1    2  501    0  0.82869850265E+02 -0.38022157367E+02  0.63420937301E+03  0.66326226394E+03  0.17141238412E+03 0.  0.
         24    2    5    5    0    0  0.18347299676E+02 -0.18372340866E+02  0.13620079302E+03  0.16068499570E+03  0.81208654143E+02 0.  0.
          5    1    5    5  501    0  0.64522550589E+02 -0.19649816501E+02  0.49800857998E+03  0.50257726825E+03  0.47000000000E+01 0. -1.
        -11    1    6    6    0    0  0.50233658319E+02 -0.58753347010E+01  0.89027716888E+02  0.10239079236E+03  0.00000000000E+00 0.  1.
         12    1    6    6    0    0 -0.31886358643E+02 -0.12497006165E+02  0.47173076136E+02  0.58294203338E+02  0.00000000000E+00 0. -1.
         -5    1    3    3    0  503 -0.43255412199E+02  0.52568863961E+02  0.36406176935E+02  0.77343492691E+02  0.47000000000E+01 0.  1.
         13    1    4    4    0    0 -0.23150434924E+02 -0.33931112917E+02  0.11382071906E+03  0.12100586411E+03  0.00000000000E+00 0. -1.
        -14    1    4    4    0    0 -0.16464003142E+02  0.19384406324E+02  0.21137404633E+03  0.21289858165E+03  0.00000000000E+00 0.  1.
<mgrwt>
<rscale>  2 0.19544800E+03</rscale>
<asrwt>0</asrwt>
<pdfrwt beam="1">  1       21 0.15925540E+00 0.19588166E+03</pdfrwt>
<pdfrwt beam="2">  1       21 0.60538383E-02 0.19588166E+03</pdfrwt>
<totfact> 0.49401372E+04</totfact>
</mgrwt>
</event>
<event>
12    1  0.1050690E-001  0.2023721E+03  0.7546771E-02  0.1151158E+00
         21   -1    0    0  503  502  0.00000000000E+00  0.00000000000E+00  0.37900969754E+03  0.37900969754E+03  0.00000000000E+00 0. -1.
         21   -1    0    0  501  503 -0.00000000000E+00 -0.00000000000E+00 -0.13997544791E+03  0.13997544791E+03  0.00000000000E+00 0.  1.
          6    2    1    2  501    0 -0.50709535935E+02  0.42035471078E+02 -0.15919582832E+02  0.20299733476E+03  0.19135319944E+03 0.  0.
         24    2    3    3    0    0  0.15953106492E+02  0.39299872906E+02  0.40840257539E+02  0.11527526871E+03  0.99103376949E+02 0.  0.
         -6    2    1    2    0  502  0.50709535935E+02 -0.42035471078E+02  0.25495383246E+03  0.31598781070E+03  0.17466654504E+03 0.  0.
        -24    2    5    5    0    0  0.19167455367E+02 -0.27358217827E+02  0.28554740696E+02  0.86883111132E+02  0.74949572086E+02 0.  0.
          5    1    3    3  501    0 -0.66662642427E+02  0.27355981721E+01 -0.56759840371E+02  0.87722066048E+02  0.47000000000E+01 0. -1.
        -13    1    4    4    0    0  0.44067177980E+02 -0.11945497457E+02  0.32340904643E+01  0.45771939283E+02  0.00000000000E+00 0.  1.
         14    1    4    4    0    0 -0.28114071487E+02  0.51245370362E+02  0.37606167075E+02  0.69503329426E+02  0.00000000000E+00 0. -1.
         -5    1    5    5    0  502  0.31542080568E+02 -0.14677253251E+02  0.22639909177E+03  0.22910469956E+03  0.47000000000E+01 0.  1.
         11    1    6    6    0    0  0.14609663014E+02  0.65788871501E+01  0.45815821345E+02  0.48536723159E+02  0.00000000000E+00 0. -1.
        -12    1    6    6    0    0  0.45577923538E+01 -0.33937104978E+02 -0.17261080649E+02  0.38346387973E+02  0.00000000000E+00 0.  1.
<mgrwt>
<rscale>  2 0.19832775E+03</rscale>
<asrwt>0</asrwt>
<pdfrwt beam="1">  1       21 0.58309184E-01 0.20237214E+03</pdfrwt>
<pdfrwt beam="2">  1       21 0.21534684E-01 0.20237214E+03</pdfrwt>
<totfact> 0.55103685E+04</totfact>
</mgrwt>
</event>
<event>
12    1  0.1050690E-001  0.2090541E+03  0.7546771E-02  0.1142353E+00
         21   -1    0    0  503  502  0.00000000000E+00  0.00000000000E+00  0.10576550761E+03  0.10576550761E+03  0.00000000000E+00 0. -1.
         21   -1    0    0  501  503 -0.00000000000E+00 -0.00000000000E+00 -0.45309134954E+03  0.45309134954E+03  0.00000000000E+00 0. -1.
          6    2    1    2  501    0 -0.64140077635E+02 -0.97432784149E+02 -0.25685956211E+03  0.33106802368E+03  0.17326887969E+03 0.  0.
         24    2    3    3    0    0 -0.57019318623E+02 -0.10326437202E+03 -0.27528968347E+03  0.30993813964E+03  0.79765326795E+02 0.  0.
         -6    2    1    2    0  502  0.64140077635E+02  0.97432784149E+02 -0.90466279821E+02  0.22778883348E+03  0.17348345133E+03 0.  0.
        -24    2    5    5    0    0  0.52215215673E+02  0.16353491645E+02 -0.10614394666E+03  0.14421890322E+03  0.80862161719E+02 0.  0.
          5    1    3    3  501    0 -0.71207590123E+01  0.58315878678E+01  0.18430121359E+02  0.21129884034E+02  0.47000000000E+01 0. -1.
        -13    1    4    4    0    0 -0.26933968551E+01  0.10081618844E+02 -0.44322818080E+01  0.11337484164E+02  0.00000000000E+00 0.  1.
         14    1    4    4    0    0 -0.54325921768E+02 -0.11334599086E+03 -0.27085740166E+03  0.29860065548E+03  0.00000000000E+00 0. -1.
         -5    1    5    5    0  502  0.11924861962E+02  0.81079292504E+02  0.15677666835E+02  0.83569930257E+02  0.47000000000E+01 0.  1.
         11    1    6    6    0    0  0.50559587218E+02  0.20887693817E+02 -0.20469570965E+02  0.58408654736E+02  0.00000000000E+00 0. -1.
        -12    1    6    6    0    0  0.16556284553E+01 -0.45342021723E+01 -0.85674375691E+02  0.85810248485E+02  0.00000000000E+00 0.  1.
<mgrwt>
<rscale>  2 0.20900955E+03</rscale>
<asrwt>0</asrwt>
<pdfrwt beam="1">  1       21 0.16271616E-01 0.20905407E+03</pdfrwt>
<pdfrwt beam="2">  1       21 0.69706363E-01 0.20905407E+03</pdfrwt>
<totfact> 0.62749297E+04</totfact>
</mgrwt>
</event>
<event>
12    1  0.1050690E-001  0.2059695E+03  0.7546771E-02  0.1144827E+00
         21   -1    0    0  501  502  0.00000000000E+00  0.00000000000E+00  0.12628542060E+03  0.12628542060E+03  0.00000000000E+00 0.  1.
         21   -1    0    0  502  503 -0.00000000000E+00 -0.00000000000E+00 -0.34257978161E+03  0.34257978161E+03  0.00000000000E+00 0.  1.
         -6    2    1    2    0  503  0.10638111122E+03  0.30508144170E+02 -0.74956140978E+02  0.21918449609E+03  0.17371163626E+03 0.  0.
        -24    2    3    3    0    0 -0.53408923511E+01 -0.22185893207E+02 -0.23165377721E+02  0.85158973095E+02  0.78706270303E+02 0.  0.
          6    2    1    2  501    0 -0.10638111122E+03 -0.30508144170E+02 -0.14133822003E+03  0.24968070612E+03  0.17354041282E+03 0.  0.
         24    2    5    5    0    0 -0.78951265023E+02 -0.78768894360E+02 -0.57727406541E+02  0.14921004073E+03  0.80581274631E+02 0.  0.
          5    1    5    5  501    0 -0.27429846194E+02  0.48260750190E+02 -0.83610813487E+02  0.10047066539E+03  0.47000000000E+01 0. -1.
        -11    1    6    6    0    0 -0.22281669736E+02  0.14964318110E+02 -0.19586087781E+02  0.33226773200E+02  0.00000000000E+00 0.  1.
         12    1    6    6    0    0 -0.56669595286E+02 -0.93733212471E+02 -0.38141318760E+02  0.11598326753E+03  0.00000000000E+00 0. -1.
         -5    1    3    3    0  503  0.11172200357E+03  0.52694037377E+02 -0.51790763257E+02  0.13402552300E+03  0.47000000000E+01 0.  1.
         13    1    4    4    0    0 -0.88240627049E+01 -0.51058664109E+02 -0.21282298302E+02  0.56015957407E+02  0.00000000000E+00 0. -1.
        -14    1    4    4    0    0  0.34831703538E+01  0.28872770902E+02 -0.18830794192E+01  0.29143015688E+02  0.00000000000E+00 0.  1.
<mgrwt>
<rscale>  2 0.20593336E+03</rscale>
<asrwt>0</asrwt>
<pdfrwt beam="1">  1       21 0.19428527E-01 0.20596946E+03</pdfrwt>
<pdfrwt beam="2">  1       21 0.52704581E-01 0.20596946E+03</pdfrwt>
<totfact> 0.82677152E+04</totfact>
</mgrwt>
</event>
<event>
12    1  0.1050690E-001  0.1895213E+03  0.7546771E-02  0.1160048E+00
         21   -1    0    0  503  502  0.00000000000E+00  0.00000000000E+00  0.21385460815E+03  0.21385460815E+03  0.00000000000E+00 0.  1.
         21   -1    0    0  501  503 -0.00000000000E+00 -0.00000000000E+00 -0.27062099680E+03  0.27062099680E+03  0.00000000000E+00 0. -1.
          6    2    1    2  501    0  0.68381678729E+01 -0.77582680299E+02 -0.18052832723E+03  0.25812338213E+03  0.16724643687E+03 0.  0.
         24    2    3    3    0    0 -0.54699160911E+02 -0.29293958766E+02 -0.15057245459E+03  0.17423007032E+03  0.61918649016E+02 0.  0.
         -6    2    1    2    0  502 -0.68381678729E+01  0.77582680299E+02  0.12376193857E+03  0.22635222282E+03  0.17277869809E+03 0.  0.
        -24    2    5    5    0    0  0.47618388120E+02  0.71759202802E+02  0.41119610992E+02  0.12709864007E+03  0.83942526919E+02 0.  0.
          5    1    3    3  501    0  0.61537328784E+02 -0.48288721532E+02 -0.29955872638E+02  0.83893311811E+02  0.47000000000E+01 0. -1.
        -13    1    4    4    0    0 -0.11018426657E+01 -0.62188543912E+01  0.50118345556E+01  0.80626728082E+01  0.00000000000E+00 0.  1.
         14    1    4    4    0    0 -0.53597318245E+02 -0.23075104375E+02 -0.15558428915E+03  0.16616739751E+03  0.00000000000E+00 0. -1.
         -5    1    5    5    0  502 -0.54456555993E+02  0.58234774967E+01  0.82642327581E+02  0.99253582751E+02  0.47000000000E+01 0.  1.
         11    1    6    6    0    0  0.46048609314E+01  0.72179534029E+02  0.79148002772E+01  0.72758050690E+02  0.00000000000E+00 0. -1.
        -12    1    6    6    0    0  0.43013527188E+02 -0.42033122673E+00  0.33204810715E+02  0.54340589380E+02  0.00000000000E+00 0.  1.
<mgrwt>
<rscale>  2 0.18825118E+03</rscale>
<asrwt>0</asrwt>
<pdfrwt beam="1">  1       21 0.32900709E-01 0.18952127E+03</pdfrwt>
<pdfrwt beam="2">  1       21 0.41633999E-01 0.18952127E+03</pdfrwt>
<totfact> 0.49468244E+04</totfact>
</mgrwt>
</event>
<event>
12    1  0.1050690E-001  0.2287506E+03  0.7546771E-02  0.1127620E+00
         21   -1    0    0  503  502  0.00000000000E+00  0.00000000000E+00  0.31252806202E+03  0.31252806202E+03  0.00000000000E+00 0. -1.
         21   -1    0    0  501  503 -0.00000000000E+00 -0.00000000000E+00 -0.18451797988E+03  0.18451797988E+03  0.00000000000E+00 0. -1.
          6    2    1    2  501    0 -0.13445147965E+03  0.64371135009E+02  0.14058812156E+03  0.26849927602E+03  0.17351080052E+03 0.  0.
         24    2    3    3    0    0 -0.16707449609E+03  0.55331246708E+02  0.12869081157E+03  0.23231064842E+03  0.80196497921E+02 0.  0.
         -6    2    1    2    0  502  0.13445147965E+03 -0.64371135009E+02 -0.12578039417E+02  0.22854676588E+03  0.17278476124E+03 0.  0.
        -24    2    5    5    0    0  0.42513319355E+02  0.13580502700E+02 -0.44842325154E+02  0.10367820589E+03  0.82137225879E+02 0.  0.
          5    1    3    3  501    0  0.32623016445E+02  0.90398883009E+01  0.11897309986E+02  0.36188627597E+02  0.47000000000E+01 0. -1.
        -13    1    4    4    0    0 -0.63341236351E+02 -0.10832296498E+02  0.17812257525E+02  0.66683786545E+02  0.00000000000E+00 0.  1.
         14    1    4    4    0    0 -0.10373325974E+03  0.66163543207E+02  0.11087855405E+03  0.16562686187E+03  0.00000000000E+00 0. -1.
         -5    1    5    5    0  502  0.91938160291E+02 -0.77951637709E+02  0.32264285737E+02  0.12486855999E+03  0.47000000000E+01 0.  1.
         13    1    6    6    0    0  0.16607832505E+02 -0.14732067314E+02  0.18979374151E+02  0.29207371519E+02  0.00000000000E+00 0. -1.
        -14    1    6    6    0    0  0.25905486849E+02  0.28312570015E+02 -0.63821699305E+02  0.74470834371E+02  0.00000000000E+00 0.  1.
<mgrwt>
<rscale>  2 0.22861293E+03</rscale>
<asrwt>0</asrwt>
<pdfrwt beam="1">  1       21 0.48081240E-01 0.22875061E+03</pdfrwt>
<pdfrwt beam="2">  1       21 0.28387382E-01 0.22875061E+03</pdfrwt>
<totfact> 0.48213409E+04</totfact>
</mgrwt>
</event>
<event>
12    1  0.1050690E-001  0.1748304E+03  0.7546771E-02  0.1173222E+00
         21   -1    0    0  503  502  0.00000000000E+00  0.00000000000E+00  0.46090960459E+03  0.46090960459E+03  0.00000000000E+00 0. -1.
         21   -1    0    0  501  503 -0.00000000000E+00 -0.00000000000E+00 -0.59246283205E+03  0.59246283205E+03  0.00000000000E+00 0. -1.
          6    2    1    2  501    0  0.80258009005E+01  0.93436531125E+01 -0.56231114159E+03  0.58848745714E+03  0.17312408823E+03 0.  0.
         24    2    3    3    0    0 -0.28569078307E+02 -0.12701388638E+02 -0.52381894307E+03  0.53079076403E+03  0.79843800911E+02 0.  0.
         -6    2    1    2    0  502 -0.80258009005E+01 -0.93436531125E+01  0.43075791412E+03  0.46488497950E+03  0.17439594678E+03 0.  0.
        -24    2    5    5    0    0  0.55958656528E+02 -0.25139665040E+02  0.19316449514E+03  0.21827547537E+03  0.81044968788E+02 0.  0.
          5    1    3    3  501    0  0.36594879208E+02  0.22045041750E+02 -0.38492198511E+02  0.57696693113E+02  0.47000000000E+01 0. -1.
        -11    1    4    4    0    0 -0.13445851246E+02  0.43858266820E+01 -0.12242736868E+02  0.18705908089E+02  0.00000000000E+00 0.  1.
         12    1    4    4    0    0 -0.15123227061E+02 -0.17087215320E+02 -0.51157620621E+03  0.51208485594E+03  0.00000000000E+00 0. -1.
         -5    1    5    5    0  502 -0.63984457429E+02  0.15796011928E+02  0.23759341898E+03  0.24660950413E+03  0.47000000000E+01 0.  1.
         11    1    6    6    0    0  0.41672049975E+02 -0.37110776915E+02  0.19161200822E+03  0.19957186978E+03  0.00000000000E+00 0. -1.
        -12    1    6    6    0    0  0.14286606553E+02  0.11971111874E+02  0.15524869149E+01  0.18703605587E+02  0.00000000000E+00 0.  1.
<mgrwt>
<rscale>  2 0.17451235E+03</rscale>
<asrwt>0</asrwt>
<pdfrwt beam="1">  1       21 0.70909170E-01 0.17483039E+03</pdfrwt>
<pdfrwt beam="2">  1       21 0.91148128E-01 0.17483039E+03</pdfrwt>
<totfact> 0.18686544E+03</totfact>
</mgrwt>
</event>
<event>
12    1  0.1050690E-001  0.2259840E+03  0.7546771E-02  0.1130031E+00
         21   -1    0    0  501  502  0.00000000000E+00  0.00000000000E+00  0.49384935724E+02  0.49384935724E+02  0.00000000000E+00 0.  1.
         21   -1    0    0  502  503 -0.00000000000E+00 -0.00000000000E+00 -0.24603496112E+04  0.24603496112E+04  0.00000000000E+00 0.  1.
         -6    2    1    2    0  503  0.93428833700E+02 -0.10721914626E+03 -0.21621054655E+04  0.21735803156E+04  0.17183262871E+03 0.  0.
        -24    2    3    3    0    0  0.31194956936E+02 -0.10638871232E+03 -0.93176090093E+03  0.94165353916E+03  0.79002075046E+02 0.  0.
          6    2    1    2  501    0 -0.93428833700E+02  0.10721914626E+03 -0.24885920993E+03  0.33615423124E+03  0.17562422533E+03 0.  0.
         24    2    5    5    0    0 -0.95975045879E+01 -0.63371714072E+01 -0.12051375399E+03  0.14532086130E+03  0.80388531473E+02 0.  0.
          5    1    5    5  501    0 -0.83831329112E+02  0.11355631767E+03 -0.12834545595E+03  0.19083336995E+03  0.47000000000E+01 0. -1.
        -13    1    6    6    0    0 -0.42740433115E+02 -0.14863686743E+02 -0.53470433574E+02  0.70048276731E+02  0.00000000000E+00 0.  1.
         14    1    6    6    0    0  0.33142928528E+02  0.85265153359E+01 -0.67043320411E+02  0.75272584564E+02  0.00000000000E+00 0. -1.
         -5    1    3    3    0  503  0.62233876763E+02 -0.83043394422E+00 -0.12303445646E+04  0.12319267765E+04  0.47000000000E+01 0.  1.
         13    1    4    4    0    0 -0.10894392344E+02 -0.18857110787E+02 -0.49707546218E+02  0.54268946579E+02  0.00000000000E+00 0. -1.
        -14    1    4    4    0    0  0.42089349280E+02 -0.87531601531E+02 -0.88205335472E+03  0.88738459258E+03  0.00000000000E+00 0.  1.
<mgrwt>
<rscale>  2 0.22524691E+03</rscale>
<asrwt>0</asrwt>
<pdfrwt beam="1">  1       21 0.75976819E-02 0.22598398E+03</pdfrwt>
<pdfrwt beam="2">  1       21 0.37851535E+00 0.22598398E+03</pdfrwt>
<totfact> 0.14809091E+03</totfact>
</mgrwt>
</event>
<event>
12    1  0.1050690E-001  0.1839223E+03  0.7546771E-02  0.1164091E+00
         21   -1    0    0  501  502  0.00000000000E+00  0.00000000000E+00  0.61630179641E+03  0.61630179641E+03  0.00000000000E+00 0. -1.
         21   -1    0    0  502  503 -0.00000000000E+00 -0.00000000000E+00 -0.14523832112E+03  0.14523832112E+03  0.00000000000E+00 0. -1.
         -6    2    1    2    0  503 -0.29577457289E+02 -0.59878809957E+02 -0.64823946772E+02  0.19501163972E+03  0.17136831005E+03 0.  0.
        -24    2    3    3    0    0 -0.79645646672E+02 -0.35306144591E+02 -0.13982399195E+02  0.11939687640E+03  0.80437265789E+02 0.  0.
          6    2    1    2  501    0  0.29577457289E+02  0.59878809957E+02  0.53588742207E+03  0.56652847781E+03  0.17122759468E+03 0.  0.
         24    2    5    5    0    0  0.70560453451E+02  0.74215765288E+02  0.29605909525E+03  0.32275630834E+03  0.77678113308E+02 0.  0.
          5    1    5    5  501    0 -0.40982996163E+02 -0.14336955331E+02  0.23982832682E+03  0.24377216947E+03  0.47000000000E+01 0. -1.
        -11    1    6    6    0    0 -0.13466257367E+02 -0.39204016702E-01  0.58946306511E+02  0.60464937573E+02  0.00000000000E+00 0.  1.
         12    1    6    6    0    0  0.84026710818E+02  0.74254969305E+02  0.23711278874E+03  0.26229137077E+03  0.00000000000E+00 0. -1.
         -5    1    3    3    0  503  0.50068189384E+02 -0.24572665366E+02 -0.50841547578E+02  0.75614763317E+02  0.47000000000E+01 0.  1.
         11    1    4    4    0    0 -0.79751584899E+02 -0.53947272545E+02 -0.22536677668E+02  0.98886426517E+02  0.00000000000E+00 0. -1.
        -12    1    4    4    0    0  0.10593822617E+00  0.18641127954E+02  0.85542784732E+01  0.20510449886E+02  0.00000000000E+00 0.  1.
<mgrwt>
<rscale>  2 0.18388947E+03</rscale>
<asrwt>0</asrwt>
<pdfrwt beam="1">  1       21 0.94815660E-01 0.18392225E+03</pdfrwt>
<pdfrwt beam="2">  1       21 0.22344357E-01 0.18392225E+03</pdfrwt>
<totfact> 0.17540226E+04</totfact>
</mgrwt>
</event>
<event>
12    1  0.1050690E-001  0.2030968E+03  0.7546771E-02  0.1147363E+00
         21   -1    0    0  503  502  0.00000000000E+00  0.00000000000E+00  0.11290054063E+04  0.11290054063E+04  0.00000000000E+00 0. -1.
         21   -1    0    0  501  503 -0.00000000000E+00 -0.00000000000E+00 -0.27952699631E+03  0.27952699631E+03  0.00000000000E+00 0.  1.
          6    2    1    2  501    0  0.85016242885E+02 -0.60810739352E+02 -0.23199866997E+03  0.30833698671E+03  0.17413387647E+03 0.  0.
         24    2    3    3    0    0 -0.10513401406E+02 -0.61998267452E+02 -0.89651152032E+02  0.13683704787E+03  0.82053225605E+02 0.  0.
         -6    2    1    2    0  502 -0.85016242885E+02  0.60810739352E+02  0.10814770799E+04  0.11001954159E+04  0.17294962018E+03 0.  0.
        -24    2    5    5    0    0 -0.49977901015E+02  0.10420586982E+03  0.87249583111E+03  0.88384829871E+03  0.81130671900E+02 0.  0.
          5    1    3    3  501    0  0.95529644291E+02  0.11875281001E+01 -0.14234751793E+03  0.17149993884E+03  0.47000000000E+01 0. -1.
        -13    1    4    4    0    0 -0.13009111052E+02 -0.74872748575E+02 -0.95858925379E+02  0.12232783422E+03  0.00000000000E+00 0.  1.
         14    1    4    4    0    0  0.24957096457E+01  0.12874481123E+02  0.62077733469E+01  0.14509213650E+02  0.00000000000E+00 0. -1.
         -5    1    5    5    0  502 -0.35038341870E+02 -0.43395130465E+02  0.20898124880E+03  0.21634711715E+03  0.47000000000E+01 0.  1.
         13    1    6    6    0    0 -0.84064223289E+01  0.90320162276E+02  0.70080960205E+03  0.70665585540E+03  0.00000000000E+00 0. -1.
        -14    1    6    6    0    0 -0.41571478686E+02  0.13885707541E+02  0.17168622906E+03  0.17719244331E+03  0.00000000000E+00 0.  1.
<mgrwt>
<rscale>  2 0.20284272E+03</rscale>
<asrwt>0</asrwt>
<pdfrwt beam="1">  1       21 0.17369314E+00 0.20309681E+03</pdfrwt>
<pdfrwt beam="2">  1       21 0.43004154E-01 0.20309681E+03</pdfrwt>
<totfact> 0.10340265E+03</totfact>
</mgrwt>
</event>
<event>
12    1  0.1050690E-001  0.1919779E+03  0.7546771E-02  0.1159024E+00
         21   -1    0    0  501  502  0.00000000000E+00  0.00000000000E+00  0.31266419306E+03  0.31266419306E+03  0.00000000000E+00 0. -1.
         21   -1    0    0  502  503 -0.00000000000E+00 -0.00000000000E+00 -0.11347188342E+03  0.11347188342E+03  0.00000000000E+00 0.  1.
         -6    2    1    2    0  503  0.70360579129E+02 -0.46810468745E+02  0.12888388639E+03  0.23122840172E+03  0.17237658342E+03 0.  0.
        -24    2    3    3    0    0 -0.31573329138E+01 -0.63737195910E+02  0.32585216127E+02  0.10880731948E+03  0.81883072536E+02 0.  0.
          6    2    1    2  501    0 -0.70360579129E+02  0.46810468745E+02  0.70308423250E+02  0.19490767475E+03  0.16094687390E+03 0.  0.
         24    2    5    5    0    0 -0.10549392441E+03  0.16807389338E+02  0.63765440274E+02  0.14800951540E+03  0.80183095788E+02 0.  0.
          5    1    5    5  501    0  0.35133345284E+02  0.30003079407E+02  0.65429829762E+01  0.46898159356E+02  0.47000000000E+01 0. -1.
        -13    1    6    6    0    0 -0.73045881299E+02 -0.28001529816E+02  0.38499325375E+02  0.87189360022E+02  0.00000000000E+00 0.  1.
         14    1    6    6    0    0 -0.32448043115E+02  0.44808919154E+02  0.25266114899E+02  0.60820155375E+02  0.00000000000E+00 0. -1.
         -5    1    3    3    0  503  0.73517912043E+02  0.16926727165E+02  0.96298670265E+02  0.12242108225E+03  0.47000000000E+01 0.  1.
         11    1    4    4    0    0 -0.35625139057E+02 -0.41337715028E+01  0.13258349058E+02  0.38236401758E+02  0.00000000000E+00 0. -1.
        -12    1    4    4    0    0  0.32467806143E+02 -0.59603424407E+02  0.19326867069E+02  0.70570917718E+02  0.00000000000E+00 0.  1.
<mgrwt>
<rscale>  2 0.18937727E+03</rscale>
<asrwt>0</asrwt>
<pdfrwt beam="1">  1       21 0.48102183E-01 0.19197791E+03</pdfrwt>
<pdfrwt beam="2">  1       21 0.17457213E-01 0.19197791E+03</pdfrwt>
<totfact> 0.12272238E+05</totfact>
</mgrwt>
</event>
<event>
12    1  0.1050690E-001  0.2215383E+03  0.7546771E-02  0.1133859E+00
         21   -1    0    0  503  502  0.00000000000E+00  0.00000000000E+00  0.47546824487E+03  0.47546824487E+03  0.00000000000E+00 0. -1.
         21   -1    0    0  501  503 -0.00000000000E+00 -0.00000000000E+00 -0.10677550143E+03  0.10677550143E+03  0.00000000000E+00 0. -1.
          6    2    1    2  501    0 -0.12284846868E+03 -0.32819537181E+02  0.11593518628E+03  0.25004035429E+03  0.18141208085E+03 0.  0.
         24    2    3    3    0    0 -0.59239532734E+02  0.81121454071E+01  0.13894714604E+03  0.17083719991E+03  0.79397168336E+02 0.  0.
         -6    2    1    2    0  502  0.12284846868E+03  0.32819537181E+02  0.25275755716E+03  0.33220339201E+03  0.17407998933E+03 0.  0.
        -24    2    5    5    0    0  0.83940142014E+02  0.82577137615E+02  0.14037220596E+03  0.20319860974E+03  0.87865736759E+02 0.  0.
          5    1    3    3  501    0 -0.63608935951E+02 -0.40931682588E+02 -0.23011959755E+02  0.79203154382E+02  0.47000000000E+01 0. -1.
        -13    1    4    4    0    0 -0.11236617893E+02  0.31732180832E+02  0.17088757443E+02  0.37752066340E+02  0.00000000000E+00 0.  1.
         14    1    4    4    0    0 -0.48002914841E+02 -0.23620035425E+02  0.12185838859E+03  0.13308513357E+03  0.00000000000E+00 0. -1.
         -5    1    5    5    0  502  0.38908326671E+02 -0.49757600434E+02  0.11238535119E+03  0.12900478227E+03  0.47000000000E+01 0.  1.
         13    1    6    6    0    0  0.88820201267E+02  0.81742884223E+02  0.85068843918E+02  0.14767408534E+03  0.00000000000E+00 0. -1.
        -14    1    6    6    0    0 -0.48800592532E+01  0.83425339165E+00  0.55303362046E+02  0.55524524407E+02  0.00000000000E+00 0.  1.
<mgrwt>
<rscale>  2 0.22003225E+03</rscale>
<asrwt>0</asrwt>
<pdfrwt beam="1">  1       21 0.73148960E-01 0.22153828E+03</pdfrwt>
<pdfrwt beam="2">  1       21 0.16427000E-01 0.22153828E+03</pdfrwt>
<totfact> 0.55097423E+04</totfact>
</mgrwt>
</event>
<event>
12    1  0.1050690E-001  0.3545804E+03  0.7546771E-02  0.1060842E+00
         21   -1    0    0  503  502  0.00000000000E+00  0.00000000000E+00  0.31614438606E+03  0.31614438606E+03  0.00000000000E+00 0. -1.
         21   -1    0    0  501  503 -0.00000000000E+00 -0.00000000000E+00 -0.40322830509E+03  0.40322830509E+03  0.00000000000E+00 0. -1.
          6    2    1    2  501    0 -0.51848048932E+01  0.30857268461E+03 -0.89439612851E+02  0.36568664278E+03  0.17459465190E+03 0.  0.
         24    2    3    3    0    0  0.14493404855E+02  0.88492574088E+02  0.14109182694E+02  0.12162326977E+03  0.80945390608E+02 0.  0.
         -6    2    1    2    0  502  0.51848048932E+01 -0.30857268461E+03  0.23556938235E+01  0.35368604838E+03  0.17275499308E+03 0.  0.
        -24    2    5    5    0    0  0.35383989452E+01 -0.25062725892E+03 -0.58465683397E+02  0.26953313436E+03  0.80020817295E+02 0.  0.
          5    1    3    3  501    0 -0.19678209748E+02  0.22008011052E+03 -0.10354879555E+03  0.24406337301E+03  0.47000000000E+01 0. -1.
        -13    1    4    4    0    0  0.13345306133E+02  0.37320892580E+01 -0.24755662681E+02  0.28370204807E+02  0.00000000000E+00 0.  1.
         14    1    4    4    0    0  0.11480987218E+01  0.84760484830E+02  0.38864845375E+02  0.93253064965E+02  0.00000000000E+00 0. -1.
         -5    1    5    5    0  502  0.16464059480E+01 -0.57945425686E+02  0.60821377221E+02  0.84152914017E+02  0.47000000000E+01 0.  1.
         13    1    6    6    0    0  0.39465139937E+02 -0.16313418319E+03 -0.27957930039E+02  0.17015259283E+03  0.00000000000E+00 0. -1.
        -14    1    6    6    0    0 -0.35926740992E+02 -0.87493075734E+02 -0.30507753358E+02  0.99380541529E+02  0.00000000000E+00 0.  1.
<mgrwt>
<rscale>  2 0.35435465E+03</rscale>
<asrwt>0</asrwt>
<pdfrwt beam="1">  1       21 0.48637598E-01 0.35458042E+03</pdfrwt>
<pdfrwt beam="2">  1       21 0.62035123E-01 0.35458042E+03</pdfrwt>
<totfact> 0.89465565E+03</totfact>
</mgrwt>
</event>
<event>
12    1  0.1050690E-001  0.1860560E+03  0.7546771E-02  0.1162602E+00
         21   -1    0    0  503  502  0.00000000000E+00  0.00000000000E+00  0.14452778775E+03  0.14452778775E+03  0.00000000000E+00 0.  1.
         21   -1    0    0  501  503 -0.00000000000E+00 -0.00000000000E+00 -0.68113479265E+03  0.68113479265E+03  0.00000000000E+00 0.  1.
          6    2    1    2  501    0 -0.36234390675E+01 -0.64006653092E+02 -0.60124319437E+03  0.62869894663E+03  0.17221790202E+03 0.  0.
         24    2    3    3    0    0  0.11797909118E+02 -0.35351208111E+02 -0.10961858360E+03  0.13597610322E+03  0.71304755824E+02 0.  0.
         -6    2    1    2    0  502  0.36234390675E+01  0.64006653092E+02  0.64636189464E+02  0.19696363377E+03  0.17466211693E+03 0.  0.
        -24    2    5    5    0    0 -0.26767019341E+02  0.10303037359E+03  0.63478769623E+02  0.14726594424E+03  0.79535985151E+02 0.  0.
          5    1    3    3  501    0 -0.15421348186E+02 -0.28655444981E+02 -0.49162461077E+03  0.49272284341E+03  0.47000000000E+01 0. -1.
        -11    1    4    4    0    0  0.11684800305E+02 -0.51413510789E+02 -0.10755293951E+03  0.11978112726E+03  0.00000000000E+00 0.  1.
         12    1    4    4    0    0  0.11310881318E+00  0.16062302678E+02 -0.20656440839E+01  0.16194975962E+02  0.00000000000E+00 0. -1.
         -5    1    5    5    0  502  0.30390458408E+02 -0.39023720499E+02  0.11574198407E+01  0.49697689529E+02  0.47000000000E+01 0.  1.
         13    1    6    6    0    0  0.27951852860E+02  0.38121513528E+02  0.30118494316E+02  0.56050687523E+02  0.00000000000E+00 0. -1.
        -14    1    6    6    0    0 -0.54718872201E+02  0.64908860063E+02  0.33360275307E+02  0.91215256718E+02  0.00000000000E+00 0.  1.
<mgrwt>
<rscale>  2 0.18548018E+03</rscale>
<asrwt>0</asrwt>
<pdfrwt beam="1">  1       21 0.22235044E-01 0.18605600E+03</pdfrwt>
<pdfrwt beam="2">  1       21 0.10478997E+00 0.18605600E+03</pdfrwt>
<totfact> 0.13950963E+04</totfact>
</mgrwt>
</event>
<event>
12    1  0.1050690E-001  0.2107110E+03  0.7546771E-02  0.1141613E+00
         21   -1    0    0  501  502  0.00000000000E+00  0.00000000000E+00  0.51318336512E+02  0.51318336512E+02  0.00000000000E+00 0.  1.
         21   -1    0    0  502  503 -0.00000000000E+00 -0.00000000000E+00 -0.85916145751E+03  0.85916145751E+03  0.00000000000E+00 0.  1.
         -6    2    1    2    0  503 -0.14802338899E+02  0.11591661532E+03 -0.36131034595E+03  0.41672817863E+03  0.17164334485E+03 0.  0.
        -24    2    3    3    0    0  0.32692112078E+02  0.30373977721E+01 -0.16278294095E+03  0.18342009656E+03  0.77888676827E+02 0.  0.
          6    2    1    2  501    0  0.14802338899E+02 -0.11591661532E+03 -0.44653277505E+03  0.49375161539E+03  0.17533786688E+03 0.  0.
         24    2    5    5    0    0  0.18507809612E+02 -0.12878435491E+03 -0.45294241987E+03  0.47817975674E+03  0.81062290603E+02 0.  0.
          5    1    5    5  501    0 -0.37054707127E+01  0.12867739583E+02  0.64096448146E+01  0.15571858651E+02  0.47000000000E+01 0. -1.
        -11    1    6    6    0    0  0.40998482638E+02 -0.12324914566E+03 -0.37423939368E+03  0.39613930791E+03  0.00000000000E+00 0.  1.
         12    1    6    6    0    0 -0.22490673027E+02 -0.55352092456E+01 -0.78703026185E+02  0.82040448836E+02  0.00000000000E+00 0. -1.
         -5    1    3    3    0  503 -0.47494450977E+02  0.11287921755E+03 -0.19852740500E+03  0.23330808208E+03  0.47000000000E+01 0.  1.
         11    1    4    4    0    0  0.59763444610E+01  0.34463467356E+02 -0.11547237892E+03  0.12065370930E+03  0.00000000000E+00 0. -1.
        -12    1    4    4    0    0  0.26715767617E+02 -0.31426069584E+02 -0.47310562035E+02  0.62766387254E+02  0.00000000000E+00 0.  1.
<mgrwt>
<rscale>  2 0.20994077E+03</rscale>
<asrwt>0</asrwt>
<pdfrwt beam="1">  1       21 0.78951300E-02 0.21071103E+03</pdfrwt>
<pdfrwt beam="2">  1       21 0.13217866E+00 0.21071103E+03</pdfrwt>
<totfact> 0.50400677E+04</totfact>
</mgrwt>
</event>
<event>
12    1  0.1050690E-001  0.1803577E+03  0.7546771E-02  0.1167631E+00
         21   -1    0    0  503  502  0.00000000000E+00  0.00000000000E+00  0.49897759586E+03  0.49897759586E+03  0.00000000000E+00 0.  1.
         21   -1    0    0  501  503 -0.00000000000E+00 -0.00000000000E+00 -0.75318348608E+02  0.75318348608E+02  0.00000000000E+00 0.  1.
          6    2    1    2  501    0 -0.51007704056E+02  0.43620952622E+00  0.10483059630E+03  0.20798923212E+03  0.17224427598E+03 0.  0.
         24    2    3    3    0    0 -0.46751164708E+02 -0.33206615443E+02  0.26829108450E+00  0.97965037188E+02  0.79427487814E+02 0.  0.
         -6    2    1    2    0  502  0.51007704056E+02 -0.43620952622E+00  0.31882865096E+03  0.36630671235E+03  0.17299399611E+03 0.  0.
        -24    2    5    5    0    0 -0.62335667349E+01 -0.53103654673E+02  0.11366979181E+03  0.14684676077E+03  0.76054546774E+02 0.  0.
          5    1    3    3  501    0 -0.42565393482E+01  0.33642824969E+02  0.10456230521E+03  0.11002419493E+03  0.47000000000E+01 0. -1.
        -13    1    4    4    0    0 -0.40718449228E+02  0.14015834901E+02  0.18656666279E+02  0.46930873976E+02  0.00000000000E+00 0.  1.
         14    1    4    4    0    0 -0.60327154797E+01 -0.47222450344E+02 -0.18388375194E+02  0.51034163213E+02  0.00000000000E+00 0. -1.
         -5    1    5    5    0  502  0.57241270791E+02  0.52667445146E+02  0.20515885915E+03  0.21945995158E+03  0.47000000000E+01 0.  1.
         11    1    6    6    0    0  0.15806776087E+02  0.11278890059E+02  0.76595356948E+01  0.20874290845E+02  0.00000000000E+00 0. -1.
        -12    1    6    6    0    0 -0.22040342822E+02 -0.64382544731E+02  0.10601025611E+03  0.12597246992E+03  0.00000000000E+00 0.  1.
<mgrwt>
<rscale>  2 0.18017768E+03</rscale>
<asrwt>0</asrwt>
<pdfrwt beam="1">  1       21 0.76765782E-01 0.18035770E+03</pdfrwt>
<pdfrwt beam="2">  1       21 0.11587439E-01 0.18035770E+03</pdfrwt>
<totfact> 0.94742499E+04</totfact>
</mgrwt>
</event>
<event>
12    1  0.1050690E-001  0.1999152E+03  0.7546771E-02  0.1150091E+00
         21   -1    0    0  503  502  0.00000000000E+00  0.00000000000E+00  0.78181555930E+02  0.78181555930E+02  0.00000000000E+00 0. -1.
         21   -1    0    0  501  503 -0.00000000000E+00 -0.00000000000E+00 -0.52156008020E+03  0.52156008020E+03  0.00000000000E+00 0.  1.
          6    2    1    2  501    0  0.32207668224E+02 -0.92096858086E+02 -0.26964148175E+03  0.33488198938E+03  0.17297471771E+03 0.  0.
         24    2    3    3    0    0 -0.40161490475E+02 -0.84012391930E+02 -0.18412755359E+03  0.22246590675E+03  0.83169082956E+02 0.  0.
         -6    2    1    2    0  502 -0.32207668224E+02  0.92096858086E+02 -0.17373704252E+03  0.26485964676E+03  0.17449042201E+03 0.  0.
        -24    2    5    5    0    0 -0.60809756103E+02 -0.38961469851E+01 -0.92022095221E+02  0.13550679961E+03  0.78619465350E+02 0.  0.
          5    1    3    3  501    0  0.72369158700E+02 -0.80844661564E+01 -0.85513928166E+02  0.11241608263E+03  0.47000000000E+01 0. -1.
        -13    1    4    4    0    0  0.46610258372E+01 -0.39898012410E+02 -0.13997456222E+03  0.14562436137E+03  0.00000000000E+00 0.  1.
         14    1    4    4    0    0 -0.44822516313E+02 -0.44114379520E+02 -0.44152991367E+02  0.76841545375E+02  0.00000000000E+00 0. -1.
         -5    1    5    5    0  502  0.28602087878E+02  0.95993005071E+02 -0.81714947299E+02  0.12935284715E+03  0.47000000000E+01 0.  1.
         13    1    6    6    0    0 -0.26708890162E+02 -0.98610995694E+01  0.80735203952E+01  0.29593712677E+02  0.00000000000E+00 0. -1.
        -14    1    6    6    0    0 -0.34100865941E+02  0.59649525843E+01 -0.10009561562E+03  0.10591308693E+03  0.00000000000E+00 0.  1.
<mgrwt>
<rscale>  2 0.19958395E+03</rscale>
<asrwt>0</asrwt>
<pdfrwt beam="1">  1       21 0.12027932E-01 0.19991516E+03</pdfrwt>
<pdfrwt beam="2">  1       21 0.80240010E-01 0.19991516E+03</pdfrwt>
<totfact> 0.79573269E+04</totfact>
</mgrwt>
</event>
<event>
12    1  0.1050690E-001  0.2567295E+03  0.7546771E-02  0.1109151E+00
         21   -1    0    0  501  502  0.00000000000E+00  0.00000000000E+00  0.15785338176E+04  0.15785338176E+04  0.00000000000E+00 0.  1.
         21   -1    0    0  502  503 -0.00000000000E+00 -0.00000000000E+00 -0.41771941350E+02  0.41771941350E+02  0.00000000000E+00 0. -1.
         -6    2    1    2    0  503 -0.17972472084E+03  0.61158239958E+02  0.79511185302E+03  0.83547789790E+03  0.17256637410E+03 0.  0.
        -24    2    3    3    0    0 -0.59894007007E+02  0.88653391641E+02  0.42366092856E+03  0.44418099959E+03  0.79758774341E+02 0.  0.
          6    2    1    2  501    0  0.17972472084E+03 -0.61158239958E+02  0.74165002326E+03  0.78482786108E+03  0.17282566050E+03 0.  0.
         24    2    5    5    0    0  0.20234453802E+03 -0.31877064592E+02  0.63944356250E+03  0.67602853212E+03  0.78530550158E+02 0.  0.
          5    1    5    5  501    0 -0.22619817180E+02 -0.29281175365E+02  0.10220646076E+03  0.10879932896E+03  0.47000000000E+01 0. -1.
        -13    1    6    6    0    0  0.75849007669E+02  0.23631604202E+02  0.19331812637E+03  0.20900579577E+03  0.00000000000E+00 0.  1.
         14    1    6    6    0    0  0.12649553036E+03 -0.55508668794E+02  0.44612543613E+03  0.46702273635E+03  0.00000000000E+00 0. -1.
         -5    1    3    3    0  503 -0.11983071384E+03 -0.27495151684E+02  0.37145092447E+03  0.39129689832E+03  0.47000000000E+01 0.  1.
         13    1    4    4    0    0 -0.70179345095E+02  0.65548852409E+02  0.39235475921E+03  0.40393569984E+03  0.00000000000E+00 0. -1.
        -14    1    4    4    0    0  0.10285338089E+02  0.23104539232E+02  0.31306169351E+02  0.40245299752E+02  0.00000000000E+00 0.  1.
<mgrwt>
<rscale>  2 0.25668583E+03</rscale>
<asrwt>0</asrwt>
<pdfrwt beam="1">  1       21 0.24285131E+00 0.25672946E+03</pdfrwt>
<pdfrwt beam="2">  1       21 0.64264537E-02 0.25672946E+03</pdfrwt>
<totfact> 0.12197967E+04</totfact>
</mgrwt>
</event>
<event>
12    1  0.1050690E-001  0.1748570E+03  0.7546771E-02  0.1173174E+00
         21   -1    0    0  503  502  0.00000000000E+00  0.00000000000E+00  0.20067201941E+03  0.20067201941E+03  0.00000000000E+00 0.  1.
         21   -1    0    0  501  503 -0.00000000000E+00 -0.00000000000E+00 -0.22074400691E+03  0.22074400691E+03  0.00000000000E+00 0.  1.
          6    2    1    2  501    0 -0.11295973275E+02 -0.85335805965E+01 -0.12821496057E+03  0.21682725688E+03  0.17428299459E+03 0.  0.
         24    2    3    3    0    0  0.44090239174E+02 -0.29160783300E+02 -0.12431492426E+03  0.15740996728E+03  0.80804683854E+02 0.  0.
         -6    2    1    2    0  502  0.11295973275E+02  0.85335805965E+01  0.10814297307E+03  0.20458876944E+03  0.17309315684E+03 0.  0.
        -24    2    5    5    0    0  0.36086520859E+02 -0.43727337530E+02  0.10631645378E+03  0.14652672516E+03  0.83382107228E+02 0.  0.
          5    1    3    3  501    0 -0.55386212449E+02  0.20627202703E+02 -0.39000363150E+01  0.59417289606E+02  0.47000000000E+01 0. -1.
        -13    1    4    4    0    0  0.22112550903E+01 -0.48398090365E+02 -0.79674382691E+02  0.93248442654E+02  0.00000000000E+00 0.  1.
         14    1    4    4    0    0  0.41878984084E+02  0.19237307065E+02 -0.44640541564E+02  0.64161524625E+02  0.00000000000E+00 0. -1.
         -5    1    5    5    0  502 -0.24790547584E+02  0.52260918127E+02  0.18265192878E+01  0.58062044277E+02  0.47000000000E+01 0.  1.
         11    1    6    6    0    0  0.26048003377E+02  0.21556840365E+02  0.45921910225E+02  0.57026464779E+02  0.00000000000E+00 0. -1.
        -12    1    6    6    0    0  0.10038517482E+02 -0.65284177895E+02  0.60394543557E+02  0.89500260380E+02  0.00000000000E+00 0.  1.
<mgrwt>
<rscale>  2 0.17455980E+03</rscale>
<asrwt>0</asrwt>
<pdfrwt beam="1">  1       21 0.30872618E-01 0.17485704E+03</pdfrwt>
<pdfrwt beam="2">  1       21 0.33960616E-01 0.17485704E+03</pdfrwt>
<totfact> 0.84777344E+04</totfact>
</mgrwt>
</event>
<event>
12    1  0.1050690E-001  0.2061669E+03  0.7546771E-02  0.1144729E+00
         21   -1    0    0  503  502  0.00000000000E+00  0.00000000000E+00  0.27720024684E+03  0.27720024684E+03  0.00000000000E+00 0. -1.
         21   -1    0    0  501  503 -0.00000000000E+00 -0.00000000000E+00 -0.15665221307E+03  0.15665221307E+03  0.00000000000E+00 0. -1.
          6    2    1    2  501    0 -0.82612472891E+02  0.73653369805E+02  0.27103073980E+02  0.20749708524E+03  0.17340941210E+03 0.  0.
         24    2    3    3    0    0 -0.11626817339E+03  0.46844950375E+02  0.46086118465E+02  0.16023353156E+03  0.88533139578E+02 0.  0.
         -6    2    1    2    0  502  0.82612472891E+02 -0.73653369805E+02  0.93444959790E+02  0.22635537466E+03  0.17394009189E+03 0.  0.
        -24    2    5    5    0    0  0.74754193826E+02 -0.10191953377E+03  0.11723194135E+03  0.18829438326E+03  0.75734178781E+02 0.  0.
          5    1    3    3  501    0  0.33655700497E+02  0.26808419430E+02 -0.18983044485E+02  0.47263553677E+02  0.47000000000E+01 0. -1.
        -11    1    4    4    0    0  0.10763068011E+01  0.49552724899E+01  0.34754047008E+02  0.35122029344E+02  0.00000000000E+00 0.  1.
         12    1    4    4    0    0 -0.11734448019E+03  0.41889677886E+02  0.11332071457E+02  0.12511150222E+03  0.00000000000E+00 0. -1.
         -5    1    5    5    0  502  0.78582790652E+01  0.28266163961E+02 -0.23786981559E+02  0.38060991403E+02  0.47000000000E+01 0.  1.
         11    1    6    6    0    0  0.25398588203E+02  0.76209213619E+01  0.28542726901E+02  0.38959645584E+02  0.00000000000E+00 0. -1.
        -12    1    6    6    0    0  0.49355605623E+02 -0.10954045513E+03  0.88689214448E+02  0.14933473767E+03  0.00000000000E+00 0.  1.
<mgrwt>
<rscale>  2 0.20605494E+03</rscale>
<asrwt>0</asrwt>
<pdfrwt beam="1">  1       21 0.42646192E-01 0.20616691E+03</pdfrwt>
<pdfrwt beam="2">  1       21 0.24100341E-01 0.20616691E+03</pdfrwt>
<totfact> 0.85421536E+04</totfact>
</mgrwt>
</event>
<event>
12    1  0.1050690E-001  0.2643647E+03  0.7546771E-02  0.1105671E+00
         21   -1    0    0  501  502  0.00000000000E+00  0.00000000000E+00  0.98898983165E+03  0.98898983165E+03  0.00000000000E+00 0.  1.
         21   -1    0    0  502  503 -0.00000000000E+00 -0.00000000000E+00 -0.12419086877E+03  0.12419086877E+03  0.00000000000E+00 0. -1.
         -6    2    1    2    0  503  0.64313323192E+02  0.19004497326E+03  0.56825626768E+02  0.26305742319E+03  0.16036446188E+03 0.  0.
        -24    2    3    3    0    0  0.83158070898E+01  0.13575848163E+03 -0.13124678231E+02  0.15818664483E+03  0.79694663826E+02 0.  0.
          6    2    1    2  501    0 -0.64313323192E+02 -0.19004497326E+03  0.80797333611E+03  0.85012327723E+03  0.17214929338E+03 0.  0.
         24    2    5    5    0    0 -0.25475621277E+02 -0.11618242587E+03  0.69344029373E+03  0.70833487574E+03  0.82045669403E+02 0.  0.
          5    1    5    5  501    0 -0.38837701915E+02 -0.73862547392E+02  0.11453304238E+03  0.14178840148E+03  0.47000000000E+01 0. -1.
        -13    1    6    6    0    0 -0.35438261504E+02 -0.69119019062E+02  0.23784894361E+03  0.25021076946E+03  0.00000000000E+00 0.  1.
         14    1    6    6    0    0  0.99626402272E+01 -0.47063406809E+02  0.45559135012E+03  0.45812410629E+03  0.00000000000E+00 0. -1.
         -5    1    3    3    0  503  0.55997516102E+02  0.54286491635E+02  0.69950305000E+02  0.10487077836E+03  0.47000000000E+01 0.  1.
         13    1    4    4    0    0  0.21378369991E+02  0.13492603387E+03  0.39572874738E+01  0.13666648983E+03  0.00000000000E+00 0. -1.
        -14    1    4    4    0    0 -0.13062562901E+02  0.83244776139E+00 -0.17081965705E+02  0.21520154999E+02  0.00000000000E+00 0.  1.
<mgrwt>
<rscale>  2 0.26246470E+03</rscale>
<asrwt>0</asrwt>
<pdfrwt beam="1">  1       21 0.15215228E+00 0.26436466E+03</pdfrwt>
<pdfrwt beam="2">  1       21 0.19106288E-01 0.26436466E+03</pdfrwt>
<totfact> 0.68802226E+03</totfact>
</mgrwt>
</event>
<event>
12    1  0.1050690E-001  0.1742207E+03  0.7546771E-02  0.1173642E+00
         21   -1    0    0  503  502  0.00000000000E+00  0.00000000000E+00  0.40417805772E+03  0.40417805772E+03  0.00000000000E+00 0.  1.
         21   -1    0    0  501  503 -0.00000000000E+00 -0.00000000000E+00 -0.13469319457E+03  0.13469319457E+03  0.00000000000E+00 0.  1.
          6    2    1    2  501    0  0.36007847704E+01  0.12803162027E+02 -0.44693523929E+02  0.17986207817E+03  0.17371231814E+03 0.  0.
         24    2    3    3    0    0 -0.46086174211E+02  0.54131323803E+02 -0.43188409530E+02  0.11504567425E+03  0.79474101286E+02 0.  0.
         -6    2    1    2    0  502 -0.36007847704E+01 -0.12803162027E+02  0.31417838708E+03  0.35900917411E+03  0.17321270617E+03 0.  0.
        -24    2    5    5    0    0 -0.48894624535E+02  0.24865637391E+02  0.10695077372E+03  0.14351939683E+03  0.78424263066E+02 0.  0.
          5    1    3    3  501    0  0.49686958981E+02 -0.41328161776E+02 -0.15051143991E+01  0.64816403926E+02  0.47000000000E+01 0. -1.
        -13    1    4    4    0    0 -0.21368694741E+02  0.34354475645E+02  0.19429066911E+02  0.44881396511E+02  0.00000000000E+00 0.  1.
         14    1    4    4    0    0 -0.24717479470E+02  0.19776848158E+02 -0.62617476441E+02  0.70164277736E+02  0.00000000000E+00 0. -1.
         -5    1    5    5    0  502  0.45293839765E+02 -0.37668799418E+02  0.20722761336E+03  0.21548977727E+03  0.47000000000E+01 0.  1.
         11    1    6    6    0    0 -0.13909696311E+02 -0.23177242011E+02  0.81701561218E+01  0.28238549002E+02  0.00000000000E+00 0. -1.
        -12    1    6    6    0    0 -0.34984928225E+02  0.48042879402E+02  0.98780617596E+02  0.11528084783E+03  0.00000000000E+00 0.  1.
<mgrwt>
<rscale>  2 0.17409604E+03</rscale>
<asrwt>0</asrwt>
<pdfrwt beam="1">  1       21 0.62181239E-01 0.17422071E+03</pdfrwt>
<pdfrwt beam="2">  1       21 0.20722030E-01 0.17422071E+03</pdfrwt>
<totfact> 0.52285459E+04</totfact>
</mgrwt>
</event>
<event>
12    1  0.1050690E-001  0.1985162E+03  0.7546771E-02  0.1151290E+00
         21   -1    0    0  501  502  0.00000000000E+00  0.00000000000E+00  0.18254433871E+03  0.18254433871E+03  0.00000000000E+00 0. -1.
         21   -1    0    0  502  503 -0.00000000000E+00 -0.00000000000E+00 -0.10269660789E+04  0.10269660789E+04  0.00000000000E+00 0. -1.
         -6    2    1    2    0  503  0.22109187302E+01  0.96902289920E+02 -0.95984211939E+03  0.97987913426E+03  0.17167201767E+03 0.  0.
        -24    2    3    3    0    0  0.40094296566E+02  0.84510537753E+02 -0.89710847883E+03  0.90540561215E+03  0.78778906518E+02 0.  0.
          6    2    1    2  501    0 -0.22109187302E+01 -0.96902289920E+02  0.11542037923E+03  0.22963128333E+03  0.17324468358E+03 0.  0.
         24    2    5    5    0    0  0.22080497435E+02 -0.17341729448E+01  0.10064704234E+03  0.13019595323E+03  0.79565088970E+02 0.  0.
          5    1    5    5  501    0 -0.24291416165E+02 -0.95168116975E+02  0.14773336882E+02  0.99435330092E+02  0.47000000000E+01 0. -1.
        -11    1    6    6    0    0  0.46293309196E+02 -0.94477405245E+00  0.94451583877E+02  0.10519061161E+03  0.00000000000E+00 0.  1.
         12    1    6    6    0    0 -0.24212811761E+02 -0.78939889235E+00  0.61954584674E+01  0.25005341622E+02  0.00000000000E+00 0. -1.
         -5    1    3    3    0  503 -0.37883377836E+02  0.12391752167E+02 -0.62733640562E+02  0.74473522115E+02  0.47000000000E+01 0.  1.
         13    1    4    4    0    0  0.28539516034E+02  0.96997092316E+02 -0.66136033208E+03  0.66904441462E+03  0.00000000000E+00 0. -1.
        -14    1    4    4    0    0  0.11554780532E+02 -0.12486554563E+02 -0.23574814675E+03  0.23636119753E+03  0.00000000000E+00 0.  1.
<mgrwt>
<rscale>  2 0.19817252E+03</rscale>
<asrwt>0</asrwt>
<pdfrwt beam="1">  1       21 0.28083744E-01 0.19851615E+03</pdfrwt>
<pdfrwt beam="2">  1       21 0.15799478E+00 0.19851615E+03</pdfrwt>
<totfact> 0.31373653E+03</totfact>
</mgrwt>
</event>
<event>
12    1  0.1050690E-001  0.1971099E+03  0.7546771E-02  0.1156010E+00
         21   -1    0    0  501  502  0.00000000000E+00  0.00000000000E+00  0.10951805081E+03  0.10951805081E+03  0.00000000000E+00 0. -1.
         21   -1    0    0  502  503 -0.00000000000E+00 -0.00000000000E+00 -0.32543059190E+03  0.32543059190E+03  0.00000000000E+00 0. -1.
         -6    2    1    2    0  503 -0.44950924261E+02  0.40103701607E+01 -0.12068111494E+03  0.23111952844E+03  0.19187401143E+03 0.  0.
        -24    2    3    3    0    0 -0.34426115302E+01 -0.71879545411E+02 -0.44854667383E+02  0.11599368659E+03  0.79145900215E+02 0.  0.
          6    2    1    2  501    0  0.44950924261E+02 -0.40103701607E+01 -0.95231426137E+02  0.20382911427E+03  0.17447238933E+03 0.  0.
         24    2    5    5    0    0  0.20310078580E+02 -0.45208653806E+02 -0.11748198761E+03  0.15070993377E+03  0.80343917336E+02 0.  0.
          5    1    5    5  501    0  0.24640845681E+02  0.41198283645E+02  0.22250561474E+02  0.53119180501E+02  0.47000000000E+01 0. -1.
        -11    1    6    6    0    0  0.40038861658E+02 -0.40909865619E+02 -0.38010257788E+02  0.68713224673E+02  0.00000000000E+00 0.  1.
         12    1    6    6    0    0 -0.19728783078E+02 -0.42987881872E+01 -0.79471729823E+02  0.81996709097E+02  0.00000000000E+00 0. -1.
         -5    1    3    3    0  503 -0.41508312730E+02  0.75889915572E+02 -0.75826447562E+02  0.11512584185E+03  0.47000000000E+01 0.  1.
         13    1    4    4    0    0  0.12799882404E+02 -0.15419507965E+02 -0.53018316013E+02  0.56679273534E+02  0.00000000000E+00 0. -1.
        -14    1    4    4    0    0 -0.16242493934E+02 -0.56460037446E+02  0.81636486300E+01  0.59314413060E+02  0.00000000000E+00 0.  1.
<mgrwt>
<rscale>  2 0.19274306E+03</rscale>
<asrwt>0</asrwt>
<pdfrwt beam="1">  1       21 0.16848931E-01 0.19710988E+03</pdfrwt>
<pdfrwt beam="2">  1       21 0.50066244E-01 0.19710988E+03</pdfrwt>
<totfact> 0.12030528E+05</totfact>
</mgrwt>
</event>
<event>
12    1  0.1050690E-001  0.2141254E+03  0.7546771E-02  0.1138827E+00
         21   -1    0    0  503  502  0.00000000000E+00  0.00000000000E+00  0.11796579487E+04  0.11796579487E+04  0.00000000000E+00 0.  1.
         21   -1    0    0  501  503 -0.00000000000E+00 -0.00000000000E+00 -0.56644629460E+02  0.56644629460E+02  0.00000000000E+00 0. -1.
          6    2    1    2  501    0 -0.84914768135E+02  0.92968165003E+02  0.20858472663E+03  0.29713841904E+03  0.17008837212E+03 0.  0.
         24    2    3    3    0    0  0.18059900524E+02  0.45252782369E+02  0.12287272377E+03  0.15483881412E+03  0.80643522936E+02 0.  0.
         -6    2    1    2    0  502  0.84914768135E+02 -0.92968165003E+02  0.91442859261E+03  0.93916415913E+03  0.17319373329E+03 0.  0.
        -24    2    5    5    0    0  0.97703747091E+02 -0.94584684361E+02  0.50374192326E+03  0.52824835084E+03  0.82450653140E+02 0.  0.
          5    1    3    3  501    0 -0.10297466866E+03  0.47715382634E+02  0.85712002860E+02  0.14229960492E+03  0.47000000000E+01 0. -1.
        -11    1    4    4    0    0 -0.11640555459E+02 -0.14291028458E+02  0.61906315243E+02  0.64592011060E+02  0.00000000000E+00 0.  1.
         12    1    4    4    0    0  0.29700455984E+02  0.59543810828E+02  0.60966408531E+02  0.90246803061E+02  0.00000000000E+00 0. -1.
         -5    1    5    5    0  502 -0.12788978956E+02  0.16165193573E+01  0.41068666935E+03  0.41091580829E+03  0.47000000000E+01 0.  1.
         11    1    6    6    0    0  0.59223089840E+02 -0.10273681660E+03  0.34949444733E+03  0.36906448836E+03  0.00000000000E+00 0. -1.
        -12    1    6    6    0    0  0.38480657251E+02  0.81521322381E+01  0.15424747593E+03  0.15918386248E+03  0.00000000000E+00 0.  1.
<mgrwt>
<rscale>  2 0.21349662E+03</rscale>
<asrwt>0</asrwt>
<pdfrwt beam="1">  1       21 0.18148582E+00 0.21412535E+03</pdfrwt>
<pdfrwt beam="2">  1       21 0.87145593E-02 0.21412535E+03</pdfrwt>
<totfact> 0.18093398E+04</totfact>
</mgrwt>
</event>
<event>
12    1  0.1050690E-001  0.2465909E+03  0.7546771E-02  0.1116244E+00
         21   -1    0    0  503  502  0.00000000000E+00  0.00000000000E+00  0.95036359942E+03  0.95036359942E+03  0.00000000000E+00 0.  1.
         21   -1    0    0  501  503 -0.00000000000E+00 -0.00000000000E+00 -0.23950998144E+03  0.23950998144E+03  0.00000000000E+00 0.  1.
          6    2    1    2  501    0 -0.30755543412E+02  0.17208746033E+03 -0.15473935504E+03  0.29112087369E+03  0.17391692744E+03 0.  0.
         24    2    3    3    0    0 -0.83609995488E+02  0.10748394476E+03 -0.11672667102E+03  0.19928263833E+03  0.86862100405E+02 0.  0.
         -6    2    1    2    0  502  0.30755543412E+02 -0.17208746033E+03  0.86559297301E+03  0.89875270716E+03  0.16716828726E+03 0.  0.
        -24    2    5    5    0    0  0.70014076485E+02 -0.14882674007E+03  0.55104954760E+03  0.58088174279E+03  0.81955022611E+02 0.  0.
          5    1    3    3  501    0  0.52854452076E+02  0.64603515572E+02 -0.38012684012E+02  0.91838235362E+02  0.47000000000E+01 0. -1.
        -11    1    4    4    0    0 -0.46695179638E+02  0.11026025326E+03 -0.66749989558E+02  0.13708874628E+03  0.00000000000E+00 0.  1.
         12    1    4    4    0    0 -0.36914815850E+02 -0.27763085063E+01 -0.49976681466E+02  0.62193892052E+02  0.00000000000E+00 0. -1.
         -5    1    5    5    0  502 -0.39258533073E+02 -0.23260720260E+02  0.31454342541E+03  0.31787096437E+03  0.47000000000E+01 0.  1.
         13    1    6    6    0    0 -0.18618147300E+02 -0.30956263816E+02  0.99040585103E+02  0.10542278300E+03  0.00000000000E+00 0. -1.
        -14    1    6    6    0    0  0.88632223785E+02 -0.11787047625E+03  0.45200896250E+03  0.47545895979E+03  0.00000000000E+00 0.  1.
<mgrwt>
<rscale>  2 0.24540431E+03</rscale>
<asrwt>0</asrwt>
<pdfrwt beam="1">  1       21 0.14620978E+00 0.24659095E+03</pdfrwt>
<pdfrwt beam="2">  1       21 0.36847690E-01 0.24659095E+03</pdfrwt>
<totfact> 0.21688539E+03</totfact>
</mgrwt>
</event>
<event>
12    1  0.1050690E-001  0.2022904E+03  0.7546771E-02  0.1148556E+00
         21   -1    0    0  501  502  0.00000000000E+00  0.00000000000E+00  0.87308487280E+03  0.87308487280E+03  0.00000000000E+00 0. -1.
         21   -1    0    0  502  503 -0.00000000000E+00 -0.00000000000E+00 -0.11341998921E+03  0.11341998921E+03  0.00000000000E+00 0. -1.
         -6    2    1    2    0  503  0.96523628650E+02  0.24706473662E+02 -0.16280720679E+01  0.19879401806E+03  0.17201508733E+03 0.  0.
        -24    2    3    3    0    0  0.88624721981E+02  0.74871748497E+02  0.22017124784E+02  0.14257895904E+03  0.79899222203E+02 0.  0.
          6    2    1    2  501    0 -0.96523628650E+02 -0.24706473662E+02  0.76129295566E+03  0.78771084395E+03  0.17605166462E+03 0.  0.
         24    2    5    5    0    0 -0.22063153580E+02 -0.64469315864E+01  0.62866827514E+03  0.63444907733E+03  0.82301190081E+02 0.  0.
          5    1    5    5  501    0 -0.74460475070E+02 -0.18259542076E+02  0.13262468052E+03  0.15326176662E+03  0.47000000000E+01 0. -1.
        -13    1    6    6    0    0 -0.24769837568E+01  0.21680705343E+02  0.47519645525E+02  0.52290583699E+02  0.00000000000E+00 0.  1.
         14    1    6    6    0    0 -0.19586169824E+02 -0.28127636930E+02  0.58114862961E+03  0.58215849363E+03  0.00000000000E+00 0. -1.
         -5    1    3    3    0  503  0.78989066690E+01 -0.50165274836E+02 -0.23645196852E+02  0.56215059015E+02  0.47000000000E+01 0.  1.
         11    1    4    4    0    0 -0.76507065289E+01  0.18666788401E+02  0.23651052785E+02  0.31086244505E+02  0.00000000000E+00 0. -1.
        -12    1    4    4    0    0  0.96275428510E+02  0.56204960097E+02 -0.16339280005E+01  0.11149271454E+03  0.00000000000E+00 0.  1.
<mgrwt>
<rscale>  2 0.20140890E+03</rscale>
<asrwt>0</asrwt>
<pdfrwt beam="1">  1       21 0.13432074E+00 0.20229041E+03</pdfrwt>
<pdfrwt beam="2">  1       21 0.17449230E-01 0.20229041E+03</pdfrwt>
<totfact> 0.11749796E+04</totfact>
</mgrwt>
</event>
<event>
12    1  0.1050690E-001  0.1942100E+03  0.7546771E-02  0.1154894E+00
         21   -1    0    0  503  502  0.00000000000E+00  0.00000000000E+00  0.76095558221E+02  0.76095558221E+02  0.00000000000E+00 0.  1.
         21   -1    0    0  501  503 -0.00000000000E+00 -0.00000000000E+00 -0.49362678494E+03  0.49362678494E+03  0.00000000000E+00 0.  1.
          6    2    1    2  501    0  0.13370413798E+02 -0.86771843269E+02 -0.20727531465E+03  0.28349677140E+03  0.17233468189E+03 0.  0.
         24    2    3    3    0    0  0.61134565819E+02 -0.97491142249E+02 -0.17782744107E+03  0.22617675005E+03  0.79318128523E+02 0.  0.
         -6    2    1    2    0  502 -0.13370413798E+02  0.86771843269E+02 -0.21025591207E+03  0.28622557176E+03  0.17323223897E+03 0.  0.
        -24    2    5    5    0    0  0.44775162539E+02  0.43496024479E+02 -0.55082825927E+02  0.11489407669E+03  0.79182143319E+02 0.  0.
          5    1    3    3  501    0 -0.47764152021E+02  0.10719298980E+02 -0.29447873579E+02  0.57320021347E+02  0.47000000000E+01 0. -1.
        -13    1    4    4    0    0  0.25274068406E+02 -0.10850691671E+02 -0.10182680191E+03  0.10547612825E+03  0.00000000000E+00 0.  1.
         14    1    4    4    0    0  0.35860497413E+02 -0.86640450579E+02 -0.76000639162E+02  0.12070062181E+03  0.00000000000E+00 0. -1.
         -5    1    5    5    0  502 -0.58145576336E+02  0.43275818790E+02 -0.15517308614E+03  0.17133149507E+03  0.47000000000E+01 0.  1.
         11    1    6    6    0    0  0.66646957485E+02  0.36638586704E+02 -0.51106558058E+02  0.91630143808E+02  0.00000000000E+00 0. -1.
        -12    1    6    6    0    0 -0.21871794946E+02  0.68574377753E+01 -0.39762678685E+01  0.23263932883E+02  0.00000000000E+00 0.  1.
<mgrwt>
<rscale>  2 0.19400966E+03</rscale>
<asrwt>0</asrwt>
<pdfrwt beam="1">  1       21 0.11707009E-01 0.19421001E+03</pdfrwt>
<pdfrwt beam="2">  1       21 0.75942583E-01 0.19421001E+03</pdfrwt>
<totfact> 0.94772910E+04</totfact>
</mgrwt>
</event>
<event>
12    1  0.1050690E-001  0.1922246E+03  0.7546771E-02  0.1156723E+00
         21   -1    0    0  501  502  0.00000000000E+00  0.00000000000E+00  0.19782018875E+04  0.19782018875E+04  0.00000000000E+00 0. -1.
         21   -1    0    0  502  503 -0.00000000000E+00 -0.00000000000E+00 -0.18571450820E+02  0.18571450820E+02  0.00000000000E+00 0.  1.
         -6    2    1    2    0  503  0.67632190506E+02  0.49624011698E+02  0.97027217709E+03  0.98913012687E+03  0.17295564319E+03 0.  0.
        -24    2    3    3    0    0 -0.68295557603E+01  0.76444881056E+02  0.62564914429E+03  0.63550456864E+03  0.80862490371E+02 0.  0.
          6    2    1    2  501    0 -0.67632190506E+02 -0.49624011698E+02  0.98935825955E+03  0.10076432114E+04  0.17169280718E+03 0.  0.
         24    2    5    5    0    0 -0.66656430315E+02  0.11221953607E+02  0.36104049005E+03  0.37636792038E+03  0.82058296897E+02 0.  0.
          5    1    5    5  501    0 -0.97576019085E+00 -0.60845965305E+02  0.62831776950E+03  0.63127529104E+03  0.47000000000E+01 0. -1.
        -11    1    6    6    0    0 -0.17078834557E+02  0.37529014902E+02  0.23221792482E+03  0.23585011799E+03  0.00000000000E+00 0.  1.
         12    1    6    6    0    0 -0.49577595758E+02 -0.26307061296E+02  0.12882256524E+03  0.14051780239E+03  0.00000000000E+00 0. -1.
         -5    1    3    3    0  503  0.74461746266E+02 -0.26820869357E+02  0.34462303281E+03  0.35362555823E+03  0.47000000000E+01 0.  1.
         11    1    4    4    0    0  0.66484613880E+01  0.90003890171E+02  0.46114236580E+03  0.46989060835E+03  0.00000000000E+00 0. -1.
        -12    1    4    4    0    0 -0.13478017148E+02 -0.13559009115E+02  0.16450677849E+03  0.16561396029E+03  0.00000000000E+00 0.  1.
<mgrwt>
<rscale>  2 0.19194014E+03</rscale>
<asrwt>0</asrwt>
<pdfrwt beam="1">  1       21 0.30433858E+00 0.19222463E+03</pdfrwt>
<pdfrwt beam="2">  1       21 0.28571479E-02 0.19222463E+03</pdfrwt>
<totfact> 0.22113723E+04</totfact>
</mgrwt>
</event>
<event>
12    1  0.1050690E-001  0.2389063E+03  0.7546771E-02  0.1120528E+00
         21   -1    0    0  503  502  0.00000000000E+00  0.00000000000E+00  0.20196394311E+03  0.20196394311E+03  0.00000000000E+00 0. -1.
         21   -1    0    0  501  503 -0.00000000000E+00 -0.00000000000E+00 -0.28635165592E+03  0.28635165592E+03  0.00000000000E+00 0.  1.
          6    2    1    2  501    0  0.36222007072E+02  0.16071258888E+03 -0.14145224477E+02  0.23929708648E+03  0.17298103423E+03 0.  0.
         24    2    3    3    0    0  0.50453616560E+02  0.15899437799E+03 -0.56070637728E+02  0.19474014277E+03  0.83396805285E+02 0.  0.
         -6    2    1    2    0  502 -0.36222007072E+02 -0.16071258888E+03 -0.70242488327E+02  0.24901851255E+03  0.17301919663E+03 0.  0.
        -24    2    5    5    0    0  0.44520706546E+02 -0.79603745235E+02 -0.55306869752E+02  0.13350577289E+03  0.80287558111E+02 0.  0.
          5    1    3    3  501    0 -0.14231609488E+02  0.17182108853E+01  0.41925413251E+02  0.44556943718E+02  0.47000000000E+01 0. -1.
        -11    1    4    4    0    0  0.32284581309E+02  0.25222018808E+02 -0.42544967379E+02  0.59063683193E+02  0.00000000000E+00 0.  1.
         12    1    4    4    0    0  0.18169035251E+02  0.13377235918E+03 -0.13525670349E+02  0.13567645957E+03  0.00000000000E+00 0. -1.
         -5    1    5    5    0  502 -0.80742713618E+02 -0.81108843642E+02 -0.14935618575E+02  0.11551273965E+03  0.47000000000E+01 0.  1.
         11    1    6    6    0    0  0.84631551051E+00 -0.43878495846E+01  0.18748186854E+02  0.19273400951E+02  0.00000000000E+00 0. -1.
        -12    1    6    6    0    0  0.43674391036E+02 -0.75215895651E+02 -0.74055056606E+02  0.11423237194E+03  0.00000000000E+00 0.  1.
<mgrwt>
<rscale>  2 0.23889937E+03</rscale>
<asrwt>0</asrwt>
<pdfrwt beam="1">  1       21 0.31071376E-01 0.23890628E+03</pdfrwt>
<pdfrwt beam="2">  1       21 0.44054101E-01 0.23890628E+03</pdfrwt>
<totfact> 0.48216846E+04</totfact>
</mgrwt>
</event>
<event>
12    1  0.1050690E-001  0.3609793E+03  0.7546771E-02  0.1058221E+00
         21   -1    0    0  501  502  0.00000000000E+00  0.00000000000E+00  0.21388913491E+03  0.21388913491E+03  0.00000000000E+00 0.  1.
         21   -1    0    0  502  503 -0.00000000000E+00 -0.00000000000E+00 -0.63792262213E+03  0.63792262213E+03  0.00000000000E+00 0. -1.
         -6    2    1    2    0  503  0.31586588356E+03 -0.23764231238E+02 -0.12094866760E+03  0.38046635978E+03  0.17259801751E+03 0.  0.
        -24    2    3    3    0    0  0.20653566581E+03  0.40349580251E+02 -0.11540461128E+03  0.25351556657E+03  0.81650770420E+02 0.  0.
          6    2    1    2  501    0 -0.31586588356E+03  0.23764231238E+02 -0.30308481962E+03  0.47134539725E+03  0.17311868917E+03 0.  0.
         24    2    5    5    0    0 -0.12672477105E+03  0.59202674684E+02 -0.18377614016E+03  0.24487929667E+03  0.81412996254E+02 0.  0.
          5    1    5    5  501    0 -0.18914111251E+03 -0.35438443446E+02 -0.11930867946E+03  0.22646610058E+03  0.47000000000E+01 0. -1.
        -13    1    6    6    0    0 -0.24384140683E+02  0.16996681407E+02 -0.10469451087E+03  0.10883204538E+03  0.00000000000E+00 0.  1.
         14    1    6    6    0    0 -0.10234063037E+03  0.42205993277E+02 -0.79081629291E+02  0.13604725129E+03  0.00000000000E+00 0. -1.
         -5    1    3    3    0  503  0.10933021775E+03 -0.64113811489E+02 -0.55440563206E+01  0.12695079321E+03  0.47000000000E+01 0.  1.
         11    1    4    4    0    0  0.10226671803E+03  0.59980347066E+02 -0.48586140485E+02  0.12812781391E+03  0.00000000000E+00 0. -1.
        -12    1    4    4    0    0  0.10426894778E+03 -0.19630766815E+02 -0.66818470793E+02  0.12538775266E+03  0.00000000000E+00 0.  1.
<mgrwt>
<rscale>  2 0.36091696E+03</rscale>
<asrwt>0</asrwt>
<pdfrwt beam="1">  1       21 0.32906021E-01 0.36097933E+03</pdfrwt>
<pdfrwt beam="2">  1       21 0.98141942E-01 0.36097933E+03</pdfrwt>
<totfact> 0.69578153E+03</totfact>
</mgrwt>
</event>
<event>
12    1  0.1050690E-001  0.1764017E+03  0.7546771E-02  0.1171638E+00
         21   -1    0    0  501  502  0.00000000000E+00  0.00000000000E+00  0.53204417154E+02  0.53204417154E+02  0.00000000000E+00 0.  1.
         21   -1    0    0  502  503 -0.00000000000E+00 -0.00000000000E+00 -0.65076298463E+03  0.65076298463E+03  0.00000000000E+00 0.  1.
         -6    2    1    2    0  503  0.28113984381E+02  0.25421703341E+02 -0.18429888939E+03  0.25511494554E+03  0.17228144326E+03 0.  0.
        -24    2    3    3    0    0  0.62216071345E+02 -0.64623516972E+01 -0.47070300751E+02  0.11008625583E+03  0.77400058056E+02 0.  0.
          6    2    1    2  501    0 -0.28113984381E+02 -0.25421703341E+02 -0.41325967810E+03  0.44885245625E+03  0.17102136364E+03 0.  0.
         24    2    5    5    0    0 -0.55182315878E+02  0.37063410757E+02 -0.22365258299E+03  0.24733316544E+03  0.82063587811E+02 0.  0.
          5    1    5    5  501    0  0.27068331496E+02 -0.62485114098E+02 -0.18960709510E+03  0.20151929081E+03  0.47000000000E+01 0. -1.
        -13    1    6    6    0    0 -0.52073807196E+02 -0.34684392155E+01 -0.18115931802E+03  0.18852694760E+03  0.00000000000E+00 0.  1.
         14    1    6    6    0    0 -0.31085086813E+01  0.40531849972E+02 -0.42493264974E+02  0.58806217839E+02  0.00000000000E+00 0. -1.
         -5    1    3    3    0  503 -0.34102086964E+02  0.31884055038E+02 -0.13722858863E+03  0.14502868971E+03  0.47000000000E+01 0.  1.
         13    1    4    4    0    0  0.19107971071E+02  0.26736476731E+01 -0.60914513496E+02  0.63897111866E+02  0.00000000000E+00 0. -1.
        -14    1    4    4    0    0  0.43108100274E+02 -0.91359993704E+01  0.13844212745E+02  0.46189143965E+02  0.00000000000E+00 0.  1.
<mgrwt>
<rscale>  2 0.17609327E+03</rscale>
<asrwt>0</asrwt>
<pdfrwt beam="1">  1       21 0.81852952E-02 0.17640169E+03</pdfrwt>
<pdfrwt beam="2">  1       21 0.10011738E+00 0.17640169E+03</pdfrwt>
<totfact> 0.95049758E+04</totfact>
</mgrwt>
</event>
<event>
12    1  0.1050690E-001  0.2160534E+03  0.7546771E-02  0.1136992E+00
         21   -1    0    0  501  502  0.00000000000E+00  0.00000000000E+00  0.15508094531E+03  0.15508094531E+03  0.00000000000E+00 0.  1.
         21   -1    0    0  502  503 -0.00000000000E+00 -0.00000000000E+00 -0.30230439693E+03  0.30230439693E+03  0.00000000000E+00 0.  1.
         -6    2    1    2    0  503  0.12145365108E+03  0.44960306811E+02 -0.93285943239E+02  0.23470099197E+03  0.17207518669E+03 0.  0.
        -24    2    3    3    0    0  0.18382535290E+02  0.30747564937E+02  0.96827928100E+01  0.88241756868E+02  0.80059483044E+02 0.  0.
          6    2    1    2  501    0 -0.12145365108E+03 -0.44960306811E+02 -0.53937508379E+02  0.22268435028E+03  0.17293538244E+03 0.  0.
         24    2    5    5    0    0 -0.11805516654E+03 -0.43873841380E+02 -0.97607051433E+02  0.17861793342E+03  0.80717367051E+02 0.  0.
          5    1    5    5  501    0 -0.33984845396E+01 -0.10864654305E+01  0.43669543054E+02  0.44066416860E+02  0.47000000000E+01 0. -1.
        -11    1    6    6    0    0 -0.24659411343E+02  0.19206256251E+02 -0.43592415601E+02  0.53640148629E+02  0.00000000000E+00 0.  1.
         12    1    6    6    0    0 -0.93395755200E+02 -0.63080097631E+02 -0.54014635832E+02  0.12497778479E+03  0.00000000000E+00 0. -1.
         -5    1    3    3    0  503  0.10307111579E+03  0.14212741874E+02 -0.10296873605E+03  0.14645923510E+03  0.47000000000E+01 0.  1.
         11    1    4    4    0    0  0.75730747502E+01 -0.12082867557E+02 -0.27189278870E+02  0.30701857192E+02  0.00000000000E+00 0. -1.
        -12    1    4    4    0    0  0.10809460540E+02  0.42830432494E+02  0.36872071680E+02  0.57539899676E+02  0.00000000000E+00 0.  1.
<mgrwt>
<rscale>  2 0.21588120E+03</rscale>
<asrwt>0</asrwt>
<pdfrwt beam="1">  1       21 0.23858607E-01 0.21605338E+03</pdfrwt>
<pdfrwt beam="2">  1       21 0.46508369E-01 0.21605338E+03</pdfrwt>
<totfact> 0.72567559E+04</totfact>
</mgrwt>
</event>
<event>
12    1  0.1050690E-001  0.1979735E+03  0.7546771E-02  0.1152802E+00
         21   -1    0    0  501  502  0.00000000000E+00  0.00000000000E+00  0.20319946627E+03  0.20319946627E+03  0.00000000000E+00 0. -1.
         21   -1    0    0  502  503 -0.00000000000E+00 -0.00000000000E+00 -0.22256993735E+03  0.22256993735E+03  0.00000000000E+00 0. -1.
         -6    2    1    2    0  503 -0.81324986829E+02 -0.76029479086E+01 -0.94754256422E+02  0.21392929631E+03  0.17353909188E+03 0.  0.
        -24    2    3    3    0    0 -0.65094184218E+02 -0.26244492954E+01 -0.13495346631E+03  0.17003976592E+03  0.80355107953E+02 0.  0.
          6    2    1    2  501    0  0.81324986829E+02  0.76029479086E+01  0.75383785336E+02  0.21184010731E+03  0.18033845312E+03 0.  0.
         24    2    5    5    0    0  0.10071141509E+03 -0.13202101710E+02 -0.17587356536E+01  0.12948877317E+03  0.80294237699E+02 0.  0.
          5    1    5    5  501    0 -0.19386428258E+02  0.20805049618E+02  0.77142520989E+02  0.82351334141E+02  0.47000000000E+01 0. -1.
        -13    1    6    6    0    0 -0.26021559201E+01 -0.20004110769E+02 -0.14958393018E+02  0.25113525932E+02  0.00000000000E+00 0.  1.
         14    1    6    6    0    0  0.10331357101E+03  0.68020090590E+01  0.13199657364E+02  0.10437524724E+03  0.00000000000E+00 0. -1.
         -5    1    3    3    0  503 -0.16230802611E+02 -0.49784986132E+01  0.40199209886E+02  0.43889530384E+02  0.47000000000E+01 0.  1.
         11    1    4    4    0    0 -0.56648142193E+02 -0.21705031348E+02 -0.39635169582E+02  0.72464246823E+02  0.00000000000E+00 0. -1.
        -12    1    4    4    0    0 -0.84460420245E+01  0.19080582053E+02 -0.95318296726E+02  0.97575519102E+02  0.00000000000E+00 0.  1.
<mgrwt>
<rscale>  2 0.19641185E+03</rscale>
<asrwt>0</asrwt>
<pdfrwt beam="1">  1       21 0.31261456E-01 0.19797352E+03</pdfrwt>
<pdfrwt beam="2">  1       21 0.34241529E-01 0.19797352E+03</pdfrwt>
<totfact> 0.80625686E+04</totfact>
</mgrwt>
</event>
<event>
12    1  0.1050690E-001  0.2242345E+03  0.7546771E-02  0.1131542E+00
         21   -1    0    0  501  502  0.00000000000E+00  0.00000000000E+00  0.55770520411E+02  0.55770520411E+02  0.00000000000E+00 0.  1.
         21   -1    0    0  502  503 -0.00000000000E+00 -0.00000000000E+00 -0.90290700473E+03  0.90290700473E+03  0.00000000000E+00 0. -1.
         -6    2    1    2    0  503  0.97865293129E+02  0.99906966068E+02 -0.49569779827E+03  0.54405643605E+03  0.17527715463E+03 0.  0.
        -24    2    3    3    0    0  0.52377653756E+02  0.12893105019E+03 -0.42769085039E+03  0.45711646967E+03  0.81666204900E+02 0.  0.
          6    2    1    2  501    0 -0.97865293129E+02 -0.99906966068E+02 -0.35143868605E+03  0.41462108909E+03  0.16983073926E+03 0.  0.
         24    2    5    5    0    0 -0.71269105326E+01  0.42422465912E+00 -0.15676470835E+03  0.17751383592E+03  0.82975992556E+02 0.  0.
          5    1    5    5  501    0 -0.90738382596E+02 -0.10033119073E+03 -0.19467397770E+03  0.23710725316E+03  0.47000000000E+01 0. -1.
        -13    1    6    6    0    0  0.50009895522E+01 -0.31098237970E+02 -0.13180670372E+03  0.13551795987E+03  0.00000000000E+00 0.  1.
         14    1    6    6    0    0 -0.12127900085E+02  0.31522462629E+02 -0.24958004629E+02  0.41995876056E+02  0.00000000000E+00 0. -1.
         -5    1    3    3    0  503  0.45487639373E+02 -0.29024084119E+02 -0.68006947885E+02  0.86939966386E+02  0.47000000000E+01 0.  1.
         11    1    4    4    0    0  0.27274201286E+02  0.71049171223E+02 -0.34394893738E+03  0.35226799218E+03  0.00000000000E+00 0. -1.
        -12    1    4    4    0    0  0.25103452470E+02  0.57881878963E+02 -0.83741913002E+02  0.10484847749E+03  0.00000000000E+00 0.  1.
<mgrwt>
<rscale>  2 0.22316914E+03</rscale>
<asrwt>0</asrwt>
<pdfrwt beam="1">  1       21 0.85800804E-02 0.22423447E+03</pdfrwt>
<pdfrwt beam="2">  1       21 0.13890877E+00 0.22423447E+03</pdfrwt>
<totfact> 0.38096822E+04</totfact>
</mgrwt>
</event>
<event>
12    1  0.1050690E-001  0.2309287E+03  0.7546771E-02  0.1126733E+00
         21   -1    0    0  503  502  0.00000000000E+00  0.00000000000E+00  0.10672453980E+03  0.10672453980E+03  0.00000000000E+00 0.  1.
         21   -1    0    0  501  503 -0.00000000000E+00 -0.00000000000E+00 -0.53853850896E+03  0.53853850896E+03  0.00000000000E+00 0. -1.
          6    2    1    2  501    0 -0.14001032019E+03  0.59096179391E+02 -0.31397055188E+03  0.38975066403E+03  0.17387588816E+03 0.  0.
         24    2    3    3    0    0 -0.36807206359E+02  0.16457835035E+02 -0.44578152870E+02  0.98094589588E+02  0.77522293691E+02 0.  0.
         -6    2    1    2    0  502  0.14001032019E+03 -0.59096179391E+02 -0.11784341728E+03  0.25551238474E+03  0.16823869823E+03 0.  0.
        -24    2    5    5    0    0  0.10085992092E+03 -0.59767827294E+02 -0.14739990791E+03  0.20622870578E+03  0.84015649787E+02 0.  0.
          5    1    3    3  501    0 -0.10320311383E+03  0.42638344356E+02 -0.26939239901E+03  0.29165607444E+03  0.47000000000E+01 0. -1.
        -13    1    4    4    0    0  0.16167623673E+02  0.17821528313E+02 -0.37606191400E+02  0.44645543543E+02  0.00000000000E+00 0.  1.
         14    1    4    4    0    0 -0.52974830033E+02 -0.13636932774E+01 -0.69719614701E+01  0.53449046045E+02  0.00000000000E+00 0. -1.
         -5    1    5    5    0  502  0.39150399264E+02  0.67164790367E+00  0.29556490628E+02  0.49283678959E+02  0.47000000000E+01 0.  1.
         13    1    6    6    0    0  0.86511969227E+01 -0.18672863419E+02 -0.85207412281E+02  0.87657413515E+02  0.00000000000E+00 0. -1.
        -14    1    6    6    0    0  0.92208723998E+02 -0.41094963876E+02 -0.62192495625E+02  0.11857129226E+03  0.00000000000E+00 0.  1.
<mgrwt>
<rscale>  2 0.22986790E+03</rscale>
<asrwt>0</asrwt>
<pdfrwt beam="1">  1       21 0.16419160E-01 0.23092872E+03</pdfrwt>
<pdfrwt beam="2">  1       21 0.82852079E-01 0.23092872E+03</pdfrwt>
<totfact> 0.41447828E+04</totfact>
</mgrwt>
</event>
<event>
12    1  0.1050690E-001  0.1858966E+03  0.7546771E-02  0.1162405E+00
         21   -1    0    0  503  502  0.00000000000E+00  0.00000000000E+00  0.27762533424E+03  0.27762533424E+03  0.00000000000E+00 0. -1.
         21   -1    0    0  501  503 -0.00000000000E+00 -0.00000000000E+00 -0.30049159869E+03  0.30049159869E+03  0.00000000000E+00 0. -1.
          6    2    1    2  501    0 -0.41509432611E+02  0.51355924570E+02 -0.23299620798E+03  0.29756010108E+03  0.17289973059E+03 0.  0.
         24    2    3    3    0    0 -0.50965649998E+02  0.91938288320E+02 -0.12665101306E+03  0.18324589034E+03  0.80550796884E+02 0.  0.
         -6    2    1    2    0  502  0.41509432611E+02 -0.51355924570E+02  0.21012994352E+03  0.28055683185E+03  0.17377306682E+03 0.  0.
        -24    2    5    5    0    0 -0.38609849037E+02 -0.55126461034E+02  0.10311638580E+03  0.14673864261E+03  0.79809730393E+02 0.  0.
          5    1    3    3  501    0  0.94562173873E+01 -0.40582363749E+02 -0.10634519491E+03  0.11431421073E+03  0.47000000000E+01 0. -1.
        -13    1    4    4    0    0  0.39435549719E+01  0.44107245906E+02 -0.94748742132E+01  0.45285472379E+02  0.00000000000E+00 0.  1.
         14    1    4    4    0    0 -0.54909204970E+02  0.47831042413E+02 -0.11717613885E+03  0.13796041796E+03  0.00000000000E+00 0. -1.
         -5    1    5    5    0  502  0.80119281647E+02  0.37705364635E+01  0.10701355772E+03  0.13381818924E+03  0.47000000000E+01 0.  1.
         13    1    6    6    0    0 -0.29956089041E+02 -0.69227367357E+02  0.10584258966E+03  0.12997095617E+03  0.00000000000E+00 0. -1.
        -14    1    6    6    0    0 -0.86537599952E+01  0.14100906323E+02 -0.27262038535E+01  0.16767686443E+02  0.00000000000E+00 0.  1.
<mgrwt>
<rscale>  2 0.18569222E+03</rscale>
<asrwt>0</asrwt>
<pdfrwt beam="1">  1       21 0.42711590E-01 0.18589659E+03</pdfrwt>
<pdfrwt beam="2">  1       21 0.46229476E-01 0.18589659E+03</pdfrwt>
<totfact> 0.23728420E+04</totfact>
</mgrwt>
</event>
<event>
12    1  0.1050690E-001  0.1750059E+03  0.7546771E-02  0.1172786E+00
         21   -1    0    0  503  502  0.00000000000E+00  0.00000000000E+00  0.30050710006E+03  0.30050710006E+03  0.00000000000E+00 0. -1.
         21   -1    0    0  501  503 -0.00000000000E+00 -0.00000000000E+00 -0.19509092083E+03  0.19509092083E+03  0.00000000000E+00 0. -1.
          6    2    1    2  501    0  0.24226304565E+02  0.26155805652E+02 -0.11864895941E+03  0.21143475423E+03  0.17133604327E+03 0.  0.
         24    2    3    3    0    0 -0.24716737002E+02  0.44462496059E+02 -0.12746502335E+03  0.15823353982E+03  0.78757160325E+02 0.  0.
         -6    2    1    2    0  502 -0.24226304565E+02 -0.26155805652E+02  0.22406513864E+03  0.28416326666E+03  0.17109218498E+03 0.  0.
        -24    2    5    5    0    0  0.23145162805E+02  0.34946804960E+02  0.78722747236E+02  0.11946935152E+03  0.79490108072E+02 0.  0.
          5    1    3    3  501    0  0.48943041567E+02 -0.18306690407E+02  0.88160639358E+01  0.53201214411E+02  0.47000000000E+01 0. -1.
        -13    1    4    4    0    0  0.92601299839E+00  0.43543688253E+02 -0.20322926970E+02  0.48061748276E+02  0.00000000000E+00 0.  1.
         14    1    4    4    0    0 -0.25642750000E+02  0.91880780597E+00 -0.10714209638E+03  0.11017179154E+03  0.00000000000E+00 0. -1.
         -5    1    5    5    0  502 -0.47371467370E+02 -0.61102610612E+02  0.14534239141E+03  0.16469391514E+03  0.47000000000E+01 0.  1.
         11    1    6    6    0    0  0.42583143626E+02  0.14969407796E+02  0.11327152935E+02  0.46537207527E+02  0.00000000000E+00 0. -1.
        -12    1    6    6    0    0 -0.19437980820E+02  0.19977397164E+02  0.67395594300E+02  0.72932143990E+02  0.00000000000E+00 0.  1.
<mgrwt>
<rscale>  2 0.17494623E+03</rscale>
<asrwt>0</asrwt>
<pdfrwt beam="1">  1       21 0.46231862E-01 0.17500594E+03</pdfrwt>
<pdfrwt beam="2">  1       21 0.30013988E-01 0.17500594E+03</pdfrwt>
<totfact> 0.48129895E+04</totfact>
</mgrwt>
</event>
<event>
12    1  0.1050690E-001  0.2066230E+03  0.7546771E-02  0.1144302E+00
         21   -1    0    0  503  502  0.00000000000E+00  0.00000000000E+00  0.38433131144E+03  0.38433131144E+03  0.00000000000E+00 0.  1.
         21   -1    0    0  501  503 -0.00000000000E+00 -0.00000000000E+00 -0.11173962860E+03  0.11173962860E+03  0.00000000000E+00 0. -1.
          6    2    1    2  501    0 -0.32623578915E+02  0.10752962088E+03  0.11598670868E+03  0.23680625964E+03  0.17319749058E+03 0.  0.
         24    2    3    3    0    0  0.27193733526E+02  0.38583038921E+02  0.50299265785E+01  0.93052165689E+02  0.80032839151E+02 0.  0.
         -6    2    1    2    0  502  0.32623578915E+02 -0.10752962088E+03  0.15660497415E+03  0.25926468040E+03  0.17339590336E+03 0.  0.
        -24    2    5    5    0    0  0.38391055935E+02 -0.49799662149E+02  0.11618440483E+02  0.10303025118E+03  0.80785920636E+02 0.  0.
          5    1    3    3  501    0 -0.59817312441E+02  0.68946581959E+02  0.11095678211E+03  0.14375409395E+03  0.47000000000E+01 0. -1.
        -13    1    4    4    0    0 -0.22266632386E+02 -0.75771724422E+01 -0.65466276776E+01  0.24414643023E+02  0.00000000000E+00 0.  1.
         14    1    4    4    0    0  0.49460365911E+02  0.46160211363E+02  0.11576554256E+02  0.68637522665E+02  0.00000000000E+00 0. -1.
         -5    1    5    5    0  502 -0.57674770206E+01 -0.57729958732E+02  0.14498653367E+03  0.15623442922E+03  0.47000000000E+01 0.  1.
         13    1    6    6    0    0  0.80481716523E+01 -0.23898735707E+01 -0.31198117420E+02  0.32308003547E+02  0.00000000000E+00 0. -1.
        -14    1    6    6    0    0  0.30342884283E+02 -0.47409788578E+02  0.42816557904E+02  0.70722247633E+02  0.00000000000E+00 0.  1.
<mgrwt>
<rscale>  2 0.20658135E+03</rscale>
<asrwt>0</asrwt>
<pdfrwt beam="1">  1       21 0.59127893E-01 0.20662298E+03</pdfrwt>
<pdfrwt beam="2">  1       21 0.17190712E-01 0.20662298E+03</pdfrwt>
<totfact> 0.81229867E+04</totfact>
</mgrwt>
</event>
<event>
12    1  0.1050690E-001  0.2259434E+03  0.7546771E-02  0.1130180E+00
         21   -1    0    0  501  502  0.00000000000E+00  0.00000000000E+00  0.88045175322E+03  0.88045175322E+03  0.00000000000E+00 0. -1.
         21   -1    0    0  502  503 -0.00000000000E+00 -0.00000000000E+00 -0.89543032494E+02  0.89543032494E+02  0.00000000000E+00 0.  1.
         -6    2    1    2    0  503 -0.11755693739E+03  0.86498316393E+02  0.10135044446E+03  0.24436331217E+03  0.16774958561E+03 0.  0.
        -24    2    3    3    0    0 -0.26872440668E+02 -0.46768752606E+01  0.74206340342E+02  0.11285100891E+03  0.80528057448E+02 0.  0.
          6    2    1    2  501    0  0.11755693739E+03 -0.86498316393E+02  0.68955827627E+03  0.72563147355E+03  0.17247848205E+03 0.  0.
         24    2    5    5    0    0 -0.76606129116E+01 -0.98068546578E+01  0.29368711408E+03  0.30337908189E+03  0.75045899060E+02 0.  0.
          5    1    5    5  501    0  0.12521755030E+03 -0.76691461735E+02  0.39587116219E+03  0.42225239165E+03  0.47000000000E+01 0. -1.
        -13    1    6    6    0    0 -0.27530727444E+02 -0.27856168054E+02  0.93083369708E+02  0.10098723072E+03  0.00000000000E+00 0.  1.
         14    1    6    6    0    0  0.19870114532E+02  0.18049313397E+02  0.20060374437E+03  0.20239185117E+03  0.00000000000E+00 0. -1.
         -5    1    3    3    0  503 -0.90684496724E+02  0.91175191654E+02  0.27144104122E+02  0.13151230326E+03  0.47000000000E+01 0.  1.
         11    1    4    4    0    0  0.22020520957E+02 -0.19591426834E+02  0.45535928115E+02  0.54242493471E+02  0.00000000000E+00 0. -1.
        -12    1    4    4    0    0 -0.48892961626E+02  0.14914551574E+02  0.28670412227E+02  0.58608515443E+02  0.00000000000E+00 0.  1.
<mgrwt>
<rscale>  2 0.22504077E+03</rscale>
<asrwt>0</asrwt>
<pdfrwt beam="1">  1       21 0.13545411E+00 0.22594340E+03</pdfrwt>
<pdfrwt beam="2">  1       21 0.13775852E-01 0.22594340E+03</pdfrwt>
<totfact> 0.17454536E+04</totfact>
</mgrwt>
</event>
<event>
12    1  0.1050690E-001  0.2107143E+03  0.7546771E-02  0.1142100E+00
         21   -1    0    0  501  502  0.00000000000E+00  0.00000000000E+00  0.10389918757E+03  0.10389918757E+03  0.00000000000E+00 0. -1.
         21   -1    0    0  502  503 -0.00000000000E+00 -0.00000000000E+00 -0.41717968017E+03  0.41717968017E+03  0.00000000000E+00 0.  1.
         -6    2    1    2    0  503  0.64096584476E+02  0.95759724159E+02 -0.14239766676E+03  0.24978298575E+03  0.16981209485E+03 0.  0.
        -24    2    3    3    0    0 -0.10782735451E+02  0.27562243832E+02 -0.13988785892E+02  0.86171434927E+02  0.79711262679E+02 0.  0.
          6    2    1    2  501    0 -0.64096584476E+02 -0.95759724159E+02 -0.17088282584E+03  0.27129588200E+03  0.17641490445E+03 0.  0.
         24    2    5    5    0    0 -0.79404348058E+02 -0.10311664164E+03 -0.18960926929E+03  0.24558165354E+03  0.86142795899E+02 0.  0.
          5    1    5    5  501    0  0.15307763582E+02  0.73569174770E+01  0.18726443451E+02  0.25714228454E+02  0.47000000000E+01 0. -1.
        -13    1    6    6    0    0 -0.15457717326E+02  0.13027064840E+01  0.44358875165E+01  0.16134285456E+02  0.00000000000E+00 0.  1.
         14    1    6    6    0    0 -0.63946630732E+02 -0.10441934812E+03 -0.19404515680E+03  0.22944736809E+03  0.00000000000E+00 0. -1.
         -5    1    3    3    0  503  0.74879319927E+02  0.68197480327E+02 -0.12840888087E+03  0.16361155082E+03  0.47000000000E+01 0.  1.
         11    1    4    4    0    0  0.29199364522E+02 -0.18166700610E+01  0.10187986440E+02  0.30978996857E+02  0.00000000000E+00 0. -1.
        -12    1    4    4    0    0 -0.39982099973E+02  0.29378913893E+02 -0.24176772331E+02  0.55192438070E+02  0.00000000000E+00 0.  1.
<mgrwt>
<rscale>  2 0.20932659E+03</rscale>
<asrwt>0</asrwt>
<pdfrwt beam="1">  1       21 0.15984490E-01 0.21071430E+03</pdfrwt>
<pdfrwt beam="2">  1       21 0.64181490E-01 0.21071430E+03</pdfrwt>
<totfact> 0.77642872E+04</totfact>
</mgrwt>
</event>
<event>
12    1  0.1050690E-001  0.2428137E+03  0.7546771E-02  0.1118131E+00
         21   -1    0    0  501  502  0.00000000000E+00  0.00000000000E+00  0.86252782022E+02  0.86252782022E+02  0.00000000000E+00 0. -1.
         21   -1    0    0  502  503 -0.00000000000E+00 -0.00000000000E+00 -0.82140480962E+03  0.82140480962E+03  0.00000000000E+00 0.  1.
         -6    2    1    2    0  503 -0.81291734946E+02 -0.14696680814E+03 -0.55652808300E+03  0.60719190853E+03  0.17535939597E+03 0.  0.
        -24    2    3    3    0    0 -0.55550216480E+02 -0.52849375439E+02 -0.13693901653E+03  0.17638128701E+03  0.80493360755E+02 0.  0.
          6    2    1    2  501    0  0.81291734946E+02  0.14696680814E+03 -0.17862394460E+03  0.30046568311E+03  0.17368225090E+03 0.  0.
         24    2    5    5    0    0  0.34375389593E+02  0.33950083267E+02 -0.14589464077E+03  0.17370914130E+03  0.80965078901E+02 0.  0.
          5    1    5    5  501    0  0.46916345353E+02  0.11301672487E+03 -0.32729303823E+02  0.12675654181E+03  0.47000000000E+01 0. -1.
        -11    1    6    6    0    0 -0.78344922114E+00  0.53779410765E+02 -0.78725005056E+02  0.95343931302E+02  0.00000000000E+00 0.  1.
         12    1    6    6    0    0  0.35158838814E+02 -0.19829327498E+02 -0.67169635717E+02  0.78365209999E+02  0.00000000000E+00 0. -1.
         -5    1    3    3    0  503 -0.25741518466E+02 -0.94117432700E+02 -0.41958906647E+03  0.43081062152E+03  0.47000000000E+01 0.  1.
         13    1    4    4    0    0 -0.33836566494E+02 -0.16953804531E+02 -0.12801275641E+03  0.13349011396E+03  0.00000000000E+00 0. -1.
        -14    1    4    4    0    0 -0.21713649986E+02 -0.35895570907E+02 -0.89262601157E+01  0.42891173056E+02  0.00000000000E+00 0.  1.
<mgrwt>
<rscale>  2 0.24251105E+03</rscale>
<asrwt>0</asrwt>
<pdfrwt beam="1">  1       21 0.13269658E-01 0.24281373E+03</pdfrwt>
<pdfrwt beam="2">  1       21 0.12636997E+00 0.24281373E+03</pdfrwt>
<totfact> 0.22080927E+04</totfact>
</mgrwt>
</event>
<event>
12    1  0.1050690E-001  0.2162285E+03  0.7546771E-02  0.1137086E+00
         21   -1    0    0  503  502  0.00000000000E+00  0.00000000000E+00  0.88919194332E+03  0.88919194332E+03  0.00000000000E+00 0. -1.
         21   -1    0    0  501  503 -0.00000000000E+00 -0.00000000000E+00 -0.77460992063E+02  0.77460992063E+02  0.00000000000E+00 0. -1.
          6    2    1    2  501    0  0.10035053385E+03 -0.80107102394E+02  0.13064223185E+03  0.25263050992E+03  0.17397529797E+03 0.  0.
         24    2    3    3    0    0  0.37491501198E+02  0.23593219450E+02  0.37867131792E+02  0.99874744310E+02  0.81109754129E+02 0.  0.
         -6    2    1    2    0  502 -0.10035053385E+03  0.80107102394E+02  0.68108871941E+03  0.71402242546E+03  0.17163566897E+03 0.  0.
        -24    2    5    5    0    0 -0.21311630544E+02  0.95400236011E+02  0.32212840020E+03  0.34611533266E+03  0.80459472148E+02 0.  0.
          5    1    3    3  501    0  0.62859032651E+02 -0.10370032184E+03  0.92775100060E+02  0.15275576561E+03  0.47000000000E+01 0. -1.
        -11    1    4    4    0    0  0.63287853242E+02  0.14179366466E+02  0.28716541305E+02  0.70929870618E+02  0.00000000000E+00 0.  1.
         12    1    4    4    0    0 -0.25796352044E+02  0.94138529840E+01  0.91505904872E+01  0.28944873692E+02  0.00000000000E+00 0. -1.
         -5    1    5    5    0  502 -0.79038903304E+02 -0.15293133617E+02  0.35896031921E+03  0.36790709281E+03  0.47000000000E+01 0.  1.
         13    1    6    6    0    0 -0.13916814842E+02  0.58734134702E+02  0.29175088176E+03  0.29792944353E+03  0.00000000000E+00 0. -1.
        -14    1    6    6    0    0 -0.73948157029E+01  0.36666101310E+02  0.30377518441E+02  0.48185889129E+02  0.00000000000E+00 0.  1.
<mgrwt>
<rscale>  2 0.21575752E+03</rscale>
<asrwt>0</asrwt>
<pdfrwt beam="1">  1       21 0.13679875E+00 0.21622854E+03</pdfrwt>
<pdfrwt beam="2">  1       21 0.11917076E-01 0.21622854E+03</pdfrwt>
<totfact> 0.22233596E+04</totfact>
</mgrwt>
</event>
<event>
12    1  0.1050690E-001  0.2349324E+03  0.7546771E-02  0.1123620E+00
         21   -1    0    0  501  502  0.00000000000E+00  0.00000000000E+00  0.48776619886E+03  0.48776619886E+03  0.00000000000E+00 0.  1.
         21   -1    0    0  502  503 -0.00000000000E+00 -0.00000000000E+00 -0.20949414662E+03  0.20949414662E+03  0.00000000000E+00 0.  1.
         -6    2    1    2    0  503 -0.68409503793E+02 -0.14276805588E+03 -0.98286463930E+02  0.25466344978E+03  0.17358187023E+03 0.  0.
        -24    2    3    3    0    0 -0.72643841064E+02 -0.91858380114E+02 -0.13148393622E+03  0.19355791103E+03  0.80383765746E+02 0.  0.
          6    2    1    2  501    0  0.68409503793E+02  0.14276805588E+03  0.37655851617E+03  0.44259689571E+03  0.17039107371E+03 0.  0.
         24    2    5    5    0    0  0.99091384774E+02  0.55222892385E+02  0.23661637250E+03  0.27463431938E+03  0.81043391257E+02 0.  0.
          5    1    5    5  501    0 -0.30681880981E+02  0.87545163494E+02  0.13994214367E+03  0.16796257633E+03  0.47000000000E+01 0. -1.
        -13    1    6    6    0    0  0.46820165332E+02  0.59821289172E+01  0.30082422959E+02  0.55972010141E+02  0.00000000000E+00 0.  1.
         14    1    6    6    0    0  0.52271219442E+02  0.49240763468E+02  0.20653394954E+03  0.21866230924E+03  0.00000000000E+00 0. -1.
         -5    1    3    3    0  503  0.42343372703E+01 -0.50909675765E+02  0.33197472295E+02  0.61105538746E+02  0.47000000000E+01 0.  1.
         11    1    4    4    0    0 -0.42362705050E+00 -0.34787158422E+02 -0.22081687029E+01  0.34859745553E+02  0.00000000000E+00 0. -1.
        -12    1    4    4    0    0 -0.72220214013E+02 -0.57071221692E+02 -0.12927576752E+03  0.15869816548E+03  0.00000000000E+00 0.  1.
<mgrwt>
<rscale>  2 0.23434331E+03</rscale>
<asrwt>0</asrwt>
<pdfrwt beam="1">  1       21 0.75040953E-01 0.23493242E+03</pdfrwt>
<pdfrwt beam="2">  1       21 0.32229869E-01 0.23493242E+03</pdfrwt>
<totfact> 0.14333616E+04</totfact>
</mgrwt>
</event>
<event>
12    1  0.1050690E-001  0.1909485E+03  0.7546771E-02  0.1157609E+00
         21   -1    0    0  501  502  0.00000000000E+00  0.00000000000E+00  0.14002190763E+03  0.14002190763E+03  0.00000000000E+00 0.  1.
         21   -1    0    0  502  503 -0.00000000000E+00 -0.00000000000E+00 -0.28092907458E+03  0.28092907458E+03  0.00000000000E+00 0.  1.
         -6    2    1    2    0  503 -0.51871600147E+02  0.62785873966E+02 -0.13549286535E+02  0.19142858321E+03  0.17270955513E+03 0.  0.
        -24    2    3    3    0    0 -0.96274118603E+02  0.43235140309E+02 -0.35240306843E+02  0.13807687102E+03  0.81764049645E+02 0.  0.
          6    2    1    2  501    0  0.51871600147E+02 -0.62785873966E+02 -0.12735788041E+03  0.22952239900E+03  0.17270718881E+03 0.  0.
         24    2    5    5    0    0  0.57362395714E+01  0.33869638470E+01 -0.19241093899E+01  0.80314366802E+02  0.80014494621E+02 0.  0.
          5    1    5    5  501    0  0.46135360575E+02 -0.66172837813E+02 -0.12543377102E+03  0.14920803219E+03  0.47000000000E+01 0. -1.
        -13    1    6    6    0    0 -0.11472448704E+02  0.15658938808E+02 -0.35603787843E+02  0.40551808254E+02  0.00000000000E+00 0.  1.
         14    1    6    6    0    0  0.17208688275E+02 -0.12271974961E+02  0.33679678454E+02  0.39762558549E+02  0.00000000000E+00 0. -1.
         -5    1    3    3    0  503  0.44402518456E+02  0.19550733657E+02  0.21691020308E+02  0.53351712192E+02  0.47000000000E+01 0.  1.
         13    1    4    4    0    0  0.11047781256E+01  0.31913488139E+02  0.45877928360E+01  0.32260488264E+02  0.00000000000E+00 0. -1.
        -14    1    4    4    0    0 -0.97378896728E+02  0.11321652170E+02 -0.39828099679E+02  0.10581638276E+03  0.00000000000E+00 0.  1.
<mgrwt>
<rscale>  2 0.19094794E+03</rscale>
<asrwt>0</asrwt>
<pdfrwt beam="1">  1       21 0.21541832E-01 0.19094847E+03</pdfrwt>
<pdfrwt beam="2">  1       21 0.43219857E-01 0.19094847E+03</pdfrwt>
<totfact> 0.10343833E+05</totfact>
</mgrwt>
</event>
<event>
12    1  0.1050690E-001  0.2154867E+03  0.7546771E-02  0.1137646E+00
         21   -1    0    0  503  502  0.00000000000E+00  0.00000000000E+00  0.25620670141E+02  0.25620670141E+02  0.00000000000E+00 0.  1.
         21   -1    0    0  501  503 -0.00000000000E+00 -0.00000000000E+00 -0.17973537758E+04  0.17973537758E+04  0.00000000000E+00 0. -1.
          6    2    1    2  501    0  0.11837250696E+03  0.46679317351E+02 -0.87645244766E+03  0.90255383835E+03  0.17390666761E+03 0.  0.
         24    2    3    3    0    0  0.73667519457E+02 -0.37674573749E+02 -0.56701635832E+03  0.57869137026E+03  0.80807638755E+02 0.  0.
         -6    2    1    2    0  502 -0.11837250696E+03 -0.46679317351E+02 -0.89528065798E+03  0.92042060757E+03  0.17162642343E+03 0.  0.
        -24    2    5    5    0    0 -0.12965531003E+03  0.11812515354E+02 -0.67531540809E+03  0.69248334143E+03  0.80822291566E+02 0.  0.
          5    1    3    3  501    0  0.44704987501E+02  0.84353891100E+02 -0.30943608934E+03  0.32386246809E+03  0.47000000000E+01 0. -1.
        -13    1    4    4    0    0  0.28637561577E+02  0.16726847421E+02 -0.80311960743E+02  0.86890208862E+02  0.00000000000E+00 0.  1.
         14    1    4    4    0    0  0.45029957880E+02 -0.54401421170E+02 -0.48670439757E+03  0.49180116139E+03  0.00000000000E+00 0. -1.
         -5    1    5    5    0  502  0.11282803070E+02 -0.58491832705E+02 -0.21996524989E+03  0.22793726615E+03  0.47000000000E+01 0.  1.
         11    1    6    6    0    0 -0.72295730682E+01 -0.24281651243E+02 -0.12789366395E+03  0.13037888860E+03  0.00000000000E+00 0. -1.
        -12    1    6    6    0    0 -0.12242573696E+03  0.36094166597E+02 -0.54742174414E+03  0.56210445283E+03  0.00000000000E+00 0.  1.
<mgrwt>
<rscale>  2 0.21502627E+03</rscale>
<asrwt>0</asrwt>
<pdfrwt beam="1">  1       21 0.39416420E-02 0.21548675E+03</pdfrwt>
<pdfrwt beam="2">  1       21 0.27651594E+00 0.21548675E+03</pdfrwt>
<totfact> 0.18333564E+04</totfact>
</mgrwt>
</event>
<event>
12    1  0.1050690E-001  0.2401300E+03  0.7546771E-02  0.1119803E+00
         21   -1    0    0  501  502  0.00000000000E+00  0.00000000000E+00  0.59489819527E+03  0.59489819527E+03  0.00000000000E+00 0. -1.
         21   -1    0    0  502  503 -0.00000000000E+00 -0.00000000000E+00 -0.17114091986E+03  0.17114091986E+03  0.00000000000E+00 0.  1.
         -6    2    1    2    0  503  0.15655391215E+03  0.52432590877E+02 -0.40595622098E+02  0.24353730163E+03  0.17436774001E+03 0.  0.
        -24    2    3    3    0    0  0.10208777268E+03 -0.30685897992E+02 -0.53592076746E+02  0.14320664144E+03  0.79199076987E+02 0.  0.
          6    2    1    2  501    0 -0.15655391215E+03 -0.52432590877E+02  0.46435289751E+03  0.52250181350E+03  0.17356908622E+03 0.  0.
         24    2    5    5    0    0 -0.26166185497E+02 -0.28481731765E+02  0.99876170587E+02  0.13463588643E+03  0.81582437793E+02 0.  0.
          5    1    5    5  501    0 -0.13038772665E+03 -0.23950859112E+02  0.36447672692E+03  0.38786592707E+03  0.47000000000E+01 0. -1.
        -11    1    6    6    0    0 -0.37099431966E+02 -0.48798226464E+02  0.47986204160E+02  0.77847996428E+02  0.00000000000E+00 0.  1.
         12    1    6    6    0    0  0.10933246469E+02  0.20316494699E+02  0.51889966428E+02  0.56787890004E+02  0.00000000000E+00 0. -1.
         -5    1    3    3    0  503  0.54466139466E+02  0.83118488869E+02  0.12996454648E+02  0.10033066019E+03  0.47000000000E+01 0.  1.
         11    1    4    4    0    0  0.15302637216E+01  0.19525587809E+02 -0.13862060877E+02  0.23994728965E+02  0.00000000000E+00 0. -1.
        -12    1    4    4    0    0  0.10055750896E+03 -0.50211485802E+02 -0.39730015869E+02  0.11921191248E+03  0.00000000000E+00 0.  1.
<mgrwt>
<rscale>  2 0.23998503E+03</rscale>
<asrwt>0</asrwt>
<pdfrwt beam="1">  1       21 0.91522798E-01 0.24012999E+03</pdfrwt>
<pdfrwt beam="2">  1       21 0.26329373E-01 0.24012999E+03</pdfrwt>
<totfact> 0.13462066E+04</totfact>
</mgrwt>
</event>
<event>
12    1  0.1050690E-001  0.1793817E+03  0.7546771E-02  0.1171912E+00
         21   -1    0    0  503  502  0.00000000000E+00  0.00000000000E+00  0.29026729593E+03  0.29026729593E+03  0.00000000000E+00 0. -1.
         21   -1    0    0  501  503 -0.00000000000E+00 -0.00000000000E+00 -0.14780707515E+03  0.14780707515E+03  0.00000000000E+00 0.  1.
          6    2    1    2  501    0  0.48394055052E+02 -0.96085428511E+01 -0.48029517184E+02  0.18570041706E+03  0.17246304449E+03 0.  0.
         24    2    3    3    0    0  0.83725047744E+02 -0.46207315655E+02 -0.84689632252E+01  0.12108713170E+03  0.73792753607E+02 0.  0.
         -6    2    1    2    0  502 -0.48394055052E+02  0.96085428511E+01  0.19048973796E+03  0.25237395402E+03  0.15802519969E+03 0.  0.
        -24    2    5    5    0    0 -0.76461479266E+02 -0.25097564357E+02  0.16534515177E+03  0.20092850335E+03  0.80975296825E+02 0.  0.
          5    1    3    3  501    0 -0.35330992692E+02  0.36598772804E+02 -0.39560553959E+02  0.64613285359E+02  0.47000000000E+01 0. -1.
        -13    1    4    4    0    0  0.16244256987E+02 -0.41681666025E+02  0.18321853714E+02  0.48341777907E+02  0.00000000000E+00 0.  1.
         14    1    4    4    0    0  0.67480790758E+02 -0.45256496293E+01 -0.26790816939E+02  0.72745353791E+02  0.00000000000E+00 0. -1.
         -5    1    5    5    0  502  0.28067424213E+02  0.34706107208E+02  0.25144586190E+02  0.51445450665E+02  0.47000000000E+01 0.  1.
         11    1    6    6    0    0 -0.85043934104E+02  0.25732864379E+01  0.11944334418E+03  0.14664857653E+03  0.00000000000E+00 0. -1.
        -12    1    6    6    0    0  0.85824548388E+01 -0.27670850795E+02  0.45901807597E+02  0.54279926819E+02  0.00000000000E+00 0.  1.
<mgrwt>
<rscale>  2 0.17581865E+03</rscale>
<asrwt>0</asrwt>
<pdfrwt beam="1">  1       21 0.44656507E-01 0.17938174E+03</pdfrwt>
<pdfrwt beam="2">  1       21 0.22739550E-01 0.17938174E+03</pdfrwt>
<totfact> 0.87756839E+04</totfact>
</mgrwt>
</event>
<event>
12    1  0.1050690E-001  0.1799225E+03  0.7546771E-02  0.1167893E+00
         21   -1    0    0  503  502  0.00000000000E+00  0.00000000000E+00  0.72674478752E+03  0.72674478752E+03  0.00000000000E+00 0. -1.
         21   -1    0    0  501  503 -0.00000000000E+00 -0.00000000000E+00 -0.50176851565E+02  0.50176851565E+02  0.00000000000E+00 0. -1.
          6    2    1    2  501    0 -0.47839865070E+02  0.82818003931E+01  0.46866324972E+03  0.50201328214E+03  0.17324795210E+03 0.  0.
         24    2    3    3    0    0 -0.24801005201E+02  0.38334536771E+02  0.11867274217E+03  0.14994879742E+03  0.79478270907E+02 0.  0.
         -6    2    1    2    0  502  0.47839865070E+02 -0.82818003931E+01  0.20790468623E+03  0.27490835694E+03  0.17318488747E+03 0.  0.
        -24    2    5    5    0    0  0.38641010755E+02 -0.60385423464E+02  0.19111948200E+03  0.21920162899E+03  0.79894747466E+02 0.  0.
          5    1    3    3  501    0 -0.23038859868E+02 -0.30052736378E+02  0.34999050755E+03  0.35206448472E+03  0.47000000000E+01 0. -1.
        -11    1    4    4    0    0  0.25098182408E+02 -0.43045582497E+01  0.26057962088E+02  0.36434398171E+02  0.00000000000E+00 0.  1.
         12    1    4    4    0    0 -0.49899187609E+02  0.42639095021E+02  0.92614780081E+02  0.11351439925E+03  0.00000000000E+00 0. -1.
         -5    1    5    5    0  502  0.91988543145E+01  0.52103623071E+02  0.16785204239E+02  0.55706727952E+02  0.47000000000E+01 0.  1.
         11    1    6    6    0    0  0.42864465928E+02 -0.30216608385E+02  0.42530833754E+02  0.67522423545E+02  0.00000000000E+00 0. -1.
        -12    1    6    6    0    0 -0.42234551723E+01 -0.30168815078E+02  0.14858864824E+03  0.15167920544E+03  0.00000000000E+00 0.  1.
<mgrwt>
<rscale>  2 0.17990728E+03</rscale>
<asrwt>0</asrwt>
<pdfrwt beam="1">  1       21 0.11180688E+00 0.17992247E+03</pdfrwt>
<pdfrwt beam="2">  1       21 0.77195161E-02 0.17992247E+03</pdfrwt>
<totfact> 0.80624974E+04</totfact>
</mgrwt>
</event>
<event>
12    1  0.1050690E-001  0.1962325E+03  0.7546771E-02  0.1153080E+00
         21   -1    0    0  501  502  0.00000000000E+00  0.00000000000E+00  0.18348126574E+02  0.18348126574E+02  0.00000000000E+00 0. -1.
         21   -1    0    0  502  503 -0.00000000000E+00 -0.00000000000E+00 -0.21663555605E+04  0.21663555605E+04  0.00000000000E+00 0. -1.
         -6    2    1    2    0  503 -0.25982945415E+02  0.83568566550E+02 -0.12740073272E+04  0.12889451399E+04  0.17500310000E+03 0.  0.
        -24    2    3    3    0    0  0.19660023881E+02  0.66500636735E+02 -0.11587071967E+04  0.11636821965E+04  0.82128165907E+02 0.  0.
          6    2    1    2  501    0  0.25982945415E+02 -0.83568566550E+02 -0.87400010670E+03  0.89575854720E+03  0.17563703938E+03 0.  0.
         24    2    5    5    0    0  0.58738558743E+02 -0.23141449427E+02 -0.65254552213E+03  0.66383487503E+03  0.10428488808E+03 0.  0.
          5    1    5    5  501    0 -0.32755613328E+02 -0.60427117123E+02 -0.22145458457E+03  0.23192367217E+03  0.47000000000E+01 0. -1.
        -11    1    6    6    0    0  0.50154448559E+01 -0.49373760300E+02 -0.15601594455E+03  0.16371895995E+03  0.00000000000E+00 0.  1.
         12    1    6    6    0    0  0.53723113887E+02  0.26232310873E+02 -0.49652957758E+03  0.50011591508E+03  0.00000000000E+00 0. -1.
         -5    1    3    3    0  503 -0.45642969296E+02  0.17067929815E+02 -0.11530013059E+03  0.12526294339E+03  0.47000000000E+01 0.  1.
         11    1    4    4    0    0  0.16080997356E+02  0.18866971917E+02 -0.91510743947E+03  0.91544316420E+03  0.00000000000E+00 0. -1.
        -12    1    4    4    0    0  0.35790265252E+01  0.47633664818E+02 -0.24359975718E+03  0.24823903229E+03  0.00000000000E+00 0.  1.
<mgrwt>
<rscale>  2 0.19609053E+03</rscale>
<asrwt>0</asrwt>
<pdfrwt beam="1">  1       21 0.28227874E-02 0.19623249E+03</pdfrwt>
<pdfrwt beam="2">  1       21 0.33328562E+00 0.19623249E+03</pdfrwt>
<totfact> 0.15272882E+04</totfact>
</mgrwt>
</event>
<event>
12    1  0.1050690E-001  0.1763841E+03  0.7546771E-02  0.1171654E+00
         21   -1    0    0  501  502  0.00000000000E+00  0.00000000000E+00  0.16294716091E+03  0.16294716091E+03  0.00000000000E+00 0. -1.
         21   -1    0    0  502  503 -0.00000000000E+00 -0.00000000000E+00 -0.19464877282E+03  0.19464877282E+03  0.00000000000E+00 0. -1.
         -6    2    1    2    0  503 -0.24304061308E+02 -0.23783153387E+01 -0.44683135805E+02  0.18195588828E+03  0.17468548559E+03 0.  0.
        -24    2    3    3    0    0 -0.41494648600E+01  0.64290682810E+02 -0.31423301520E+02  0.11090044319E+03  0.84622541119E+02 0.  0.
          6    2    1    2  501    0  0.24304061308E+02  0.23783153387E+01  0.12981523891E+02  0.17564004546E+03  0.17344901794E+03 0.  0.
         24    2    5    5    0    0 -0.27686246290E+02 -0.55875809540E+01  0.61868636264E+02  0.10367833797E+03  0.78254203188E+02 0.  0.
          5    1    5    5  501    0  0.51990307598E+02  0.79658962926E+01 -0.48887112373E+02  0.71961707484E+02  0.47000000000E+01 0. -1.
        -11    1    6    6    0    0 -0.44784434601E+02 -0.37130707060E+01  0.61400319596E+01  0.45355622243E+02  0.00000000000E+00 0.  1.
         12    1    6    6    0    0  0.17098188311E+02 -0.18745102479E+01  0.55728604304E+02  0.58322715728E+02  0.00000000000E+00 0. -1.
         -5    1    3    3    0  503 -0.20154596448E+02 -0.66668998149E+02 -0.13259834285E+02  0.71055445094E+02  0.47000000000E+01 0.  1.
         13    1    4    4    0    0  0.34619132298E+02  0.54253827826E+02 -0.89458976895E+01  0.64976851573E+02  0.00000000000E+00 0. -1.
        -14    1    4    4    0    0 -0.38768597158E+02  0.10036854984E+02 -0.22477403831E+02  0.45923591612E+02  0.00000000000E+00 0.  1.
<mgrwt>
<rscale>  2 0.17607721E+03</rscale>
<asrwt>0</asrwt>
<pdfrwt beam="1">  1       21 0.25068794E-01 0.17638413E+03</pdfrwt>
<pdfrwt beam="2">  1       21 0.29945965E-01 0.17638413E+03</pdfrwt>
<totfact> 0.16194781E+05</totfact>
</mgrwt>
</event>
<event>
12    1  0.1050690E-001  0.1833197E+03  0.7546771E-02  0.1164795E+00
         21   -1    0    0  501  502  0.00000000000E+00  0.00000000000E+00  0.29999591174E+03  0.29999591174E+03  0.00000000000E+00 0. -1.
         21   -1    0    0  502  503 -0.00000000000E+00 -0.00000000000E+00 -0.21370509405E+03  0.21370509405E+03  0.00000000000E+00 0. -1.
         -6    2    1    2    0  503 -0.57780530518E+02  0.57384834744E+01 -0.13444591163E+03  0.22676753370E+03  0.17313662607E+03 0.  0.
        -24    2    3    3    0    0 -0.39843163665E+02  0.32395267095E+02 -0.16034470997E+03  0.18523235587E+03  0.77224792796E+02 0.  0.
          6    2    1    2  501    0  0.57780530518E+02 -0.57384834744E+01  0.22073672932E+03  0.28693347209E+03  0.17388097605E+03 0.  0.
         24    2    5    5    0    0 -0.31288403390E+02  0.10260050771E+02  0.75526483029E+02  0.11576883288E+03  0.81326134787E+02 0.  0.
          5    1    5    5  501    0  0.89068933908E+02 -0.15998534246E+02  0.14521024629E+03  0.17116463921E+03  0.47000000000E+01 0. -1.
        -13    1    6    6    0    0 -0.40259602009E+02  0.39953790207E+02  0.48870118302E+02  0.74869415442E+02  0.00000000000E+00 0.  1.
         14    1    6    6    0    0  0.89711986187E+01 -0.29693739436E+02  0.26656364727E+02  0.40899417438E+02  0.00000000000E+00 0. -1.
         -5    1    3    3    0  503 -0.17937366853E+02 -0.26656783621E+02  0.25898798338E+02  0.41535177837E+02  0.47000000000E+01 0.  1.
         13    1    4    4    0    0 -0.27325653451E+02 -0.22931886778E+02 -0.54312593134E+02  0.64980154976E+02  0.00000000000E+00 0. -1.
        -14    1    4    4    0    0 -0.12517510215E+02  0.55327153873E+02 -0.10603211684E+03  0.12025220089E+03  0.00000000000E+00 0.  1.
<mgrwt>
<rscale>  2 0.18314298E+03</rscale>
<asrwt>0</asrwt>
<pdfrwt beam="1">  1       21 0.46153217E-01 0.18331970E+03</pdfrwt>
<pdfrwt beam="2">  1       21 0.32877707E-01 0.18331970E+03</pdfrwt>
<totfact> 0.40245794E+04</totfact>
</mgrwt>
</event>
<event>
12    1  0.1050690E-001  0.1847991E+03  0.7546771E-02  0.1165951E+00
         21   -1    0    0  503  502  0.00000000000E+00  0.00000000000E+00  0.19514848687E+03  0.19514848687E+03  0.00000000000E+00 0. -1.
         21   -1    0    0  501  503 -0.00000000000E+00 -0.00000000000E+00 -0.18857713756E+03  0.18857713756E+03  0.00000000000E+00 0. -1.
          6    2    1    2  501    0  0.19308995819E+02  0.70410315824E+01  0.71679329382E+02  0.18779256629E+03  0.17235343991E+03 0.  0.
         24    2    3    3    0    0 -0.60703508460E+01  0.65102028006E+02  0.69256987801E+02  0.12420681096E+03  0.79722508233E+02 0.  0.
         -6    2    1    2    0  502 -0.19308995819E+02 -0.70410315824E+01 -0.65107980064E+02  0.19593305814E+03  0.18365266335E+03 0.  0.
        -24    2    5    5    0    0 -0.46031938080E+02  0.50916609972E+02 -0.33821428518E+00  0.10488133428E+03  0.79300311459E+02 0.  0.
          5    1    3    3  501    0  0.25379346665E+02 -0.58060996424E+02  0.24223415808E+01  0.63585755336E+02  0.47000000000E+01 0. -1.
        -11    1    4    4    0    0  0.45127047956E+01  0.75987538303E+02  0.29479244545E+02  0.81630241582E+02  0.00000000000E+00 0.  1.
         12    1    4    4    0    0 -0.10583055642E+02 -0.10885510297E+02  0.39777743257E+02  0.42576569375E+02  0.00000000000E+00 0. -1.
         -5    1    5    5    0  502  0.26722942260E+02 -0.57957641555E+02 -0.64769765779E+02  0.91051723853E+02  0.47000000000E+01 0.  1.
         13    1    6    6    0    0  0.15487179148E+02  0.17655664460E+02 -0.21473261994E+02  0.31822573531E+02  0.00000000000E+00 0. -1.
        -14    1    6    6    0    0 -0.61519117228E+02  0.33260945512E+02  0.21135047709E+02  0.73058760751E+02  0.00000000000E+00 0.  1.
<mgrwt>
<rscale>  2 0.18192669E+03</rscale>
<asrwt>0</asrwt>
<pdfrwt beam="1">  1       21 0.30022844E-01 0.18479912E+03</pdfrwt>
<pdfrwt beam="2">  1       21 0.29011867E-01 0.18479912E+03</pdfrwt>
<totfact> 0.12135042E+05</totfact>
</mgrwt>
</event>
<event>
12    1  0.1050690E-001  0.2049243E+03  0.7546771E-02  0.1148371E+00
         21   -1    0    0  501  502  0.00000000000E+00  0.00000000000E+00  0.76539114624E+03  0.76539114624E+03  0.00000000000E+00 0.  1.
         21   -1    0    0  502  503 -0.00000000000E+00 -0.00000000000E+00 -0.51933644809E+02  0.51933644809E+02  0.00000000000E+00 0.  1.
         -6    2    1    2    0  503 -0.23901622442E+02  0.10733931148E+03  0.32983882244E+03  0.38831381916E+03  0.17291893483E+03 0.  0.
        -24    2    3    3    0    0  0.47448313363E+02  0.30983279559E+02  0.13390762358E+03  0.16620532848E+03  0.80508716964E+02 0.  0.
          6    2    1    2  501    0  0.23901622442E+02 -0.10733931148E+03  0.38361867899E+03  0.42901097188E+03  0.15746144855E+03 0.  0.
         24    2    5    5    0    0 -0.18135065494E+02 -0.94991550379E+02  0.16327196389E+03  0.20430157023E+03  0.75690964857E+02 0.  0.
          5    1    5    5  501    0  0.42036687936E+02 -0.12347761105E+02  0.22034671510E+03  0.22470940165E+03  0.47000000000E+01 0. -1.
        -11    1    6    6    0    0 -0.37860354325E+02 -0.33381847345E+02  0.10800508173E+03  0.11921766581E+03  0.00000000000E+00 0.  1.
         12    1    6    6    0    0  0.19725288831E+02 -0.61609703034E+02  0.55266882168E+02  0.85083904424E+02  0.00000000000E+00 0. -1.
         -5    1    3    3    0  503 -0.71349935806E+02  0.76356031925E+02  0.19593119885E+03  0.22210849068E+03  0.47000000000E+01 0.  1.
         13    1    4    4    0    0  0.13032625798E+02 -0.23141954817E+02  0.73286042948E+02  0.77950262982E+02  0.00000000000E+00 0. -1.
        -14    1    4    4    0    0  0.34415687566E+02  0.54125234376E+02  0.60621580636E+02  0.88255065496E+02  0.00000000000E+00 0.  1.
<mgrwt>
<rscale>  2 0.20162968E+03</rscale>
<asrwt>0</asrwt>
<pdfrwt beam="1">  1       21 0.11775248E+00 0.20492431E+03</pdfrwt>
<pdfrwt beam="2">  1       21 0.79897921E-02 0.20492431E+03</pdfrwt>
<totfact> 0.66145911E+04</totfact>
</mgrwt>
</event>
<event>
12    1  0.1050690E-001  0.2386537E+03  0.7546771E-02  0.1120710E+00
         21   -1    0    0  503  502  0.00000000000E+00  0.00000000000E+00  0.13766815857E+03  0.13766815857E+03  0.00000000000E+00 0.  1.
         21   -1    0    0  501  503 -0.00000000000E+00 -0.00000000000E+00 -0.45435760752E+03  0.45435760752E+03  0.00000000000E+00 0.  1.
          6    2    1    2  501    0  0.16857442263E+02  0.16454255216E+03 -0.69649675305E+02  0.24860946172E+03  0.17203825841E+03 0.  0.
         24    2    3    3    0    0 -0.31407759311E+02  0.16766234306E+03 -0.42089560798E+02  0.19274433226E+03  0.79257415184E+02 0.  0.
         -6    2    1    2    0  502 -0.16857442263E+02 -0.16454255216E+03 -0.24703977364E+03  0.34341630437E+03  0.17189439641E+03 0.  0.
        -24    2    5    5    0    0 -0.59384074712E+02 -0.13692432561E+03 -0.23689136589E+03  0.29148980742E+03  0.81080511379E+02 0.  0.
          5    1    3    3  501    0  0.48265201574E+02 -0.31197909060E+01 -0.27560114507E+02  0.55865129463E+02  0.47000000000E+01 0. -1.
        -11    1    4    4    0    0 -0.33769431422E+02  0.16752230725E+03 -0.21753414148E+02  0.17227103341E+03  0.00000000000E+00 0.  1.
         12    1    4    4    0    0  0.23616721113E+01  0.14003581753E+00 -0.20336146650E+02  0.20473298849E+02  0.00000000000E+00 0. -1.
         -5    1    5    5    0  502  0.42526632450E+02 -0.27618226546E+02 -0.10148407750E+02  0.51926496944E+02  0.47000000000E+01 0.  1.
         11    1    6    6    0    0 -0.67495737870E+02 -0.71953119835E+02 -0.10402879656E+03  0.14336985945E+03  0.00000000000E+00 0. -1.
        -12    1    6    6    0    0  0.81116631578E+01 -0.64971205777E+02 -0.13286256933E+03  0.14811994798E+03  0.00000000000E+00 0.  1.
<mgrwt>
<rscale>  2 0.23862777E+03</rscale>
<asrwt>0</asrwt>
<pdfrwt beam="1">  1       21 0.21179717E-01 0.23865370E+03</pdfrwt>
<pdfrwt beam="2">  1       21 0.69901168E-01 0.23865370E+03</pdfrwt>
<totfact> 0.37673371E+04</totfact>
</mgrwt>
</event>
<event>
12    1  0.1050690E-001  0.2142285E+03  0.7546771E-02  0.1138617E+00
         21   -1    0    0  501  502  0.00000000000E+00  0.00000000000E+00  0.16431982981E+03  0.16431982981E+03  0.00000000000E+00 0. -1.
         21   -1    0    0  502  503 -0.00000000000E+00 -0.00000000000E+00 -0.28677669069E+03  0.28677669069E+03  0.00000000000E+00 0. -1.
         -6    2    1    2    0  503 -0.64682916781E+02 -0.10608521402E+03 -0.19634315430E+02  0.21512635139E+03  0.17451615502E+03 0.  0.
        -24    2    3    3    0    0  0.18010448121E+02 -0.68930884430E+02  0.27111009720E+02  0.11301928880E+03  0.83441654610E+02 0.  0.
          6    2    1    2  501    0  0.64682916781E+02  0.10608521402E+03 -0.10282254545E+03  0.23597016911E+03  0.17225415089E+03 0.  0.
         24    2    5    5    0    0  0.58030144896E+02  0.14236300756E+03 -0.72836152873E+02  0.18820395283E+03  0.80504031306E+02 0.  0.
          5    1    5    5  501    0  0.66527718849E+01 -0.36277793540E+02 -0.29986392576E+02  0.47766216279E+02  0.47000000000E+01 0. -1.
        -11    1    6    6    0    0  0.52160115724E+01 -0.77924092101E+01  0.54237449003E+01  0.10832609416E+02  0.00000000000E+00 0.  1.
         12    1    6    6    0    0  0.52814133324E+02  0.15015541677E+03 -0.78259897773E+02  0.17737134341E+03  0.00000000000E+00 0. -1.
         -5    1    3    3    0  503 -0.82693364902E+02 -0.37154329594E+02 -0.46745325150E+02  0.10210706258E+03  0.47000000000E+01 0.  1.
         11    1    4    4    0    0 -0.13129938110E+02 -0.35603111783E+02  0.49367676626E+02  0.62266719352E+02  0.00000000000E+00 0. -1.
        -12    1    4    4    0    0  0.31140386231E+02 -0.33327772647E+02 -0.22256666906E+02  0.50752569453E+02  0.00000000000E+00 0.  1.
<mgrwt>
<rscale>  2 0.21376733E+03</rscale>
<asrwt>0</asrwt>
<pdfrwt beam="1">  1       21 0.25279974E-01 0.21422848E+03</pdfrwt>
<pdfrwt beam="2">  1       21 0.44119491E-01 0.21422848E+03</pdfrwt>
<totfact> 0.72486472E+04</totfact>
</mgrwt>
</event>
<event>
12    1  0.1050690E-001  0.2030994E+03  0.7546771E-02  0.1147279E+00
         21   -1    0    0  501  502  0.00000000000E+00  0.00000000000E+00  0.13447107204E+02  0.13447107204E+02  0.00000000000E+00 0.  1.
         21   -1    0    0  502  503 -0.00000000000E+00 -0.00000000000E+00 -0.31419855752E+04  0.31419855752E+04  0.00000000000E+00 0.  1.
         -6    2    1    2    0  503 -0.10431354981E+03  0.13383630378E+02 -0.13088518609E+04  0.13245159711E+04  0.17374960649E+03 0.  0.
        -24    2    3    3    0    0 -0.16754798222E+01 -0.30224939659E+02 -0.59202872768E+03  0.59905489353E+03  0.86327265982E+02 0.  0.
          6    2    1    2  501    0  0.10431354981E+03 -0.13383630378E+02 -0.18196866071E+04  0.18309167112E+04  0.17302085814E+03 0.  0.
         24    2    5    5    0    0  0.76949884583E+01  0.40187589884E+02 -0.69760393512E+03  0.70339880242E+03  0.80276831820E+02 0.  0.
          5    1    5    5  501    0  0.96618561352E+02 -0.53571220262E+02 -0.11220826720E+04  0.11275179088E+04  0.47000000000E+01 0. -1.
        -11    1    6    6    0    0  0.42411033723E+02  0.19938933634E+02 -0.28329069451E+03  0.28714086169E+03  0.00000000000E+00 0.  1.
         12    1    6    6    0    0 -0.34716045265E+02  0.20248656250E+02 -0.41431324060E+03  0.41625794072E+03  0.00000000000E+00 0. -1.
         -5    1    3    3    0  503 -0.10263806999E+03  0.43608570038E+02 -0.71682313320E+03  0.72546107758E+03  0.47000000000E+01 0.  1.
         11    1    4    4    0    0  0.16842387939E+02 -0.14945580689E+02 -0.35698287817E+02  0.42206683911E+02  0.00000000000E+00 0. -1.
        -12    1    4    4    0    0 -0.18517867761E+02 -0.15279358970E+02 -0.55633043986E+03  0.55684820962E+03  0.00000000000E+00 0.  1.
<mgrwt>
<rscale>  2 0.20294344E+03</rscale>
<asrwt>0</asrwt>
<pdfrwt beam="1">  1       21 0.20687866E-02 0.20309939E+03</pdfrwt>
<pdfrwt beam="2">  1       21 0.48338220E+00 0.20309939E+03</pdfrwt>
<totfact> 0.28377187E+03</totfact>
</mgrwt>
</event>
<event>
12    1  0.1050690E-001  0.2269891E+03  0.7546771E-02  0.1128796E+00
         21   -1    0    0  503  502  0.00000000000E+00  0.00000000000E+00  0.14956510970E+04  0.14956510970E+04  0.00000000000E+00 0. -1.
         21   -1    0    0  501  503 -0.00000000000E+00 -0.00000000000E+00 -0.45444656124E+02  0.45444656124E+02  0.00000000000E+00 0. -1.
          6    2    1    2  501    0 -0.71401449522E+02 -0.12679854121E+03  0.11042745458E+04  0.11273410966E+04  0.17406791361E+03 0.  0.
         24    2    3    3    0    0 -0.10445797605E+03 -0.13362599658E+03  0.10082007459E+04  0.10254018347E+04  0.78821334842E+02 0.  0.
         -6    2    1    2    0  502  0.71401449522E+02  0.12679854121E+03  0.34593189507E+03  0.41375465651E+03  0.17420678147E+03 0.  0.
        -24    2    5    5    0    0  0.52802051590E+02  0.74527007427E+02  0.33579282796E+03  0.35715835337E+03  0.80392378897E+02 0.  0.
          5    1    3    3  501    0  0.33056526528E+02  0.68274553656E+01  0.96073799844E+02  0.10193926186E+03  0.47000000000E+01 0. -1.
        -13    1    4    4    0    0 -0.64272010329E+02 -0.62390847514E+02  0.72856289404E+03  0.73404863581E+03  0.00000000000E+00 0.  1.
         14    1    4    4    0    0 -0.40185965721E+02 -0.71235149062E+02  0.27963785189E+03  0.29135319891E+03  0.00000000000E+00 0. -1.
         -5    1    5    5    0  502  0.18599397932E+02  0.52271533784E+02  0.10139067112E+02  0.56596303143E+02  0.47000000000E+01 0.  1.
         13    1    6    6    0    0  0.48913944925E+02  0.84432404549E+02  0.21747184489E+03  0.23835982938E+03  0.00000000000E+00 0. -1.
        -14    1    6    6    0    0  0.38881066656E+01 -0.99053971226E+01  0.11832098307E+03  0.11879852399E+03  0.00000000000E+00 0.  1.
<mgrwt>
<rscale>  2 0.22696243E+03</rscale>
<asrwt>0</asrwt>
<pdfrwt beam="1">  1       21 0.23010013E+00 0.22698907E+03</pdfrwt>
<pdfrwt beam="2">  1       21 0.69914867E-02 0.22698907E+03</pdfrwt>
<totfact> 0.12866261E+04</totfact>
</mgrwt>
</event>
<event>
12    1  0.1050690E-001  0.1928141E+03  0.7546771E-02  0.1156861E+00
         21   -1    0    0  503  502  0.00000000000E+00  0.00000000000E+00  0.31975569230E+03  0.31975569230E+03  0.00000000000E+00 0.  1.
         21   -1    0    0  501  503 -0.00000000000E+00 -0.00000000000E+00 -0.11835000739E+03  0.11835000739E+03  0.00000000000E+00 0.  1.
          6    2    1    2  501    0 -0.50693247678E+02  0.52389535563E+02  0.56803054506E+02  0.19709284392E+03  0.17408197301E+03 0.  0.
         24    2    3    3    0    0 -0.76422178629E+02 -0.82029425431E+00 -0.12086680819E+01  0.11414277560E+03  0.84770809090E+02 0.  0.
         -6    2    1    2    0  502  0.50693247678E+02 -0.52389535563E+02  0.14460263040E+03  0.24101285577E+03  0.17850156059E+03 0.  0.
        -24    2    5    5    0    0  0.91849629658E+02 -0.74799979852E+02  0.12462742130E+03  0.18985452537E+03  0.80506864362E+02 0.  0.
          5    1    3    3  501    0  0.25728930951E+02  0.53209829817E+02  0.58011722588E+02  0.82950068322E+02  0.47000000000E+01 0. -1.
        -13    1    4    4    0    0 -0.38713277474E+02  0.41346609472E+02  0.66513712524E+01  0.57030699690E+02  0.00000000000E+00 0.  1.
         14    1    4    4    0    0 -0.37708901155E+02 -0.42166903727E+02 -0.78600393343E+01  0.57112075908E+02  0.00000000000E+00 0. -1.
         -5    1    5    5    0  502 -0.41156381980E+02  0.22410444289E+02  0.19975209100E+02  0.51158330402E+02  0.47000000000E+01 0.  1.
         13    1    6    6    0    0  0.14874535914E+02 -0.95183796289E+01 -0.10991254833E+02  0.20800457981E+02  0.00000000000E+00 0. -1.
        -14    1    6    6    0    0  0.76975093745E+02 -0.65281600223E+02  0.13561867613E+03  0.16905406739E+03  0.00000000000E+00 0.  1.
<mgrwt>
<rscale>  2 0.19178485E+03</rscale>
<asrwt>0</asrwt>
<pdfrwt beam="1">  1       21 0.49193183E-01 0.19281410E+03</pdfrwt>
<pdfrwt beam="2">  1       21 0.18207694E-01 0.19281410E+03</pdfrwt>
<totfact> 0.10834379E+05</totfact>
</mgrwt>
</event>
<event>
12    1  0.1050690E-001  0.1978792E+03  0.7546771E-02  0.1152254E+00
         21   -1    0    0  503  502  0.00000000000E+00  0.00000000000E+00  0.15613122215E+04  0.15613122215E+04  0.00000000000E+00 0. -1.
         21   -1    0    0  501  503 -0.00000000000E+00 -0.00000000000E+00 -0.27741658182E+02  0.27741658182E+02  0.00000000000E+00 0. -1.
          6    2    1    2  501    0 -0.84408099518E+02  0.26233670776E+02  0.50781268563E+03  0.54500449282E+03  0.17704022355E+03 0.  0.
         24    2    3    3    0    0 -0.89121432844E+02 -0.27769665352E+01  0.50007189428E+03  0.51424994130E+03  0.80192027905E+02 0.  0.
         -6    2    1    2    0  502  0.84408099518E+02 -0.26233670776E+02  0.10257578777E+04  0.10440493869E+04  0.17334060642E+03 0.  0.
        -24    2    5    5    0    0  0.72382698115E+02 -0.82416242623E+02  0.64308507088E+03  0.65705887183E+03  0.78334287697E+02 0.  0.
          5    1    3    3  501    0  0.47133333263E+01  0.29010637311E+02  0.77407913485E+01  0.30754551516E+02  0.47000000000E+01 0. -1.
        -13    1    4    4    0    0  0.14479492830E+02 -0.71701181527E+01  0.73617622139E+02  0.75369891843E+02  0.00000000000E+00 0.  1.
         14    1    4    4    0    0 -0.10360092567E+03  0.43931516175E+01  0.42645427215E+03  0.43888004946E+03  0.00000000000E+00 0. -1.
         -5    1    5    5    0  502  0.12025401403E+02  0.56182571847E+02  0.38267280681E+03  0.38699051504E+03  0.47000000000E+01 0.  1.
         11    1    6    6    0    0  0.85267380032E+02 -0.50132896438E+02  0.43621814126E+03  0.44729196300E+03  0.00000000000E+00 0. -1.
        -12    1    6    6    0    0 -0.12884681917E+02 -0.32283346184E+02  0.20686692962E+03  0.20976690883E+03  0.00000000000E+00 0.  1.
<mgrwt>
<rscale>  2 0.19704822E+03</rscale>
<asrwt>0</asrwt>
<pdfrwt beam="1">  1       21 0.24020181E+00 0.19787919E+03</pdfrwt>
<pdfrwt beam="2">  1       21 0.42679486E-02 0.19787919E+03</pdfrwt>
<totfact> 0.26587227E+04</totfact>
</mgrwt>
</event>
<event>
12    1  0.1050690E-001  0.2070185E+03  0.7546771E-02  0.1144846E+00
         21   -1    0    0  503  502  0.00000000000E+00  0.00000000000E+00  0.11231142746E+03  0.11231142746E+03  0.00000000000E+00 0.  1.
         21   -1    0    0  501  503 -0.00000000000E+00 -0.00000000000E+00 -0.37984334019E+03  0.37984334019E+03  0.00000000000E+00 0. -1.
          6    2    1    2  501    0 -0.98618582557E+02  0.40655290115E+02 -0.16407693186E+03  0.26072527080E+03  0.17227289347E+03 0.  0.
         24    2    3    3    0    0 -0.86612050127E+02  0.61023880752E+02 -0.18558070990E+03  0.22842142002E+03  0.80688189897E+02 0.  0.
         -6    2    1    2    0  502  0.98618582557E+02 -0.40655290115E+02 -0.10345498086E+03  0.23142949685E+03  0.17742097257E+03 0.  0.
        -24    2    5    5    0    0  0.13051385859E+03 -0.49091172190E+02 -0.48789734442E+02  0.16740722022E+03  0.78745975918E+02 0.  0.
          5    1    3    3  501    0 -0.12006532430E+02 -0.20368590637E+02  0.21503778033E+02  0.32303850780E+02  0.47000000000E+01 0. -1.
        -13    1    4    4    0    0 -0.27225839280E+02 -0.18250518266E+02 -0.33017837134E+02  0.46524244330E+02  0.00000000000E+00 0.  1.
         14    1    4    4    0    0 -0.59386210847E+02  0.79274399017E+02 -0.15256287276E+03  0.18189717569E+03  0.00000000000E+00 0. -1.
         -5    1    5    5    0  502 -0.31895276029E+02  0.84358820745E+01 -0.54665246420E+02  0.64022276635E+02  0.47000000000E+01 0.  1.
         13    1    6    6    0    0  0.10687897118E+03 -0.47908488436E+02 -0.69300171265E+02  0.13609133508E+03  0.00000000000E+00 0. -1.
        -14    1    6    6    0    0  0.23634887402E+02 -0.11826837540E+01  0.20510436823E+02  0.31315885139E+02  0.00000000000E+00 0.  1.
<mgrwt>
<rscale>  2 0.20591102E+03</rscale>
<asrwt>0</asrwt>
<pdfrwt beam="1">  1       21 0.17278681E-01 0.20701855E+03</pdfrwt>
<pdfrwt beam="2">  1       21 0.58437436E-01 0.20701855E+03</pdfrwt>
<totfact> 0.82506809E+04</totfact>
</mgrwt>
</event>
<event>
12    1  0.1050690E-001  0.1819675E+03  0.7546771E-02  0.1165960E+00
         21   -1    0    0  501  502  0.00000000000E+00  0.00000000000E+00  0.60286289554E+02  0.60286289554E+02  0.00000000000E+00 0. -1.
         21   -1    0    0  502  503 -0.00000000000E+00 -0.00000000000E+00 -0.55017990051E+03  0.55017990051E+03  0.00000000000E+00 0. -1.
         -6    2    1    2    0  503  0.50965882946E+02 -0.27739853314E+01 -0.22897915257E+03  0.29247843931E+03  0.17466244282E+03 0.  0.
        -24    2    3    3    0    0  0.84063120594E+02  0.43311478352E+02 -0.16314449273E+03  0.20544057663E+03  0.81530439833E+02 0.  0.
          6    2    1    2  501    0 -0.50965882946E+02  0.27739853314E+01 -0.26091445839E+03  0.31798775075E+03  0.17445526308E+03 0.  0.
         24    2    5    5    0    0  0.11549944098E+02  0.73717392628E+01 -0.23724737888E+03  0.25081939046E+03  0.80226579735E+02 0.  0.
          5    1    5    5  501    0 -0.62515827044E+02 -0.45977539314E+01 -0.23667079503E+02  0.67168360292E+02  0.47000000000E+01 0. -1.
        -13    1    6    6    0    0 -0.25243346404E+02 -0.51325052832E+01 -0.17871341905E+03  0.18056039238E+03  0.00000000000E+00 0.  1.
         14    1    6    6    0    0  0.36793290502E+02  0.12504244546E+02 -0.58533959837E+02  0.70258998084E+02  0.00000000000E+00 0. -1.
         -5    1    3    3    0  503 -0.33097237648E+02 -0.46085463683E+02 -0.65834659842E+02  0.87037862677E+02  0.47000000000E+01 0.  1.
         13    1    4    4    0    0  0.57512249515E+01  0.43938980683E+02 -0.41156921088E+02  0.60478118070E+02  0.00000000000E+00 0. -1.
        -14    1    4    4    0    0  0.78311895642E+02 -0.62750233131E+00 -0.12198757164E+03  0.14496245856E+03  0.00000000000E+00 0.  1.
<mgrwt>
<rscale>  2 0.18191781E+03</rscale>
<asrwt>0</asrwt>
<pdfrwt beam="1">  1       21 0.92748140E-02 0.18196754E+03</pdfrwt>
<pdfrwt beam="2">  1       21 0.84643060E-01 0.18196754E+03</pdfrwt>
<totfact> 0.11255780E+05</totfact>
</mgrwt>
</event>
<event>
12    1  0.1050690E-001  0.1962258E+03  0.7546771E-02  0.1153181E+00
         21   -1    0    0  501  502  0.00000000000E+00  0.00000000000E+00  0.66459017460E+02  0.66459017460E+02  0.00000000000E+00 0.  1.
         21   -1    0    0  502  503 -0.00000000000E+00 -0.00000000000E+00 -0.64292792853E+03  0.64292792853E+03  0.00000000000E+00 0.  1.
         -6    2    1    2    0  503  0.74994389366E+02  0.50451462575E+02 -0.40165934325E+03  0.44658864328E+03  0.17303664286E+03 0.  0.
        -24    2    3    3    0    0  0.85918245834E+02 -0.21178986007E+02 -0.20133096103E+03  0.23350696287E+03  0.78491091357E+02 0.  0.
          6    2    1    2  501    0 -0.74994389366E+02 -0.50451462575E+02 -0.17480956782E+03  0.26279830271E+03  0.17416961387E+03 0.  0.
         24    2    5    5    0    0 -0.99395948150E+02  0.12582036568E+02 -0.11460426089E+03  0.17215930962E+03  0.80416597314E+02 0.  0.
          5    1    5    5  501    0  0.24401558784E+02 -0.63033499143E+02 -0.60205306930E+02  0.90638993087E+02  0.47000000000E+01 0. -1.
        -11    1    6    6    0    0 -0.10693854624E+03 -0.73169897247E+01 -0.95923928502E+02  0.14384293889E+03  0.00000000000E+00 0.  1.
         12    1    6    6    0    0  0.75425980878E+01  0.19899026293E+02 -0.18680332388E+02  0.28316370732E+02  0.00000000000E+00 0. -1.
         -5    1    3    3    0  503 -0.10923856468E+02  0.71630448583E+02 -0.20032838221E+03  0.21308168041E+03  0.47000000000E+01 0.  1.
         13    1    4    4    0    0  0.71848366564E+01 -0.20011875599E+02 -0.48129883480E+01  0.21800502279E+02  0.00000000000E+00 0. -1.
        -14    1    4    4    0    0  0.78733409178E+02 -0.11671104081E+01 -0.19651797268E+03  0.21170646059E+03  0.00000000000E+00 0.  1.
<mgrwt>
<rscale>  2 0.19597408E+03</rscale>
<asrwt>0</asrwt>
<pdfrwt beam="1">  1       21 0.10224465E-01 0.19622580E+03</pdfrwt>
<pdfrwt beam="2">  1       21 0.98911986E-01 0.19622580E+03</pdfrwt>
<totfact> 0.65621476E+04</totfact>
</mgrwt>
</event>
<event>
12    1  0.1050690E-001  0.2100970E+03  0.7546771E-02  0.1142023E+00
         21   -1    0    0  503  502  0.00000000000E+00  0.00000000000E+00  0.50273722892E+03  0.50273722892E+03  0.00000000000E+00 0. -1.
         21   -1    0    0  501  503 -0.00000000000E+00 -0.00000000000E+00 -0.11868683637E+03  0.11868683637E+03  0.00000000000E+00 0. -1.
          6    2    1    2  501    0 -0.45127844637E+02  0.10871905958E+03  0.29787010672E+02  0.20954632116E+03  0.17078067347E+03 0.  0.
         24    2    3    3    0    0 -0.75397644779E+02  0.20292987732E+02  0.29288059254E+02  0.11596336366E+03  0.80579781005E+02 0.  0.
         -6    2    1    2    0  502  0.45127844637E+02 -0.10871905958E+03  0.35426338188E+03  0.41187774413E+03  0.17402406757E+03 0.  0.
        -24    2    5    5    0    0  0.81835993486E+02 -0.57940895508E+02  0.30845189876E+03  0.33411726494E+03  0.80234005780E+02 0.  0.
          5    1    3    3  501    0  0.30269800142E+02  0.88426071844E+02  0.49895141756E+00  0.93582957502E+02  0.47000000000E+01 0. -1.
        -11    1    4    4    0    0 -0.96342141704E+01 -0.21155017531E+02 -0.13852110649E+02  0.27059819269E+02  0.00000000000E+00 0.  1.
         12    1    4    4    0    0 -0.65763430608E+02  0.41448005263E+02  0.43140169903E+02  0.88903544389E+02  0.00000000000E+00 0. -1.
         -5    1    5    5    0  502 -0.36708148849E+02 -0.50778164067E+02  0.45811483123E+02  0.77760479190E+02  0.47000000000E+01 0.  1.
         13    1    6    6    0    0  0.31415362081E+02 -0.67861947254E+02  0.15119955424E+03  0.16868157594E+03  0.00000000000E+00 0. -1.
        -14    1    6    6    0    0  0.50420631405E+02  0.99210517456E+01  0.15725234452E+03  0.16543568900E+03  0.00000000000E+00 0.  1.
<mgrwt>
<rscale>  2 0.20942410E+03</rscale>
<asrwt>0</asrwt>
<pdfrwt beam="1">  1       21 0.77344188E-01 0.21009696E+03</pdfrwt>
<pdfrwt beam="2">  1       21 0.18259514E-01 0.21009696E+03</pdfrwt>
<totfact> 0.40211108E+04</totfact>
</mgrwt>
</event>
<event>
12    1  0.1050690E-001  0.3198746E+03  0.7546771E-02  0.1075779E+00
         21   -1    0    0  503  502  0.00000000000E+00  0.00000000000E+00  0.12051804626E+04  0.12051804626E+04  0.00000000000E+00 0.  1.
         21   -1    0    0  501  503 -0.00000000000E+00 -0.00000000000E+00 -0.11524674915E+03  0.11524674915E+03  0.00000000000E+00 0. -1.
          6    2    1    2  501    0  0.26118592684E+03 -0.65233697536E+02  0.20486621685E+03  0.37932986630E+03  0.17160261356E+03 0.  0.
         24    2    3    3    0    0  0.16382398856E+03 -0.33460322973E+02  0.20649074271E+03  0.27679390460E+03  0.77579290788E+02 0.  0.
         -6    2    1    2    0  502 -0.26118592684E+03  0.65233697536E+02  0.88506749657E+03  0.94109734543E+03  0.17276057538E+03 0.  0.
        -24    2    5    5    0    0 -0.93522201586E+02  0.75470276891E+02  0.51356898017E+03  0.53336072699E+03  0.79236373098E+02 0.  0.
          5    1    3    3  501    0  0.97361938279E+02 -0.31773374564E+02 -0.16245258517E+01  0.10253596170E+03  0.47000000000E+01 0. -1.
        -11    1    4    4    0    0  0.26621586946E+02 -0.38760564429E+02  0.52623531087E+02  0.70571426728E+02  0.00000000000E+00 0.  1.
         12    1    4    4    0    0  0.13720240162E+03  0.53002414559E+01  0.15386721162E+03  0.20622247787E+03  0.00000000000E+00 0. -1.
         -5    1    5    5    0  502 -0.16766372525E+03 -0.10236579354E+02  0.37149851640E+03  0.40773661844E+03  0.47000000000E+01 0.  1.
         11    1    6    6    0    0  0.10330039551E+02 -0.48738885721E+01  0.25555644958E+02  0.27992061306E+02  0.00000000000E+00 0. -1.
        -12    1    6    6    0    0 -0.10385224114E+03  0.80344165463E+02  0.48801333521E+03  0.50536866569E+03  0.00000000000E+00 0.  1.
<mgrwt>
<rscale>  2 0.31971848E+03</rscale>
<asrwt>0</asrwt>
<pdfrwt beam="1">  1       21 0.18541237E+00 0.31987457E+03</pdfrwt>
<pdfrwt beam="2">  1       21 0.17730270E-01 0.31987457E+03</pdfrwt>
<totfact> 0.44122031E+03</totfact>
</mgrwt>
</event>
<event>
12    1  0.1050690E-001  0.1948610E+03  0.7546771E-02  0.1154406E+00
         21   -1    0    0  503  502  0.00000000000E+00  0.00000000000E+00  0.20893134478E+03  0.20893134478E+03  0.00000000000E+00 0.  1.
         21   -1    0    0  501  503 -0.00000000000E+00 -0.00000000000E+00 -0.19776104981E+03  0.19776104981E+03  0.00000000000E+00 0.  1.
          6    2    1    2  501    0 -0.22544025901E+01  0.89819719809E+02 -0.54222012151E+02  0.20226431162E+03  0.17291084627E+03 0.  0.
         24    2    3    3    0    0  0.50548452560E+02  0.84587400606E+02 -0.72234932267E+02  0.14603199025E+03  0.79983012812E+02 0.  0.
         -6    2    1    2    0  502  0.22544025901E+01 -0.89819719809E+02  0.65392307112E+02  0.20442808297E+03  0.17158677944E+03 0.  0.
        -24    2    5    5    0    0 -0.34112901401E+02 -0.72135193637E+01 -0.14917882495E+02  0.83522410204E+02  0.74415891344E+02 0.  0.
          5    1    3    3  501    0 -0.52802855150E+02  0.52323192030E+01  0.18012920117E+02  0.56232321377E+02  0.47000000000E+01 0. -1.
        -13    1    4    4    0    0  0.75650497049E+01  0.76734191572E+02 -0.66767387889E+02  0.10199632454E+03  0.00000000000E+00 0.  1.
         14    1    4    4    0    0  0.42983402855E+02  0.78532090334E+01 -0.54675443784E+01  0.44035665712E+02  0.00000000000E+00 0. -1.
         -5    1    5    5    0  502  0.36367303991E+02 -0.82606200445E+02  0.80310189607E+02  0.12090567276E+03  0.47000000000E+01 0.  1.
         13    1    6    6    0    0 -0.31431076020E+02 -0.36434119031E+02  0.45120674239E+01  0.48329249133E+02  0.00000000000E+00 0. -1.
        -14    1    6    6    0    0 -0.26818253809E+01  0.29220599667E+02 -0.19429949919E+02  0.35193161071E+02  0.00000000000E+00 0.  1.
<mgrwt>
<rscale>  2 0.19456689E+03</rscale>
<asrwt>0</asrwt>
<pdfrwt beam="1">  1       21 0.32143284E-01 0.19486104E+03</pdfrwt>
<pdfrwt beam="2">  1       21 0.30424777E-01 0.19486104E+03</pdfrwt>
<totfact> 0.96446145E+04</totfact>
</mgrwt>
</event>
<event>
12    1  0.1050690E-001  0.2220260E+03  0.7546771E-02  0.1132494E+00
         21   -1    0    0  501  502  0.00000000000E+00  0.00000000000E+00  0.32627205370E+03  0.32627205370E+03  0.00000000000E+00 0.  1.
         21   -1    0    0  502  503 -0.00000000000E+00 -0.00000000000E+00 -0.15401627698E+03  0.15401627698E+03  0.00000000000E+00 0. -1.
         -6    2    1    2    0  503  0.81044788825E+02  0.10733518927E+03  0.50633327735E+02  0.22713314396E+03  0.17588811943E+03 0.  0.
        -24    2    3    3    0    0 -0.15603892404E+02  0.89220367660E+02  0.18581146134E+02  0.12360272963E+03  0.82028167833E+02 0.  0.
          6    2    1    2  501    0 -0.81044788825E+02 -0.10733518927E+03  0.12162244899E+03  0.25315518672E+03  0.17665341155E+03 0.  0.
         24    2    5    5    0    0 -0.88527715837E+02 -0.14148450551E+03  0.88652643527E+02  0.20487197981E+03  0.79108881528E+02 0.  0.
          5    1    5    5  501    0  0.74829270120E+01  0.34149316245E+02  0.32969805466E+02  0.48283206906E+02  0.47000000000E+01 0. -1.
        -13    1    6    6    0    0 -0.86308004007E+01 -0.46814754991E+02  0.61985493364E+02  0.78155699652E+02  0.00000000000E+00 0.  1.
         14    1    6    6    0    0 -0.79896915437E+02 -0.94669750521E+02  0.26667150162E+02  0.12671628016E+03  0.00000000000E+00 0. -1.
         -5    1    3    3    0  503  0.96648681230E+02  0.18114821608E+02  0.32052181601E+02  0.10353041433E+03  0.47000000000E+01 0.  1.
         13    1    4    4    0    0 -0.44546826695E+02  0.28704937532E+02 -0.31557917863E+01  0.53088155262E+02  0.00000000000E+00 0. -1.
        -14    1    4    4    0    0  0.28942934291E+02  0.60515430127E+02  0.21736937920E+02  0.70514574373E+02  0.00000000000E+00 0.  1.
<mgrwt>
<rscale>  2 0.22187370E+03</rscale>
<asrwt>0</asrwt>
<pdfrwt beam="1">  1       21 0.50195700E-01 0.22202596E+03</pdfrwt>
<pdfrwt beam="2">  1       21 0.23694812E-01 0.22202596E+03</pdfrwt>
<totfact> 0.62573750E+04</totfact>
</mgrwt>
</event>
<event>
12    1  0.1050690E-001  0.2242261E+03  0.7546771E-02  0.1130959E+00
         21   -1    0    0  503  502  0.00000000000E+00  0.00000000000E+00  0.33600070331E+03  0.33600070331E+03  0.00000000000E+00 0. -1.
         21   -1    0    0  501  503 -0.00000000000E+00 -0.00000000000E+00 -0.20102300494E+03  0.20102300494E+03  0.00000000000E+00 0.  1.
          6    2    1    2  501    0 -0.79237484190E+02 -0.11798965350E+03 -0.69289797985E+02  0.23370447604E+03  0.17209465065E+03 0.  0.
         24    2    3    3    0    0 -0.47855745633E+02 -0.74396258641E+02 -0.11382254462E+03  0.16377270134E+03  0.77723550806E+02 0.  0.
         -6    2    1    2    0  502  0.79237484190E+02  0.11798965350E+03  0.20426749636E+03  0.30331923221E+03  0.17342782167E+03 0.  0.
        -24    2    5    5    0    0  0.26564462680E+02  0.91229904064E+02  0.20954844796E+03  0.24381704877E+03  0.80669914786E+02 0.  0.
          5    1    3    3  501    0 -0.31381738556E+02 -0.43593394861E+02  0.44532746633E+02  0.69931774702E+02  0.47000000000E+01 0. -1.
        -11    1    4    4    0    0  0.56956463383E+01  0.96771999407E+01 -0.34808190914E+02  0.36574564120E+02  0.00000000000E+00 0.  1.
         12    1    4    4    0    0 -0.53551391972E+02 -0.84073458582E+02 -0.79014353704E+02  0.12719813722E+03  0.00000000000E+00 0. -1.
         -5    1    5    5    0  502  0.52673021510E+02  0.26759749439E+02 -0.52809516081E+01  0.59502183446E+02  0.47000000000E+01 0.  1.
         11    1    6    6    0    0  0.38089694337E+02  0.23409576459E+02  0.13577343423E+03  0.14294494929E+03  0.00000000000E+00 0. -1.
        -12    1    6    6    0    0 -0.11525231658E+02  0.67820327605E+02  0.73775013732E+02  0.10087209947E+03  0.00000000000E+00 0.  1.
<mgrwt>
<rscale>  2 0.22396828E+03</rscale>
<asrwt>0</asrwt>
<pdfrwt beam="1">  1       21 0.51692416E-01 0.22422611E+03</pdfrwt>
<pdfrwt beam="2">  1       21 0.30926616E-01 0.22422611E+03</pdfrwt>
<totfact> 0.35119592E+04</totfact>
</mgrwt>
</event>
<event>
12    1  0.1050690E-001  0.2607580E+03  0.7546771E-02  0.1106736E+00
         21   -1    0    0  501  502  0.00000000000E+00  0.00000000000E+00  0.15183721003E+03  0.15183721003E+03  0.00000000000E+00 0.  1.
         21   -1    0    0  502  503 -0.00000000000E+00 -0.00000000000E+00 -0.68421896620E+03  0.68421896620E+03  0.00000000000E+00 0. -1.
         -6    2    1    2    0  503  0.56075734764E+02 -0.18654345169E+03 -0.51229798587E+03  0.57484255668E+03  0.17335452474E+03 0.  0.
        -24    2    3    3    0    0  0.91576805421E+02 -0.17823381666E+03 -0.37550417632E+03  0.43319506329E+03  0.80628603694E+02 0.  0.
          6    2    1    2  501    0 -0.56075734764E+02  0.18654345169E+03 -0.20083770300E+02  0.26121361955E+03  0.17287640039E+03 0.  0.
         24    2    5    5    0    0 -0.19376901116E+01  0.12969806556E+03  0.44687589656E+02  0.15933258661E+03  0.81021908353E+02 0.  0.
          5    1    5    5  501    0 -0.54138044652E+02  0.56845386126E+02 -0.64771359955E+02  0.10188103294E+03  0.47000000000E+01 0. -1.
        -13    1    6    6    0    0  0.13883714067E+02  0.90626393638E+02 -0.77983870557E+01  0.92014757408E+02  0.00000000000E+00 0.  1.
         14    1    6    6    0    0 -0.15821404179E+02  0.39071671922E+02  0.52485976711E+02  0.67317829201E+02  0.00000000000E+00 0. -1.
         -5    1    3    3    0  503 -0.35501070657E+02 -0.83096350227E+01 -0.13679380956E+03  0.14164749339E+03  0.47000000000E+01 0.  1.
         13    1    4    4    0    0  0.19854686402E+02  0.38218614757E+01 -0.39223371062E+02  0.44128086688E+02  0.00000000000E+00 0. -1.
        -14    1    4    4    0    0  0.71722119019E+02 -0.18205567814E+03 -0.33628080525E+03  0.38906697660E+03  0.00000000000E+00 0.  1.
<mgrwt>
<rscale>  2 0.26067857E+03</rscale>
<asrwt>0</asrwt>
<pdfrwt beam="1">  1       21 0.23359570E-01 0.26075801E+03</pdfrwt>
<pdfrwt beam="2">  1       21 0.10526446E+00 0.26075801E+03</pdfrwt>
<totfact> 0.12008454E+04</totfact>
</mgrwt>
</event>
<event>
12    1  0.1050690E-001  0.1835954E+03  0.7546771E-02  0.1165150E+00
         21   -1    0    0  501  502  0.00000000000E+00  0.00000000000E+00  0.32140891243E+03  0.32140891243E+03  0.00000000000E+00 0.  1.
         21   -1    0    0  502  503 -0.00000000000E+00 -0.00000000000E+00 -0.20183578849E+03  0.20183578849E+03  0.00000000000E+00 0.  1.
         -6    2    1    2    0  503  0.11569765103E+02  0.55916360286E+02 -0.12355549888E+03  0.21858289594E+03  0.17103222586E+03 0.  0.
        -24    2    3    3    0    0  0.50699538555E+02  0.61498866501E+02 -0.29000323712E+02  0.11599110925E+03  0.79122467466E+02 0.  0.
          6    2    1    2  501    0 -0.11569765103E+02 -0.55916360286E+02  0.24312862282E+03  0.30466180498E+03  0.17449008386E+03 0.  0.
         24    2    5    5    0    0  0.38054197615E+02 -0.64715133320E+02  0.10851899637E+03  0.16085013085E+03  0.91979462838E+02 0.  0.
          5    1    5    5  501    0 -0.49623962718E+02  0.87987730345E+01  0.13460962645E+03  0.14381167413E+03  0.47000000000E+01 0. -1.
        -11    1    6    6    0    0  0.74858458621E+01 -0.82759055099E+02  0.72479534079E+02  0.11026505316E+03  0.00000000000E+00 0.  1.
         12    1    6    6    0    0  0.30568351753E+02  0.18043921778E+02  0.36039462295E+02  0.50585077686E+02  0.00000000000E+00 0. -1.
         -5    1    3    3    0  503 -0.39129773452E+02 -0.55825062149E+01 -0.94555175172E+02  0.10259178670E+03  0.47000000000E+01 0.  1.
         11    1    4    4    0    0  0.38468980217E+02 -0.84312065256E+01 -0.20693124262E+00  0.39382616761E+02  0.00000000000E+00 0. -1.
        -12    1    4    4    0    0  0.12230558338E+02  0.69930073026E+02 -0.28793392469E+02  0.76608492484E+02  0.00000000000E+00 0.  1.
<mgrwt>
<rscale>  2 0.18276909E+03</rscale>
<asrwt>0</asrwt>
<pdfrwt beam="1">  1       21 0.49447525E-01 0.18359545E+03</pdfrwt>
<pdfrwt beam="2">  1       21 0.31051660E-01 0.18359545E+03</pdfrwt>
<totfact> 0.39028475E+04</totfact>
</mgrwt>
</event>
<event>
12    1  0.1050690E-001  0.1783842E+03  0.7546771E-02  0.1169721E+00
         21   -1    0    0  501  502  0.00000000000E+00  0.00000000000E+00  0.16485342393E+03  0.16485342393E+03  0.00000000000E+00 0. -1.
         21   -1    0    0  502  503 -0.00000000000E+00 -0.00000000000E+00 -0.19733766349E+03  0.19733766349E+03  0.00000000000E+00 0. -1.
         -6    2    1    2    0  503 -0.30430769261E+02  0.28771654626E+02 -0.47428809260E+02  0.18458170708E+03  0.17339860095E+03 0.  0.
        -24    2    3    3    0    0  0.12636605845E+01 -0.49129093690E+02 -0.19601834363E+02  0.95871538531E+02  0.79949079451E+02 0.  0.
          6    2    1    2  501    0  0.30430769261E+02 -0.28771654626E+02  0.14944569698E+02  0.17760938035E+03  0.17195322619E+03 0.  0.
         24    2    5    5    0    0  0.81712706589E+02 -0.44137638145E+02  0.15541189856E+02  0.12386557604E+03  0.80473938804E+02 0.  0.
          5    1    5    5  501    0 -0.51281937328E+02  0.15365983520E+02 -0.59662015828E+00  0.53743804306E+02  0.47000000000E+01 0. -1.
        -11    1    6    6    0    0 -0.12840337371E+02 -0.11381921231E+00 -0.10243595180E+02  0.16426151736E+02  0.00000000000E+00 0.  1.
         12    1    6    6    0    0  0.94553043961E+02 -0.44023818933E+02  0.25784785037E+02  0.10743942431E+03  0.00000000000E+00 0. -1.
         -5    1    3    3    0  503 -0.31694429845E+02  0.77900748316E+02 -0.27826974897E+02  0.88710168545E+02  0.47000000000E+01 0.  1.
         11    1    4    4    0    0 -0.13361969592E+02  0.16667884154E+02 -0.18810587645E+02  0.28463991307E+02  0.00000000000E+00 0. -1.
        -12    1    4    4    0    0  0.14625630176E+02 -0.65796977844E+02 -0.79124671741E+00  0.67407547225E+02  0.00000000000E+00 0.  1.
<mgrwt>
<rscale>  2 0.17803197E+03</rscale>
<asrwt>0</asrwt>
<pdfrwt beam="1">  1       21 0.25362065E-01 0.17838418E+03</pdfrwt>
<pdfrwt beam="2">  1       21 0.30359640E-01 0.17838418E+03</pdfrwt>
<totfact> 0.15412276E+05</totfact>
</mgrwt>
</event>
<event>
12    1  0.1050690E-001  0.1987049E+03  0.7546771E-02  0.1151344E+00
         21   -1    0    0  501  502  0.00000000000E+00  0.00000000000E+00  0.71787257915E+03  0.71787257915E+03  0.00000000000E+00 0. -1.
         21   -1    0    0  502  503 -0.00000000000E+00 -0.00000000000E+00 -0.20116749212E+03  0.20116749212E+03  0.00000000000E+00 0. -1.
         -6    2    1    2    0  503 -0.56828358126E+02  0.70645282555E+02 -0.13379909723E+03  0.23955340742E+03  0.17681464406E+03 0.  0.
        -24    2    3    3    0    0 -0.73686075313E+02 -0.16287142051E+02 -0.78227855062E+02  0.13490312298E+03  0.79902106305E+02 0.  0.
          6    2    1    2  501    0  0.56828358126E+02 -0.70645282555E+02  0.65050418426E+03  0.67948666385E+03  0.17414423440E+03 0.  0.
         24    2    5    5    0    0 -0.24517116786E+02 -0.25698700005E+02  0.44497301456E+03  0.45387098778E+03  0.82075438840E+02 0.  0.
          5    1    5    5  501    0  0.81345474912E+02 -0.44946582550E+02  0.20553116969E+03  0.22561567606E+03  0.47000000000E+01 0. -1.
        -11    1    6    6    0    0 -0.13990741866E+01  0.23226775641E+01 -0.32192133518E+01  0.42089873190E+01  0.00000000000E+00 0.  1.
         12    1    6    6    0    0 -0.23118042600E+02 -0.28021377569E+02  0.44819222792E+03  0.44966200046E+03  0.00000000000E+00 0. -1.
         -5    1    3    3    0  503  0.16857717187E+02  0.86932424607E+02 -0.55571242169E+02  0.10465028444E+03  0.47000000000E+01 0.  1.
         13    1    4    4    0    0 -0.26247029988E+02 -0.15081076880E+02 -0.81891740326E+02  0.87307517411E+02  0.00000000000E+00 0. -1.
        -14    1    4    4    0    0 -0.47439045325E+02 -0.12060651718E+01  0.36638852636E+01  0.47595605572E+02  0.00000000000E+00 0.  1.
<mgrwt>
<rscale>  2 0.19810911E+03</rscale>
<asrwt>0</asrwt>
<pdfrwt beam="1">  1       21 0.11044193E+00 0.19870490E+03</pdfrwt>
<pdfrwt beam="2">  1       21 0.30948845E-01 0.19870490E+03</pdfrwt>
<totfact> 0.64557297E+03</totfact>
</mgrwt>
</event>
<event>
12    1  0.1050690E-001  0.2213524E+03  0.7546771E-02  0.1132981E+00
         21   -1    0    0  501  502  0.00000000000E+00  0.00000000000E+00  0.92653533812E+02  0.92653533812E+02  0.00000000000E+00 0. -1.
         21   -1    0    0  502  503 -0.00000000000E+00 -0.00000000000E+00 -0.54758056121E+03  0.54758056121E+03  0.00000000000E+00 0. -1.
         -6    2    1    2    0  503 -0.13614932859E+03 -0.16226223292E+02 -0.16589208861E+03  0.27617629373E+03  0.17307001518E+03 0.  0.
        -24    2    3    3    0    0 -0.10259619828E+03  0.54565272090E+02 -0.11832868710E+03  0.18440693318E+03  0.80628096806E+02 0.  0.
          6    2    1    2  501    0  0.13614932859E+03  0.16226223292E+02 -0.28903493879E+03  0.36405780130E+03  0.17377271606E+03 0.  0.
         24    2    5    5    0    0  0.12106421752E+03 -0.44795044014E+02 -0.16189515695E+03  0.22215019134E+03  0.80483072344E+02 0.  0.
          5    1    5    5  501    0  0.15085111074E+02  0.61021267306E+02 -0.12713978184E+03  0.14190760996E+03  0.47000000000E+01 0. -1.
        -13    1    6    6    0    0  0.90995161851E+02 -0.19409315067E+01 -0.64421869502E+02  0.11150813408E+03  0.00000000000E+00 0.  1.
         14    1    6    6    0    0  0.30069055666E+02 -0.42854112507E+02 -0.97473287452E+02  0.11064205726E+03  0.00000000000E+00 0. -1.
         -5    1    3    3    0  503 -0.33553130316E+02 -0.70791495383E+02 -0.47563401517E+02  0.91769360553E+02  0.47000000000E+01 0.  1.
         13    1    4    4    0    0 -0.98346834566E+02  0.40181712037E+02 -0.12816423397E+03  0.16647144115E+03  0.00000000000E+00 0. -1.
        -14    1    4    4    0    0 -0.42493637091E+01  0.14383560054E+02  0.98355468726E+01  0.17935492021E+02  0.00000000000E+00 0.  1.
<mgrwt>
<rscale>  2 0.22121447E+03</rscale>
<asrwt>0</asrwt>
<pdfrwt beam="1">  1       21 0.14254390E-01 0.22135240E+03</pdfrwt>
<pdfrwt beam="2">  1       21 0.84243162E-01 0.22135240E+03</pdfrwt>
<totfact> 0.51910464E+04</totfact>
</mgrwt>
</event>
<event>
12    1  0.1050690E-001  0.2027190E+03  0.7546771E-02  0.1148438E+00
         21   -1    0    0  501  502  0.00000000000E+00  0.00000000000E+00  0.17740306574E+03  0.17740306574E+03  0.00000000000E+00 0. -1.
         21   -1    0    0  502  503 -0.00000000000E+00 -0.00000000000E+00 -0.10135223790E+04  0.10135223790E+04  0.00000000000E+00 0. -1.
         -6    2    1    2    0  503 -0.23387202870E+02  0.10130023451E+03 -0.94173601630E+03  0.96234308820E+03  0.16860841097E+03 0.  0.
        -24    2    3    3    0    0 -0.30967835715E+02  0.61715813982E+02 -0.88949727668E+03  0.89619652170E+03  0.84823061432E+02 0.  0.
          6    2    1    2  501    0  0.23387202870E+02 -0.10130023451E+03  0.10561670302E+03  0.22858235656E+03  0.17402961531E+03 0.  0.
         24    2    5    5    0    0 -0.38300131059E+02 -0.78839146962E+01  0.54690011908E+02  0.10550695755E+03  0.81312142632E+02 0.  0.
          5    1    5    5  501    0  0.61687333928E+02 -0.93416319813E+02  0.50926691107E+02  0.12307539901E+03  0.47000000000E+01 0. -1.
        -11    1    6    6    0    0 -0.19675856015E+02 -0.26582892651E+02 -0.10887124652E+02  0.34818371225E+02  0.00000000000E+00 0.  1.
         12    1    6    6    0    0 -0.18624275044E+02  0.18698977955E+02  0.65577136560E+02  0.70688586327E+02  0.00000000000E+00 0. -1.
         -5    1    3    3    0  503  0.75806328452E+01  0.39584420527E+02 -0.52238739621E+02  0.66146566502E+02  0.47000000000E+01 0.  1.
         11    1    4    4    0    0  0.16203372561E+02  0.59861314708E+02 -0.52823096933E+03  0.53185889411E+03  0.00000000000E+00 0. -1.
        -12    1    4    4    0    0 -0.47171208276E+02  0.18544992739E+01 -0.36126630734E+03  0.36433762759E+03  0.00000000000E+00 0.  1.
<mgrwt>
<rscale>  2 0.20155035E+03</rscale>
<asrwt>0</asrwt>
<pdfrwt beam="1">  1       21 0.27292780E-01 0.20271903E+03</pdfrwt>
<pdfrwt beam="2">  1       21 0.15592652E+00 0.20271903E+03</pdfrwt>
<totfact> 0.34220566E+03</totfact>
</mgrwt>
</event>
<event>
12    1  0.1050690E-001  0.2019121E+03  0.7546771E-02  0.1148332E+00
         21   -1    0    0  503  502  0.00000000000E+00  0.00000000000E+00  0.53528650315E+03  0.53528650315E+03  0.00000000000E+00 0. -1.
         21   -1    0    0  501  503 -0.00000000000E+00 -0.00000000000E+00 -0.92599180055E+02  0.92599180055E+02  0.00000000000E+00 0.  1.
          6    2    1    2  501    0  0.59751755183E+02  0.83986676201E+02  0.88077783690E+02  0.22028659491E+03  0.17362158245E+03 0.  0.
         24    2    3    3    0    0  0.64528381814E+02  0.23042811209E+01  0.89614035934E+02  0.13831538107E+03  0.83254113610E+02 0.  0.
         -6    2    1    2    0  502 -0.59751755183E+02 -0.83986676201E+02  0.35460953941E+03  0.40759908829E+03  0.17252552655E+03 0.  0.
        -24    2    5    5    0    0 -0.25857229425E+02  0.13632083548E+02  0.89492503824E+02  0.12301624677E+03  0.79181176515E+02 0.  0.
          5    1    3    3  501    0 -0.47766266314E+01  0.81682395080E+02 -0.15362522443E+01  0.81971213843E+02  0.47000000000E+01 0. -1.
        -13    1    4    4    0    0 -0.14412336876E+02  0.46119218978E+01 -0.41819797043E+01  0.15699497829E+02  0.00000000000E+00 0.  1.
         14    1    4    4    0    0  0.78940718690E+02 -0.23076407769E+01  0.93796015639E+02  0.12261588324E+03  0.00000000000E+00 0. -1.
         -5    1    5    5    0  502 -0.33894525758E+02 -0.97618759749E+02  0.26511703558E+03  0.28458284152E+03  0.47000000000E+01 0.  1.
         13    1    6    6    0    0  0.20025482999E+02  0.11133472519E+01 -0.17395461855E+01  0.20131704656E+02  0.00000000000E+00 0. -1.
        -14    1    6    6    0    0 -0.45882712424E+02  0.12518736296E+02  0.91232050010E+02  0.10288454212E+03  0.00000000000E+00 0.  1.
<mgrwt>
<rscale>  2 0.20167624E+03</rscale>
<asrwt>0</asrwt>
<pdfrwt beam="1">  1       21 0.82351768E-01 0.20191208E+03</pdfrwt>
<pdfrwt beam="2">  1       21 0.14246028E-01 0.20191208E+03</pdfrwt>
<totfact> 0.55236333E+04</totfact>
</mgrwt>
</event>
<event>
12    1  0.1050690E-001  0.1873536E+03  0.7546771E-02  0.1161785E+00
         21   -1    0    0  501  502  0.00000000000E+00  0.00000000000E+00  0.39348007041E+03  0.39348007041E+03  0.00000000000E+00 0.  1.
         21   -1    0    0  502  503 -0.00000000000E+00 -0.00000000000E+00 -0.89968268175E+02  0.89968268175E+02  0.00000000000E+00 0.  1.
         -6    2    1    2    0  503 -0.69725559563E+02  0.86488596501E+01  0.11202399694E+03  0.21829052402E+03  0.17368051289E+03 0.  0.
        -24    2    3    3    0    0 -0.30300521252E+02  0.64798603533E+02  0.21131981537E+02  0.10431431665E+03  0.72924175727E+02 0.  0.
          6    2    1    2  501    0  0.69725559563E+02 -0.86488596501E+01  0.19148780529E+03  0.26515781456E+03  0.16942440974E+03 0.  0.
         24    2    5    5    0    0  0.65755777688E+02 -0.53515127651E+02  0.74077127486E+02  0.13931625372E+03  0.82060383537E+02 0.  0.
          5    1    5    5  501    0  0.39697818748E+01  0.44866268001E+02  0.11741067780E+03  0.12584156084E+03  0.47000000000E+01 0. -1.
        -13    1    6    6    0    0  0.44125780338E+02  0.13064616744E+02  0.42031482925E+02  0.62325069258E+02  0.00000000000E+00 0.  1.
         14    1    6    6    0    0  0.21629997350E+02 -0.66579744395E+02  0.32045644561E+02  0.76991184459E+02  0.00000000000E+00 0. -1.
         -5    1    3    3    0  503 -0.39425038311E+02 -0.56149743883E+02  0.90892015406E+02  0.11397620738E+03  0.47000000000E+01 0.  1.
         11    1    4    4    0    0  0.90984654354E+01 -0.17270437547E+01 -0.16043173274E+02  0.18524258747E+02  0.00000000000E+00 0. -1.
        -12    1    4    4    0    0 -0.39398986687E+02  0.66525647288E+02  0.37175154811E+02  0.85790057899E+02  0.00000000000E+00 0.  1.
<mgrwt>
<rscale>  2 0.18636112E+03</rscale>
<asrwt>0</asrwt>
<pdfrwt beam="1">  1       21 0.60535395E-01 0.18735361E+03</pdfrwt>
<pdfrwt beam="2">  1       21 0.13841272E-01 0.18735361E+03</pdfrwt>
<totfact> 0.11561707E+05</totfact>
</mgrwt>
</event>
<event>
12    1  0.1050690E-001  0.2710071E+03  0.7546771E-02  0.1100848E+00
         21   -1    0    0  503  502  0.00000000000E+00  0.00000000000E+00  0.14530086421E+03  0.14530086421E+03  0.00000000000E+00 0.  1.
         21   -1    0    0  501  503 -0.00000000000E+00 -0.00000000000E+00 -0.51169377958E+03  0.51169377958E+03  0.00000000000E+00 0. -1.
          6    2    1    2  501    0 -0.67995757799E+01 -0.20738879741E+03 -0.14153659607E+03  0.30485088600E+03  0.17275736495E+03 0.  0.
         24    2    3    3    0    0 -0.20113532223E+02 -0.15633766696E+03 -0.16865116284E+03  0.24534652408E+03  0.83100432393E+02 0.  0.
         -6    2    1    2    0  502  0.67995757799E+01  0.20738879741E+03 -0.22485631930E+03  0.35214375779E+03  0.17432301712E+03 0.  0.
        -24    2    5    5    0    0 -0.30561871565E+02  0.21594267974E+03 -0.19168024382E+03  0.30123414539E+03  0.80221104132E+02 0.  0.
          5    1    3    3  501    0  0.13313956443E+02 -0.51051130452E+02  0.27114566766E+02  0.59504361920E+02  0.47000000000E+01 0. -1.
        -13    1    4    4    0    0 -0.51786527641E+02 -0.91365567114E+02 -0.87721987263E+02  0.13683807346E+03  0.00000000000E+00 0.  1.
         14    1    4    4    0    0  0.31672995418E+02 -0.64972099847E+02 -0.80929175574E+02  0.10850845062E+03  0.00000000000E+00 0. -1.
         -5    1    5    5    0  502  0.37361447345E+02 -0.85538823275E+01 -0.33176075482E+02  0.50909612403E+02  0.47000000000E+01 0.  1.
         11    1    6    6    0    0 -0.27261572926E+02  0.15189746936E+02 -0.20037320312E+02  0.37086601027E+02  0.00000000000E+00 0. -1.
        -12    1    6    6    0    0 -0.33002986390E+01  0.20075293280E+03 -0.17164292351E+03  0.26414754436E+03  0.00000000000E+00 0.  1.
<mgrwt>
<rscale>  2 0.27075567E+03</rscale>
<asrwt>0</asrwt>
<pdfrwt beam="1">  1       21 0.22353979E-01 0.27100713E+03</pdfrwt>
<pdfrwt beam="2">  1       21 0.78722119E-01 0.27100713E+03</pdfrwt>
<totfact> 0.25682069E+04</totfact>
</mgrwt>
</event>
<event>
12    1  0.1050690E-001  0.1754853E+03  0.7546771E-02  0.1173386E+00
         21   -1    0    0  501  502  0.00000000000E+00  0.00000000000E+00  0.12271013581E+03  0.12271013581E+03  0.00000000000E+00 0.  1.
         21   -1    0    0  502  503 -0.00000000000E+00 -0.00000000000E+00 -0.25700867842E+03  0.25700867842E+03  0.00000000000E+00 0.  1.
         -6    2    1    2    0  503  0.38242104793E+02 -0.56168534833E+01 -0.24554959954E+02  0.17274362198E+03  0.16656351718E+03 0.  0.
        -24    2    3    3    0    0  0.40962997761E+02  0.49313953221E+02 -0.46979995017E+02  0.11316368424E+03  0.80554741204E+02 0.  0.
          6    2    1    2  501    0 -0.38242104793E+02  0.56168534833E+01 -0.10974358265E+03  0.20697519225E+03  0.17117554923E+03 0.  0.
         24    2    5    5    0    0 -0.72156628961E+02  0.14565576465E+02 -0.20835811695E+02  0.11128320550E+03  0.80815132596E+02 0.  0.
          5    1    5    5  501    0  0.33914524168E+02 -0.89487229819E+01 -0.88907770953E+02  0.95691986751E+02  0.47000000000E+01 0. -1.
        -13    1    6    6    0    0 -0.25190679752E+02  0.59023390450E+01 -0.49306552767E+02  0.55682529561E+02  0.00000000000E+00 0.  1.
         14    1    6    6    0    0 -0.46965949209E+02  0.86632374202E+01  0.28470741071E+02  0.55600675939E+02  0.00000000000E+00 0. -1.
         -5    1    3    3    0  503 -0.27208929680E+01 -0.54930806704E+02  0.22425035064E+02  0.59579937742E+02  0.47000000000E+01 0.  1.
         13    1    4    4    0    0 -0.24373588284E+02  0.18600068260E+02 -0.16249124176E+02  0.34699688494E+02  0.00000000000E+00 0. -1.
        -14    1    4    4    0    0  0.65336586045E+02  0.30713884961E+02 -0.30730870842E+02  0.78463995744E+02  0.00000000000E+00 0.  1.
<mgrwt>
<rscale>  2 0.17435036E+03</rscale>
<asrwt>0</asrwt>
<pdfrwt beam="1">  1       21 0.18878483E-01 0.17548526E+03</pdfrwt>
<pdfrwt beam="2">  1       21 0.39539796E-01 0.17548526E+03</pdfrwt>
<totfact> 0.15934632E+05</totfact>
</mgrwt>
</event>
<event>
12    1  0.1050690E-001  0.1908569E+03  0.7546771E-02  0.1159234E+00
         21   -1    0    0  503  502  0.00000000000E+00  0.00000000000E+00  0.23287577756E+02  0.23287577756E+02  0.00000000000E+00 0. -1.
         21   -1    0    0  501  503 -0.00000000000E+00 -0.00000000000E+00 -0.23073189756E+04  0.23073189756E+04  0.00000000000E+00 0. -1.
          6    2    1    2  501    0 -0.11269988658E+02 -0.56090375043E+02 -0.18137907686E+04  0.18231101606E+04  0.17498732075E+03 0.  0.
         24    2    3    3    0    0 -0.61697530925E+02 -0.12631881172E+02 -0.14050128772E+04  0.14089205516E+04  0.83843817473E+02 0.  0.
         -6    2    1    2    0  502  0.11269988658E+02  0.56090375043E+02 -0.47024062923E+03  0.50749639279E+03  0.18208019250E+03 0.  0.
        -24    2    5    5    0    0  0.45668260175E+02  0.96391621451E+02 -0.36305256733E+03  0.38783519541E+03  0.85041386858E+02 0.  0.
          5    1    3    3  501    0  0.50427542267E+02 -0.43458493871E+02 -0.40877789140E+03  0.41418960900E+03  0.47000000000E+01 0. -1.
        -11    1    4    4    0    0 -0.52872716978E+02 -0.46104238868E+02 -0.96850516919E+03  0.97104242327E+03  0.00000000000E+00 0.  1.
         12    1    4    4    0    0 -0.88248139465E+01  0.33472357696E+02 -0.43650770804E+03  0.43787812830E+03  0.00000000000E+00 0. -1.
         -5    1    5    5    0  502 -0.34398271517E+02 -0.40301246408E+02 -0.10718806190E+03  0.11966119738E+03  0.47000000000E+01 0.  1.
         11    1    6    6    0    0 -0.57427316856E+01  0.15134321624E+02 -0.47721243147E+01  0.16876013413E+02  0.00000000000E+00 0. -1.
        -12    1    6    6    0    0  0.51410991861E+02  0.81257299827E+02 -0.35828044301E+03  0.37095918199E+03  0.00000000000E+00 0.  1.
<mgrwt>
<rscale>  2 0.18914537E+03</rscale>
<asrwt>0</asrwt>
<pdfrwt beam="1">  1       21 0.35827026E-02 0.19085686E+03</pdfrwt>
<pdfrwt beam="2">  1       21 0.35497232E+00 0.19085686E+03</pdfrwt>
<totfact> 0.77160651E+03</totfact>
</mgrwt>
</event>
<event>
12    1  0.1050690E-001  0.3555941E+03  0.7546771E-02  0.1060351E+00
         21   -1    0    0  503  502  0.00000000000E+00  0.00000000000E+00  0.12583593215E+03  0.12583593215E+03  0.00000000000E+00 0. -1.
         21   -1    0    0  501  503 -0.00000000000E+00 -0.00000000000E+00 -0.10238123057E+04  0.10238123057E+04  0.00000000000E+00 0.  1.
          6    2    1    2  501    0 -0.26667857472E+03  0.15910339309E+03 -0.37021964882E+03  0.51327233263E+03  0.17307381998E+03 0.  0.
         24    2    3    3    0    0 -0.23658095913E+03  0.95618201432E+02 -0.21660502115E+03  0.34428777754E+03  0.80640857572E+02 0.  0.
         -6    2    1    2    0  502  0.26667857472E+03 -0.15910339309E+03 -0.52775672469E+03  0.63637590518E+03  0.17325062865E+03 0.  0.
        -24    2    5    5    0    0  0.26401049767E+03 -0.10240938065E+03 -0.47379277984E+03  0.55791873836E+03  0.81268051870E+02 0.  0.
          5    1    3    3  501    0 -0.30097615590E+02  0.63485191657E+02 -0.15361462767E+03  0.16898455508E+03  0.47000000000E+01 0. -1.
        -13    1    4    4    0    0 -0.10267187987E+03  0.30699053102E+02 -0.42586864071E+02  0.11531516713E+03  0.00000000000E+00 0.  1.
         14    1    4    4    0    0 -0.13390907925E+03  0.64919148330E+02 -0.17401815708E+03  0.22897261041E+03  0.00000000000E+00 0. -1.
         -5    1    5    5    0  502  0.26680770488E+01 -0.56694012443E+02 -0.53963944845E+02  0.78457166819E+02  0.47000000000E+01 0.  1.
         13    1    6    6    0    0  0.20584625933E+02 -0.36835191962E+02 -0.77228331897E+02  0.88004394431E+02  0.00000000000E+00 0. -1.
        -14    1    6    6    0    0  0.24342587174E+03 -0.65574188684E+02 -0.39656444795E+03  0.46991434393E+03  0.00000000000E+00 0.  1.
<mgrwt>
<rscale>  2 0.35557253E+03</rscale>
<asrwt>0</asrwt>
<pdfrwt beam="1">  1       21 0.19359374E-01 0.35559406E+03</pdfrwt>
<pdfrwt beam="2">  1       21 0.15750959E+00 0.35559406E+03</pdfrwt>
<totfact> 0.58281567E+03</totfact>
</mgrwt>
</event>
<event>
11    1  0.1050690E-001  0.2105199E+03  0.7546771E-02  0.1143287E+00
         21   -1    0    0  503  502  0.00000000000E+00  0.00000000000E+00  0.45744566072E+03  0.45744566072E+03  0.00000000000E+00 0. -1.
         21   -1    0    0  501  503 -0.00000000000E+00 -0.00000000000E+00 -0.94298970057E+02  0.94298970057E+02  0.00000000000E+00 0. -1.
          6    2    1    2  501    0  0.93701304162E+02  0.40552663817E+02  0.14405877030E+03  0.25509125613E+03  0.18410368467E+03 0.  0.
         -6    2    1    2    0  502 -0.93701304162E+02 -0.40552663817E+02  0.21908792036E+03  0.29665337465E+03  0.17198620555E+03 0.  0.
        -24    2    4    4    0    0 -0.39640585677E+02 -0.41523779193E+02  0.22166649140E+03  0.24231882416E+03  0.79289210259E+02 0.  0.
          5    1    3    3  501    0  0.23449250983E+02 -0.36497502497E+02  0.70668368340E+02  0.83054460109E+02  0.47000000000E+01 0. -1.
        -13    1    3    3    0    0 -0.20284472443E+02 -0.13678236196E+02  0.25146866218E+02  0.35084453086E+02  0.00000000000E+00 0.  1.
         14    1    3    3    0    0  0.90536525621E+02  0.90728402509E+02  0.48243535740E+02  0.13695234293E+03  0.00000000000E+00 0. -1.
         -5    1    4    4    0  502 -0.54060718485E+02  0.97111537594E+00 -0.25785710347E+01  0.54334550489E+02  0.47000000000E+01 0.  1.
         13    1    5    5    0    0 -0.52074996154E+02 -0.54460279832E+02  0.20249579612E+03  0.21606081262E+03  0.00000000000E+00 0. -1.
        -14    1    5    5    0    0  0.12434410477E+02  0.12936500639E+02  0.19170695278E+02  0.26258011542E+02  0.00000000000E+00 0.  1.
<mgrwt>
<rscale>  2 0.20784155E+03</rscale>
<asrwt>0</asrwt>
<pdfrwt beam="1">  1       21 0.70376254E-01 0.21051988E+03</pdfrwt>
<pdfrwt beam="2">  1       21 0.14507534E-01 0.21051988E+03</pdfrwt>
<totfact> 0.75727822E+04</totfact>
</mgrwt>
</event>
<event>
12    1  0.1050690E-001  0.1753159E+03  0.7546771E-02  0.1175150E+00
         21   -1    0    0  503  502  0.00000000000E+00  0.00000000000E+00  0.90754785406E+03  0.90754785406E+03  0.00000000000E+00 0. -1.
         21   -1    0    0  501  503 -0.00000000000E+00 -0.00000000000E+00 -0.49842668518E+02  0.49842668518E+02  0.00000000000E+00 0. -1.
          6    2    1    2  501    0 -0.89850121134E+01 -0.19167278510E+02  0.13286474255E+03  0.21164973479E+03  0.16338437935E+03 0.  0.
         24    2    3    3    0    0 -0.19092090109E+02 -0.71302026834E+02  0.10394325685E+03  0.15099722170E+03  0.80916459282E+02 0.  0.
         -6    2    1    2    0  502  0.89850121134E+01  0.19167278510E+02  0.72484044300E+03  0.74574078779E+03  0.17403315708E+03 0.  0.
        -24    2    5    5    0    0 -0.58563052165E+02  0.27559503707E+02  0.33965959281E+03  0.35456365684E+03  0.78470315645E+02 0.  0.
          5    1    3    3  501    0  0.10107077995E+02  0.52134748325E+02  0.28921485700E+02  0.60652513085E+02  0.47000000000E+01 0. -1.
        -13    1    4    4    0    0 -0.24283959610E+02 -0.72798956197E+02  0.11525164884E+03  0.13846422382E+03  0.00000000000E+00 0.  1.
         14    1    4    4    0    0  0.51918695013E+01  0.14969293626E+01 -0.11308391994E+02  0.12532997883E+02  0.00000000000E+00 0. -1.
         -5    1    5    5    0  502  0.67548064278E+02 -0.83922251974E+01  0.38518085019E+03  0.39117713095E+03  0.47000000000E+01 0.  1.
         13    1    6    6    0    0 -0.21427480543E+02  0.15247410003E+02  0.29072466177E+03  0.29191171507E+03  0.00000000000E+00 0. -1.
        -14    1    6    6    0    0 -0.37135571622E+02  0.12312093704E+02  0.48934931041E+02  0.62651941766E+02  0.00000000000E+00 0.  1.
<mgrwt>
<rscale>  2 0.17261252E+03</rscale>
<asrwt>0</asrwt>
<pdfrwt beam="1">  1       21 0.13962273E+00 0.17531587E+03</pdfrwt>
<pdfrwt beam="2">  1       21 0.76681035E-02 0.17531587E+03</pdfrwt>
<totfact> 0.46999701E+04</totfact>
</mgrwt>
</event>
<event>
12    1  0.1050690E-001  0.2211061E+03  0.7546771E-02  0.1134192E+00
         21   -1    0    0  503  502  0.00000000000E+00  0.00000000000E+00  0.65248342331E+03  0.65248342331E+03  0.00000000000E+00 0. -1.
         21   -1    0    0  501  503 -0.00000000000E+00 -0.00000000000E+00 -0.31083736453E+03  0.31083736453E+03  0.00000000000E+00 0. -1.
          6    2    1    2  501    0 -0.69394025709E+02  0.10653594558E+03 -0.25002468473E+03  0.33376679240E+03  0.18089358813E+03 0.  0.
         24    2    3    3    0    0  0.25504873144E+02  0.74815993433E+02 -0.85771283550E+02  0.14137857507E+03  0.79895287593E+02 0.  0.
         -6    2    1    2    0  502  0.69394025709E+02 -0.10653594558E+03  0.59167074351E+03  0.62955399545E+03  0.17348926755E+03 0.  0.
        -24    2    5    5    0    0  0.34051161179E+02 -0.12166139670E+03  0.25694983773E+03  0.29259988565E+03  0.60253605267E+02 0.  0.
          5    1    3    3  501    0 -0.94898898852E+02  0.31719952150E+02 -0.16425340118E+03  0.19238821733E+03  0.47000000000E+01 0. -1.
        -13    1    4    4    0    0  0.12442138252E+02  0.10505826697E+02  0.14325138885E+02  0.21688448606E+02  0.00000000000E+00 0.  1.
         14    1    4    4    0    0  0.13062734892E+02  0.64310166736E+02 -0.10009642244E+03  0.11969012646E+03  0.00000000000E+00 0. -1.
         -5    1    5    5    0  502  0.35342864530E+02  0.15125451120E+02  0.33472090578E+03  0.33695410980E+03  0.47000000000E+01 0.  1.
         13    1    6    6    0    0  0.41070149381E+02 -0.41426822076E+02  0.12627473773E+03  0.13909798038E+03  0.00000000000E+00 0. -1.
        -14    1    6    6    0    0 -0.70189882021E+01 -0.80234574627E+02  0.13067510000E+03  0.15350190527E+03  0.00000000000E+00 0.  1.
<mgrwt>
<rscale>  2 0.21958667E+03</rscale>
<asrwt>0</asrwt>
<pdfrwt beam="1">  1       21 0.10038206E+00 0.22110615E+03</pdfrwt>
<pdfrwt beam="2">  1       21 0.47821133E-01 0.22110615E+03</pdfrwt>
<totfact> 0.33231768E+03</totfact>
</mgrwt>
</event>
<event>
12    1  0.1050690E-001  0.2392149E+03  0.7546771E-02  0.1120745E+00
         21   -1    0    0  501  502  0.00000000000E+00  0.00000000000E+00  0.42614388605E+03  0.42614388605E+03  0.00000000000E+00 0. -1.
         21   -1    0    0  502  503 -0.00000000000E+00 -0.00000000000E+00 -0.25980545714E+03  0.25980545714E+03  0.00000000000E+00 0.  1.
         -6    2    1    2    0  503  0.12466144646E+03  0.10787682971E+03  0.32313896919E+03  0.40204794823E+03  0.17333745309E+03 0.  0.
        -24    2    3    3    0    0  0.25424272192E+02  0.42535542762E+02  0.54489031750E+02  0.10825826253E+03  0.79341860392E+02 0.  0.
          6    2    1    2  501    0 -0.12466144646E+03 -0.10787682971E+03 -0.15680054028E+03  0.28390139496E+03  0.16981079473E+03 0.  0.
         24    2    5    5    0    0 -0.79313710095E+00 -0.68212909647E+02 -0.58521244753E+02  0.12081401180E+03  0.80732021222E+02 0.  0.
          5    1    5    5  501    0 -0.12386830936E+03 -0.39663920060E+02 -0.98279295530E+02  0.16308738316E+03  0.47000000000E+01 0. -1.
        -13    1    6    6    0    0 -0.69751086555E+01 -0.71558210209E+02 -0.74391454302E+02  0.10345684154E+03  0.00000000000E+00 0.  1.
         14    1    6    6    0    0  0.61819715546E+01  0.33453005621E+01  0.15870209549E+02  0.17357170255E+02  0.00000000000E+00 0. -1.
         -5    1    3    3    0  503  0.99237174265E+02  0.65341286946E+02  0.26864993744E+03  0.29378968570E+03  0.47000000000E+01 0.  1.
         13    1    4    4    0    0  0.43071781954E+02  0.33699718320E+02  0.65761281730E+02  0.85530085878E+02  0.00000000000E+00 0. -1.
        -14    1    4    4    0    0 -0.17647509762E+02  0.88358244419E+01 -0.11272249980E+02  0.22728176653E+02  0.00000000000E+00 0.  1.
<mgrwt>
<rscale>  2 0.23857659E+03</rscale>
<asrwt>0</asrwt>
<pdfrwt beam="1">  1       21 0.65560598E-01 0.23921488E+03</pdfrwt>
<pdfrwt beam="2">  1       21 0.39970070E-01 0.23921488E+03</pdfrwt>
<totfact> 0.12541051E+04</totfact>
</mgrwt>
</event>
<event>
12    1  0.1050690E-001  0.1879603E+03  0.7546771E-02  0.1160842E+00
         21   -1    0    0  503  502  0.00000000000E+00  0.00000000000E+00  0.15109523796E+03  0.15109523796E+03  0.00000000000E+00 0. -1.
         21   -1    0    0  501  503 -0.00000000000E+00 -0.00000000000E+00 -0.24280558480E+03  0.24280558480E+03  0.00000000000E+00 0. -1.
          6    2    1    2  501    0 -0.61738156693E+02 -0.36654187109E+02 -0.26474461724E+01  0.18797891943E+03  0.17370646434E+03 0.  0.
         24    2    3    3    0    0 -0.66509075796E+02 -0.70634765882E+02 -0.45181855311E+02  0.13312723428E+03  0.79175331663E+02 0.  0.
         -6    2    1    2    0  502  0.61738156693E+02  0.36654187109E+02 -0.89062900667E+02  0.20592190332E+03  0.17122061957E+03 0.  0.
        -24    2    5    5    0    0  0.20217050623E+02  0.85724563636E+02 -0.76522538854E+02  0.14026175729E+03  0.77847489746E+02 0.  0.
          5    1    3    3  501    0  0.47709191022E+01  0.33980578774E+02  0.42534409139E+02  0.54851685149E+02  0.47000000000E+01 0. -1.
        -11    1    4    4    0    0 -0.48611545162E+02 -0.10216085533E+02 -0.49291846194E+02  0.69979545782E+02  0.00000000000E+00 0.  1.
         12    1    4    4    0    0 -0.17897530634E+02 -0.60418680349E+02  0.41099908829E+01  0.63147688501E+02  0.00000000000E+00 0. -1.
         -5    1    5    5    0  502  0.41521106070E+02 -0.49070376528E+02 -0.12540361813E+02  0.65660146027E+02  0.47000000000E+01 0.  1.
         11    1    6    6    0    0 -0.26839172373E+02  0.33787897830E+02 -0.48141745881E+02  0.64649755683E+02  0.00000000000E+00 0. -1.
        -12    1    6    6    0    0  0.47056222996E+02  0.51936665807E+02 -0.28380792973E+02  0.75612001610E+02  0.00000000000E+00 0.  1.
<mgrwt>
<rscale>  2 0.18738390E+03</rscale>
<asrwt>0</asrwt>
<pdfrwt beam="1">  1       21 0.23245421E-01 0.18796028E+03</pdfrwt>
<pdfrwt beam="2">  1       21 0.37354705E-01 0.18796028E+03</pdfrwt>
<totfact> 0.12042967E+05</totfact>
</mgrwt>
</event>
<event>
12    1  0.1050690E-001  0.1847582E+03  0.7546771E-02  0.1163377E+00
         21   -1    0    0  503  502  0.00000000000E+00  0.00000000000E+00  0.53651094586E+02  0.53651094586E+02  0.00000000000E+00 0. -1.
         21   -1    0    0  501  503 -0.00000000000E+00 -0.00000000000E+00 -0.63537274636E+03  0.63537274636E+03  0.00000000000E+00 0. -1.
          6    2    1    2  501    0  0.64010561869E+02  0.24020114904E-02 -0.30120302134E+03  0.35312756930E+03  0.17285389236E+03 0.  0.
         24    2    3    3    0    0  0.14691873326E+01 -0.41647401290E+02 -0.23626158957E+03  0.25370116837E+03  0.82511087594E+02 0.  0.
         -6    2    1    2    0  502 -0.64010561869E+02 -0.24020114904E-02 -0.28051863044E+03  0.33589627164E+03  0.17331546741E+03 0.  0.
        -24    2    5    5    0    0  0.14999432682E+02 -0.15491102488E+02 -0.22022994433E+03  0.23520220650E+03  0.79711306154E+02 0.  0.
          5    1    3    3  501    0  0.62541374536E+02  0.41649803301E+02 -0.64941431760E+02  0.99426400936E+02  0.47000000000E+01 0. -1.
        -13    1    4    4    0    0  0.26789733474E+02 -0.49441791669E+02 -0.20573385316E+03  0.21328056385E+03  0.00000000000E+00 0.  1.
         14    1    4    4    0    0 -0.25320546141E+02  0.77943903788E+01 -0.30527736417E+02  0.40420604511E+02  0.00000000000E+00 0. -1.
         -5    1    5    5    0  502 -0.79009994551E+02  0.15488700476E+02 -0.60288686109E+02  0.10069406514E+03  0.47000000000E+01 0.  1.
         11    1    6    6    0    0  0.16025025665E+02 -0.49730622509E+01 -0.22072004081E+01  0.16923490461E+02  0.00000000000E+00 0. -1.
        -12    1    6    6    0    0 -0.10255929836E+01 -0.10518040237E+02 -0.21802274392E+03  0.21827871604E+03  0.00000000000E+00 0.  1.
<mgrwt>
<rscale>  2 0.18464990E+03</rscale>
<asrwt>0</asrwt>
<pdfrwt beam="1">  1       21 0.82540152E-02 0.18475823E+03</pdfrwt>
<pdfrwt beam="2">  1       21 0.97749646E-01 0.18475823E+03</pdfrwt>
<totfact> 0.98766439E+04</totfact>
</mgrwt>
</event>
<event>
11    1  0.1050690E-001  0.1954970E+03  0.7546771E-02  0.1153751E+00
         21   -1    0    0  501  502  0.00000000000E+00  0.00000000000E+00  0.30924150652E+03  0.30924150652E+03  0.00000000000E+00 0.  1.
         21   -1    0    0  502  503 -0.00000000000E+00 -0.00000000000E+00 -0.13916495604E+03  0.13916495604E+03  0.00000000000E+00 0. -1.
         -6    2    1    2    0  503  0.76488483669E+02  0.45882249562E+02  0.16126826357E+03  0.25342949771E+03  0.17396375634E+03 0.  0.
          6    2    1    2  501    0 -0.76488483669E+02 -0.45882249562E+02  0.88082869174E+01  0.19497696485E+03  0.17315531162E+03 0.  0.
         24    2    4    4    0    0 -0.99407302300E+02 -0.76321549983E+02  0.28241325910E+02  0.15194725113E+03  0.81139410250E+02 0.  0.
          5    1    4    4  501    0  0.22918818631E+02  0.30439300421E+02 -0.19433038993E+02  0.43029713711E+02  0.47000000000E+01 0. -1.
        -11    1    5    5    0    0 -0.18380970245E+02 -0.29823168593E+02 -0.26268155900E+02  0.43786955437E+02  0.00000000000E+00 0.  1.
         12    1    5    5    0    0 -0.81026332055E+02 -0.46498381390E+02  0.54509481810E+02  0.10816029570E+03  0.00000000000E+00 0. -1.
         -5    1    3    3    0  503 -0.26518043585E+02  0.77560822953E+02  0.45921463748E+02  0.94073156243E+02  0.47000000000E+01 0.  1.
         13    1    3    3    0    0  0.48468206932E+02 -0.96952680831E+01  0.66828659192E+02  0.83121808184E+02  0.00000000000E+00 0. -1.
        -14    1    3    3    0    0  0.54538320322E+02 -0.21983305308E+02  0.48518140625E+02  0.76234533288E+02  0.00000000000E+00 0.  1.
<mgrwt>
<rscale>  2 0.19531694E+03</rscale>
<asrwt>0</asrwt>
<pdfrwt beam="1">  1       21 0.47575616E-01 0.19549695E+03</pdfrwt>
<pdfrwt beam="2">  1       21 0.21409993E-01 0.19549695E+03</pdfrwt>
<totfact> 0.85736338E+04</totfact>
</mgrwt>
</event>
<event>
12    1  0.1050690E-001  0.2139580E+03  0.7546771E-02  0.1138900E+00
         21   -1    0    0  503  502  0.00000000000E+00  0.00000000000E+00  0.35823136148E+03  0.35823136148E+03  0.00000000000E+00 0. -1.
         21   -1    0    0  501  503 -0.00000000000E+00 -0.00000000000E+00 -0.13238748553E+03  0.13238748553E+03  0.00000000000E+00 0. -1.
          6    2    1    2  501    0  0.55980361167E+02 -0.11020901689E+03  0.60493040324E+02  0.22021373061E+03  0.17191524360E+03 0.  0.
         24    2    3    3    0    0 -0.80996434443E+01 -0.47236574733E+02  0.86637157932E+02  0.12652605615E+03  0.78777836557E+02 0.  0.
         -6    2    1    2    0  502 -0.55980361167E+02  0.11020901689E+03  0.16535083562E+03  0.27040511640E+03  0.17463733821E+03 0.  0.
        -24    2    5    5    0    0  0.25306535632E+02  0.66660821221E+02  0.13540770013E+03  0.17333459410E+03  0.81397484147E+02 0.  0.
          5    1    3    3  501    0  0.64080004612E+02 -0.62972442152E+02 -0.26144117609E+02  0.93687674468E+02  0.47000000000E+01 0. -1.
        -11    1    4    4    0    0  0.17425335547E+01 -0.58606841378E+02  0.93207099475E+02  0.11011521998E+03  0.00000000000E+00 0.  1.
         12    1    4    4    0    0 -0.98421769990E+01  0.11370266645E+02 -0.65699415420E+01  0.16410836162E+02  0.00000000000E+00 0. -1.
         -5    1    5    5    0  502 -0.81286896799E+02  0.43548195664E+02  0.29943135491E+02  0.97070522302E+02  0.47000000000E+01 0.  1.
         11    1    6    6    0    0 -0.20037925829E+02  0.47196132423E+02  0.10071013768E+03  0.11301117299E+03  0.00000000000E+00 0. -1.
        -12    1    6    6    0    0  0.45344461461E+02  0.19464688798E+02  0.34697562447E+02  0.60323421114E+02  0.00000000000E+00 0.  1.
<mgrwt>
<rscale>  2 0.21340184E+03</rscale>
<asrwt>0</asrwt>
<pdfrwt beam="1">  1       21 0.55112517E-01 0.21395801E+03</pdfrwt>
<pdfrwt beam="2">  1       21 0.20367306E-01 0.21395801E+03</pdfrwt>
<totfact> 0.68638642E+04</totfact>
</mgrwt>
</event>
<event>
12    1  0.1050690E-001  0.2009519E+03  0.7546771E-02  0.1148941E+00
         21   -1    0    0  501  502  0.00000000000E+00  0.00000000000E+00  0.16026975127E+03  0.16026975127E+03  0.00000000000E+00 0.  1.
         21   -1    0    0  502  503 -0.00000000000E+00 -0.00000000000E+00 -0.39975293845E+03  0.39975293845E+03  0.00000000000E+00 0.  1.
         -6    2    1    2    0  503 -0.91550352370E+02  0.45158163220E+02 -0.29000681619E+03  0.35281677495E+03  0.17307511815E+03 0.  0.
        -24    2    3    3    0    0 -0.11989658841E+03 -0.56548146737E+01 -0.22455807926E+03  0.26511788678E+03  0.73851161737E+02 0.  0.
          6    2    1    2  501    0  0.91550352370E+02 -0.45158163220E+02  0.50523629017E+02  0.20720591477E+03  0.17309225084E+03 0.  0.
         24    2    5    5    0    0  0.93113781440E+02 -0.16961296417E+02  0.95523947465E+02  0.15387087686E+03  0.74790108545E+02 0.  0.
          5    1    5    5  501    0 -0.15634290701E+01 -0.28196866802E+02 -0.45000318448E+02  0.53335037905E+02  0.47000000000E+01 0. -1.
        -11    1    6    6    0    0  0.70112827867E+02  0.20467270162E+02  0.40687874315E+02  0.83607540901E+02  0.00000000000E+00 0.  1.
         12    1    6    6    0    0  0.23000953573E+02 -0.37428566579E+02  0.54836073151E+02  0.70263335959E+02  0.00000000000E+00 0. -1.
         -5    1    3    3    0  503  0.28346236038E+02  0.50812977893E+02 -0.65448736935E+02  0.87698888170E+02  0.47000000000E+01 0.  1.
         11    1    4    4    0    0  0.91446514427E+01 -0.40129340687E+01 -0.30272843579E+02  0.31877473993E+02  0.00000000000E+00 0. -1.
        -12    1    4    4    0    0 -0.12904123985E+03 -0.16418806051E+01 -0.19428523568E+03  0.23324041279E+03  0.00000000000E+00 0.  1.
<mgrwt>
<rscale>  2 0.20094818E+03</rscale>
<asrwt>0</asrwt>
<pdfrwt beam="1">  1       21 0.24656885E-01 0.20095187E+03</pdfrwt>
<pdfrwt beam="2">  1       21 0.61500452E-01 0.20095187E+03</pdfrwt>
<totfact> 0.38044891E+04</totfact>
</mgrwt>
</event>
<event>
12    1  0.1050690E-001  0.1971234E+03  0.7546771E-02  0.1153742E+00
         21   -1    0    0  501  502  0.00000000000E+00  0.00000000000E+00  0.45946045976E+03  0.45946045976E+03  0.00000000000E+00 0. -1.
         21   -1    0    0  502  503 -0.00000000000E+00 -0.00000000000E+00 -0.88954461515E+02  0.88954461515E+02  0.00000000000E+00 0. -1.
         -6    2    1    2    0  503  0.60423831926E+02 -0.50359463871E+02  0.10931702048E+03  0.22540596818E+03  0.18074989477E+03 0.  0.
        -24    2    3    3    0    0  0.64145238581E+02  0.29861717336E+02  0.26959041775E+02  0.11027902330E+03  0.80176924686E+02 0.  0.
          6    2    1    2  501    0 -0.60423831926E+02  0.50359463871E+02  0.26118897777E+03  0.32300895309E+03  0.17299707109E+03 0.  0.
         24    2    5    5    0    0 -0.50575584767E+02  0.79224247802E+02  0.26438992681E+03  0.29198477223E+03  0.80738482771E+02 0.  0.
          5    1    5    5  501    0 -0.98482471591E+01 -0.28864783932E+02 -0.32009490422E+01  0.31024180864E+02  0.47000000000E+01 0. -1.
        -11    1    6    6    0    0 -0.14377683179E+02  0.15509277049E+02  0.17556318320E+03  0.17683236905E+03  0.00000000000E+00 0.  1.
         12    1    6    6    0    0 -0.36197901589E+02  0.63714970753E+02  0.88826743608E+02  0.11515240318E+03  0.00000000000E+00 0. -1.
         -5    1    3    3    0  503 -0.37214066542E+01 -0.80221181207E+02  0.82357978703E+02  0.11512694488E+03  0.47000000000E+01 0.  1.
         11    1    4    4    0    0  0.49315153332E+02  0.23328206061E+01  0.50890174891E+02  0.70903006287E+02  0.00000000000E+00 0. -1.
        -12    1    4    4    0    0  0.14830085249E+02  0.27528896730E+02 -0.23931133116E+02  0.39376017014E+02  0.00000000000E+00 0.  1.
<mgrwt>
<rscale>  2 0.19532812E+03</rscale>
<asrwt>0</asrwt>
<pdfrwt beam="1">  1       21 0.70686223E-01 0.19712341E+03</pdfrwt>
<pdfrwt beam="2">  1       21 0.13685302E-01 0.19712341E+03</pdfrwt>
<totfact> 0.83858175E+04</totfact>
</mgrwt>
</event>
<event>
12    1  0.1050690E-001  0.1863464E+03  0.7546771E-02  0.1162092E+00
         21   -1    0    0  503  502  0.00000000000E+00  0.00000000000E+00  0.11419617430E+03  0.11419617430E+03  0.00000000000E+00 0.  1.
         21   -1    0    0  501  503 -0.00000000000E+00 -0.00000000000E+00 -0.41195023087E+03  0.41195023087E+03  0.00000000000E+00 0.  1.
          6    2    1    2  501    0 -0.65196786371E+02  0.16341271022E+02 -0.28514642043E+03  0.34063683030E+03  0.17380250570E+03 0.  0.
         24    2    3    3    0    0 -0.10741931867E+03  0.16861806051E+02 -0.24329472255E+03  0.28099902513E+03  0.89134166164E+02 0.  0.
         -6    2    1    2    0  502  0.65196786371E+02 -0.16341271022E+02 -0.12607636148E+02  0.18550957487E+03  0.17244474996E+03 0.  0.
        -24    2    5    5    0    0 -0.60100992710E+01  0.41593405294E+02 -0.17455501557E+02  0.93463721725E+02  0.81637246933E+02 0.  0.
          5    1    3    3  501    0  0.42222532300E+02 -0.52053502867E+00 -0.41851697874E+02  0.59637805169E+02  0.47000000000E+01 0. -1.
        -11    1    4    4    0    0 -0.68885295511E+02  0.51041601619E+02 -0.18014949724E+03  0.19951007591E+03  0.00000000000E+00 0.  1.
         12    1    4    4    0    0 -0.38534023159E+02 -0.34179795569E+02 -0.63145225308E+02  0.81488949221E+02  0.00000000000E+00 0. -1.
         -5    1    5    5    0  502  0.71206885642E+02 -0.57934676316E+02  0.48478654093E+01  0.92045853148E+02  0.47000000000E+01 0.  1.
         11    1    6    6    0    0  0.35075088696E+02  0.33608484487E+02 -0.17429212788E+02  0.51609781388E+02  0.00000000000E+00 0. -1.
        -12    1    6    6    0    0 -0.41085187967E+02  0.79849208073E+01 -0.26288768637E-01  0.41853940336E+02  0.00000000000E+00 0.  1.
<mgrwt>
<rscale>  2 0.18602913E+03</rscale>
<asrwt>0</asrwt>
<pdfrwt beam="1">  1       21 0.17568642E-01 0.18634637E+03</pdfrwt>
<pdfrwt beam="2">  1       21 0.63376959E-01 0.18634637E+03</pdfrwt>
<totfact> 0.67791953E+04</totfact>
</mgrwt>
</event>
<event>
12    1  0.1050690E-001  0.1751316E+03  0.7546771E-02  0.1173301E+00
         21   -1    0    0  501  502  0.00000000000E+00  0.00000000000E+00  0.58423274349E+02  0.58423274349E+02  0.00000000000E+00 0. -1.
         21   -1    0    0  502  503 -0.00000000000E+00 -0.00000000000E+00 -0.53180215525E+03  0.53180215525E+03  0.00000000000E+00 0. -1.
         -6    2    1    2    0  503 -0.58939331683E+01 -0.38352483455E+01 -0.28458240535E+03  0.33270805004E+03  0.17221513739E+03 0.  0.
        -24    2    3    3    0    0 -0.57646192811E+02 -0.25102581557E+02 -0.11010059296E+03  0.14941432757E+03  0.79052372304E+02 0.  0.
          6    2    1    2  501    0  0.58939331683E+01  0.38352483455E+01 -0.18879647555E+03  0.25751737957E+03  0.17499041122E+03 0.  0.
         24    2    5    5    0    0  0.11008309151E+02 -0.16151788292E+02 -0.21134504671E+03  0.22659543693E+03  0.79351749398E+02 0.  0.
          5    1    5    5  501    0 -0.51143759823E+01  0.19987036637E+02  0.22548571158E+02  0.30921942637E+02  0.47000000000E+01 0. -1.
        -11    1    6    6    0    0 -0.21372833429E+02  0.17794461310E+02 -0.12769232121E+03  0.13068576724E+03  0.00000000000E+00 0.  1.
         12    1    6    6    0    0  0.32381142580E+02 -0.33946249602E+02 -0.83652725497E+02  0.95909669689E+02  0.00000000000E+00 0. -1.
         -5    1    3    3    0  503  0.51752259642E+02  0.21267333212E+02 -0.17448181239E+03  0.18329372247E+03  0.47000000000E+01 0.  1.
         13    1    4    4    0    0  0.15762775215E+02 -0.64671514985E+01 -0.49706105842E+02  0.52545086249E+02  0.00000000000E+00 0. -1.
        -14    1    4    4    0    0 -0.73408968025E+02 -0.18635430059E+02 -0.60394487120E+02  0.96869241323E+02  0.00000000000E+00 0.  1.
<mgrwt>
<rscale>  2 0.17443424E+03</rscale>
<asrwt>0</asrwt>
<pdfrwt beam="1">  1       21 0.89881959E-02 0.17513164E+03</pdfrwt>
<pdfrwt beam="2">  1       21 0.81815718E-01 0.17513164E+03</pdfrwt>
<totfact> 0.12880807E+05</totfact>
</mgrwt>
</event>
<event>
12    1  0.1050690E-001  0.2096032E+03  0.7546771E-02  0.1142172E+00
         21   -1    0    0  501  502  0.00000000000E+00  0.00000000000E+00  0.67447375595E+02  0.67447375595E+02  0.00000000000E+00 0.  1.
         21   -1    0    0  502  503 -0.00000000000E+00 -0.00000000000E+00 -0.10406618921E+04  0.10406618921E+04  0.00000000000E+00 0.  1.
         -6    2    1    2    0  503 -0.74396589876E+02  0.89741002346E+02 -0.82638599835E+03  0.85219495441E+03  0.17243584887E+03 0.  0.
        -24    2    3    3    0    0  0.17187424594E+02  0.52345884921E+01 -0.38875570117E+03  0.39714404221E+03  0.79180721076E+02 0.  0.
          6    2    1    2  501    0  0.74396589876E+02 -0.89741002346E+02 -0.14682851815E+03  0.25591431328E+03  0.17419879997E+03 0.  0.
         24    2    5    5    0    0  0.10004267681E+03 -0.37052811165E+02 -0.14444661731E+03  0.19707953856E+03  0.81203887023E+02 0.  0.
          5    1    5    5  501    0 -0.25646086932E+02 -0.52688191180E+02 -0.23819008439E+01  0.58834774721E+02  0.47000000000E+01 0. -1.
        -11    1    6    6    0    0  0.89837619613E+02 -0.60527188303E+02 -0.11305876069E+03  0.15657784578E+03  0.00000000000E+00 0.  1.
         12    1    6    6    0    0  0.10205057196E+02  0.23474377138E+02 -0.31387856618E+02  0.40501692772E+02  0.00000000000E+00 0. -1.
         -5    1    3    3    0  503 -0.91584014471E+02  0.84506413853E+02 -0.43763029718E+03  0.45505091220E+03  0.47000000000E+01 0.  1.
         11    1    4    4    0    0  0.71869037675E+01  0.41536876156E+02 -0.24142965721E+03  0.24508211491E+03  0.00000000000E+00 0. -1.
        -12    1    4    4    0    0  0.10000520827E+02 -0.36302287664E+02 -0.14732604396E+03  0.15206192731E+03  0.00000000000E+00 0.  1.
<mgrwt>
<rscale>  2 0.20923657E+03</rscale>
<asrwt>0</asrwt>
<pdfrwt beam="1">  1       21 0.10376520E-01 0.20960325E+03</pdfrwt>
<pdfrwt beam="2">  1       21 0.16010182E+00 0.20960325E+03</pdfrwt>
<totfact> 0.18877307E+04</totfact>
</mgrwt>
</event>
<event>
12    1  0.1050690E-001  0.2169961E+03  0.7546771E-02  0.1136182E+00
         21   -1    0    0  503  502  0.00000000000E+00  0.00000000000E+00  0.28203000893E+03  0.28203000893E+03  0.00000000000E+00 0. -1.
         21   -1    0    0  501  503 -0.00000000000E+00 -0.00000000000E+00 -0.20055818622E+03  0.20055818622E+03  0.00000000000E+00 0. -1.
          6    2    1    2  501    0 -0.44236375400E+02  0.12401036155E+03 -0.58244185535E+02  0.22467685761E+03  0.17248732857E+03 0.  0.
         24    2    3    3    0    0 -0.23956927614E+02  0.96337605383E+02  0.28815523177E+02  0.13098309946E+03  0.80444821929E+02 0.  0.
         -6    2    1    2    0  502  0.44236375400E+02 -0.12401036155E+03  0.13971600824E+03  0.25791133754E+03  0.17222737412E+03 0.  0.
        -24    2    5    5    0    0  0.41445234774E+02 -0.10079809180E+01  0.98324968973E+02  0.12801644066E+03  0.70722599242E+02 0.  0.
          5    1    3    3  501    0 -0.20279447786E+02  0.27672756162E+02 -0.87059708712E+02  0.93693758155E+02  0.47000000000E+01 0. -1.
        -13    1    4    4    0    0 -0.36991728361E+02  0.10201005570E+03  0.12319895474E+02  0.10920723078E+03  0.00000000000E+00 0.  1.
         14    1    4    4    0    0  0.13034800746E+02 -0.56724503163E+01  0.16495627703E+02  0.21775868671E+02  0.00000000000E+00 0. -1.
         -5    1    5    5    0  502  0.27911406256E+01 -0.12300238063E+03  0.41391039266E+02  0.12989489689E+03  0.47000000000E+01 0.  1.
         11    1    6    6    0    0  0.58676771025E+02 -0.12425517337E+02  0.62278683706E+02  0.86463815456E+02  0.00000000000E+00 0. -1.
        -12    1    6    6    0    0 -0.17231536251E+02  0.11417536419E+02  0.36046285267E+02  0.41552625200E+02  0.00000000000E+00 0.  1.
<mgrwt>
<rscale>  2 0.21694443E+03</rscale>
<asrwt>0</asrwt>
<pdfrwt beam="1">  1       21 0.43389232E-01 0.21699609E+03</pdfrwt>
<pdfrwt beam="2">  1       21 0.30855106E-01 0.21699609E+03</pdfrwt>
<totfact> 0.50914749E+04</totfact>
</mgrwt>
</event>
<event>
12    1  0.1050690E-001  0.1869934E+03  0.7546771E-02  0.1162477E+00
         21   -1    0    0  501  502  0.00000000000E+00  0.00000000000E+00  0.34713046146E+03  0.34713046146E+03  0.00000000000E+00 0. -1.
         21   -1    0    0  502  503 -0.00000000000E+00 -0.00000000000E+00 -0.26990335931E+03  0.26990335931E+03  0.00000000000E+00 0. -1.
         -6    2    1    2    0  503  0.19680679638E+02 -0.59037967310E+02 -0.20793381054E+03  0.27603046177E+03  0.17053895602E+03 0.  0.
        -24    2    3    3    0    0  0.33825105871E+01 -0.16801078764E+02 -0.21582653509E+03  0.22983554679E+03  0.77133440833E+02 0.  0.
          6    2    1    2  501    0 -0.19680679638E+02  0.59037967310E+02  0.28516091270E+03  0.34100335901E+03  0.17633415435E+03 0.  0.
         24    2    5    5    0    0  0.12845544811E+02  0.10263913808E+03  0.21912261597E+03  0.25531693066E+03  0.80450068755E+02 0.  0.
          5    1    5    5  501    0 -0.32526224449E+02 -0.43601170767E+02  0.66038296726E+02  0.85686428352E+02  0.47000000000E+01 0. -1.
        -13    1    6    6    0    0  0.63271257197E+01  0.40870113101E+02  0.18512255981E+02  0.45311171760E+02  0.00000000000E+00 0.  1.
         14    1    6    6    0    0  0.65184190917E+01  0.61769024976E+02  0.20061035999E+03  0.21000575890E+03  0.00000000000E+00 0. -1.
         -5    1    3    3    0  503  0.16298169051E+02 -0.42236888545E+02  0.78927245481E+01  0.46194914971E+02  0.47000000000E+01 0.  1.
         11    1    4    4    0    0  0.50365588996E+01  0.29707210715E+02 -0.11335837831E+03  0.11729453196E+03  0.00000000000E+00 0. -1.
        -12    1    4    4    0    0 -0.16540483125E+01 -0.46508289480E+02 -0.10246815678E+03  0.11254101484E+03  0.00000000000E+00 0.  1.
<mgrwt>
<rscale>  2 0.18561461E+03</rscale>
<asrwt>0</asrwt>
<pdfrwt beam="1">  1       21 0.53404687E-01 0.18699343E+03</pdfrwt>
<pdfrwt beam="2">  1       21 0.41523593E-01 0.18699343E+03</pdfrwt>
<totfact> 0.18597927E+04</totfact>
</mgrwt>
</event>
<event>
12    1  0.1050690E-001  0.2506977E+03  0.7546771E-02  0.1113075E+00
         21   -1    0    0  503  502  0.00000000000E+00  0.00000000000E+00  0.17918926943E+03  0.17918926943E+03  0.00000000000E+00 0.  1.
         21   -1    0    0  501  503 -0.00000000000E+00 -0.00000000000E+00 -0.36436230621E+03  0.36436230621E+03  0.00000000000E+00 0. -1.
          6    2    1    2  501    0 -0.16867255621E+03 -0.61059767925E+02 -0.14836473557E+03  0.29016613662E+03  0.17322114652E+03 0.  0.
         24    2    3    3    0    0 -0.11621141597E+03  0.20408684875E+02 -0.12590936162E+03  0.19058896124E+03  0.80928222411E+02 0.  0.
         -6    2    1    2    0  502  0.16867255621E+03  0.61059767925E+02 -0.36808301212E+02  0.25338543902E+03  0.17513024636E+03 0.  0.
        -24    2    5    5    0    0  0.13952177682E+02 -0.29840407818E+01 -0.28493228605E+02  0.85661751370E+02  0.79514173642E+02 0.  0.
          5    1    3    3  501    0 -0.52461140248E+02 -0.81468452800E+02 -0.22455373950E+02  0.99577175382E+02  0.47000000000E+01 0. -1.
        -13    1    4    4    0    0 -0.96133747013E+02  0.13789500568E+02 -0.45134236339E+02  0.10709316939E+03  0.00000000000E+00 0.  1.
         14    1    4    4    0    0 -0.20077668953E+02  0.66191843072E+01 -0.80775125282E+02  0.83495791845E+02  0.00000000000E+00 0. -1.
         -5    1    5    5    0  502  0.15472037853E+03  0.64043808707E+02 -0.83150726067E+01  0.16772368765E+03  0.47000000000E+01 0.  1.
         13    1    6    6    0    0 -0.79961627585E+01 -0.31940183440E+02 -0.35758108341E+02  0.48608191173E+02  0.00000000000E+00 0. -1.
        -14    1    6    6    0    0  0.21948340441E+02  0.28956142658E+02  0.72648797356E+01  0.37053560197E+02  0.00000000000E+00 0.  1.
<mgrwt>
<rscale>  2 0.25036455E+03</rscale>
<asrwt>0</asrwt>
<pdfrwt beam="1">  1       21 0.27567580E-01 0.25069769E+03</pdfrwt>
<pdfrwt beam="2">  1       21 0.56055739E-01 0.25069769E+03</pdfrwt>
<totfact> 0.36584836E+04</totfact>
</mgrwt>
</event>
<event>
11    1  0.1050690E-001  0.1984171E+03  0.7546771E-02  0.1154615E+00
         21   -1    0    0  503  502  0.00000000000E+00  0.00000000000E+00  0.11984237707E+04  0.11984237707E+04  0.00000000000E+00 0. -1.
         21   -1    0    0  501  503 -0.00000000000E+00 -0.00000000000E+00 -0.98794709407E+02  0.98794709407E+02  0.00000000000E+00 0. -1.
          6    2    1    2  501    0 -0.27455042423E+02 -0.49717391544E+02  0.27933916084E+01  0.18258050302E+03  0.17349996735E+03 0.  0.
         24    2    3    3    0    0 -0.39248879324E+02 -0.54966581859E+02  0.48999427753E+02  0.13437535429E+03  0.10532802225E+03 0.  0.
         -6    2    1    2    0  502  0.27455042423E+02  0.49717391544E+02  0.10968356697E+04  0.11146379771E+04  0.19011505806E+03 0.  0.
          5    1    3    3  501    0  0.11793836901E+02  0.52491903148E+01 -0.46206036144E+02  0.48205148729E+02  0.47000000000E+01 0. -1.
        -11    1    4    4    0    0 -0.30935916723E+02 -0.11955945585E+02 -0.29560291187E+02  0.44427315847E+02  0.00000000000E+00 0.  1.
         12    1    4    4    0    0 -0.83129626017E+01 -0.43010636274E+02  0.78559718939E+02  0.89948038443E+02  0.00000000000E+00 0. -1.
         -5    1    5    5    0  502  0.69916212813E+02 -0.26512018291E+01  0.15658232843E+03  0.17156754140E+03  0.47000000000E+01 0.  1.
         13    1    5    5    0    0 -0.25592784590E+02  0.45929319143E+02  0.58481981042E+03  0.58717859603E+03  0.00000000000E+00 0. -1.
        -14    1    5    5    0    0 -0.16868385799E+02  0.64392742307E+01  0.35543353085E+03  0.35589183967E+03  0.00000000000E+00 0.  1.
<mgrwt>
<rscale>  2 0.19432790E+03</rscale>
<asrwt>0</asrwt>
<pdfrwt beam="1">  1       21 0.18437288E+00 0.19841707E+03</pdfrwt>
<pdfrwt beam="2">  1       21 0.15199187E-01 0.19841707E+03</pdfrwt>
<totfact> 0.64779195E+03</totfact>
</mgrwt>
</event>
<event>
12    1  0.1050690E-001  0.2014643E+03  0.7546771E-02  0.1148685E+00
         21   -1    0    0  503  502  0.00000000000E+00  0.00000000000E+00  0.57509626438E+03  0.57509626438E+03  0.00000000000E+00 0. -1.
         21   -1    0    0  501  503 -0.00000000000E+00 -0.00000000000E+00 -0.78269107386E+02  0.78269107386E+02  0.00000000000E+00 0. -1.
          6    2    1    2  501    0  0.65452744198E+02 -0.78869600056E+02  0.14358721183E+03  0.24671278969E+03  0.17246865704E+03 0.  0.
         24    2    3    3    0    0  0.57402689893E+02 -0.78824945256E+02  0.17420312675E+03  0.21470920216E+03  0.79024498224E+02 0.  0.
         -6    2    1    2    0  502 -0.65452744198E+02  0.78869600056E+02  0.35323994516E+03  0.40665258207E+03  0.17344563446E+03 0.  0.
        -24    2    5    5    0    0 -0.27207237658E+02  0.95630086037E+02  0.33899986447E+03  0.36228477213E+03  0.80274534378E+02 0.  0.
          5    1    3    3  501    0  0.80500543047E+01 -0.44654800836E-01 -0.30615914923E+02  0.32003587533E+02  0.47000000000E+01 0. -1.
        -11    1    4    4    0    0  0.16861941594E+02 -0.80410917819E+02  0.94120449666E+02  0.12493558270E+03  0.00000000000E+00 0.  1.
         12    1    4    4    0    0  0.40540748299E+02  0.15859725634E+01  0.80082677087E+02  0.89773619460E+02  0.00000000000E+00 0. -1.
         -5    1    5    5    0  502 -0.38245506539E+02 -0.16760485981E+02  0.14240080686E+02  0.44367809938E+02  0.47000000000E+01 0.  1.
         11    1    6    6    0    0  0.22233745728E+02  0.63389210933E+02  0.20857470046E+03  0.21912539147E+03  0.00000000000E+00 0. -1.
        -12    1    6    6    0    0 -0.49440983386E+02  0.32240875104E+02  0.13042516401E+03  0.14315938067E+03  0.00000000000E+00 0.  1.
<mgrwt>
<rscale>  2 0.20125385E+03</rscale>
<asrwt>0</asrwt>
<pdfrwt beam="1">  1       21 0.88476346E-01 0.20146430E+03</pdfrwt>
<pdfrwt beam="2">  1       21 0.12041402E-01 0.20146430E+03</pdfrwt>
<totfact> 0.63469430E+04</totfact>
</mgrwt>
</event>
<event>
12    1  0.1050690E-001  0.2711467E+03  0.7546771E-02  0.1100936E+00
         21   -1    0    0  503  502  0.00000000000E+00  0.00000000000E+00  0.87377040197E+03  0.87377040197E+03  0.00000000000E+00 0. -1.
         21   -1    0    0  501  503 -0.00000000000E+00 -0.00000000000E+00 -0.87540529311E+02  0.87540529311E+02  0.00000000000E+00 0. -1.
          6    2    1    2  501    0 -0.20461032146E+03 -0.28003269772E+02  0.49828691653E+03  0.56728333113E+03  0.17570133701E+03 0.  0.
         24    2    3    3    0    0 -0.12576724569E+03  0.48600967146E+02  0.33903716909E+03  0.37371935780E+03  0.80873371852E+02 0.  0.
         -6    2    1    2    0  502  0.20461032146E+03  0.28003269772E+02  0.28794295614E+03  0.39402760016E+03  0.17232828245E+03 0.  0.
        -24    2    5    5    0    0  0.20286752112E+03 -0.54670417641E+01  0.18213144140E+03  0.28293545031E+03  0.75468453171E+02 0.  0.
          5    1    3    3  501    0 -0.78843075774E+02 -0.76604236918E+02  0.15924974744E+03  0.19356397333E+03  0.47000000000E+01 0. -1.
        -13    1    4    4    0    0 -0.22484251421E+02  0.17619599916E+02  0.15108691483E+02  0.32315080404E+02  0.00000000000E+00 0.  1.
         14    1    4    4    0    0 -0.10328299427E+03  0.30981367230E+02  0.32392847761E+03  0.34140427739E+03  0.00000000000E+00 0. -1.
         -5    1    5    5    0  502  0.17428003394E+01  0.33470311536E+02  0.10581151473E+03  0.11109214985E+03  0.47000000000E+01 0.  1.
         13    1    6    6    0    0  0.73616934178E+02 -0.37912280440E+02  0.60996133669E+02  0.10284610993E+03  0.00000000000E+00 0. -1.
        -14    1    6    6    0    0  0.12925058694E+03  0.32445238676E+02  0.12113530773E+03  0.18008934038E+03  0.00000000000E+00 0.  1.
<mgrwt>
<rscale>  2 0.27060169E+03</rscale>
<asrwt>0</asrwt>
<pdfrwt beam="1">  1       21 0.13442621E+00 0.27114669E+03</pdfrwt>
<pdfrwt beam="2">  1       21 0.13467774E-01 0.27114669E+03</pdfrwt>
<totfact> 0.18099536E+04</totfact>
</mgrwt>
</event>
<event>
12    1  0.1050690E-001  0.2707323E+03  0.7546771E-02  0.1100952E+00
         21   -1    0    0  503  502  0.00000000000E+00  0.00000000000E+00  0.11166935984E+04  0.11166935984E+04  0.00000000000E+00 0. -1.
         21   -1    0    0  501  503 -0.00000000000E+00 -0.00000000000E+00 -0.10854270536E+03  0.10854270536E+03  0.00000000000E+00 0. -1.
          6    2    1    2  501    0  0.47057037665E+02  0.20192274474E+03  0.11786138293E+03  0.29469270088E+03  0.17310494714E+03 0.  0.
         24    2    3    3    0    0  0.64202946981E+02  0.21790514061E+03  0.89006594512E+02  0.25722127178E+03  0.81461279644E+02 0.  0.
         -6    2    1    2    0  502 -0.47057037665E+02 -0.20192274474E+03  0.89028951011E+03  0.93054360289E+03  0.17409430041E+03 0.  0.
        -24    2    5    5    0    0  0.12239369780E+02 -0.17208642192E+03  0.50560266663E+03  0.54014338819E+03  0.79732581273E+02 0.  0.
          5    1    3    3  501    0 -0.17145909315E+02 -0.15982395871E+02  0.28854788421E+02  0.37471429101E+02  0.47000000000E+01 0. -1.
        -13    1    4    4    0    0  0.21730227905E+02  0.13650880932E+02 -0.83677962825E+01  0.26992024186E+02  0.00000000000E+00 0.  1.
         14    1    4    4    0    0  0.42472719075E+02  0.20425425968E+03  0.97374390794E+02  0.23022924759E+03  0.00000000000E+00 0. -1.
         -5    1    5    5    0  502 -0.59296407445E+02 -0.29836322819E+02  0.38468684348E+03  0.39040021470E+03  0.47000000000E+01 0.  1.
         13    1    6    6    0    0 -0.13802380614E+02 -0.88065966750E+02  0.35224478154E+03  0.36334901449E+03  0.00000000000E+00 0. -1.
        -14    1    6    6    0    0  0.26041750394E+02 -0.84020455172E+02  0.15335788509E+03  0.17679437369E+03  0.00000000000E+00 0.  1.
<mgrwt>
<rscale>  2 0.27057339E+03</rscale>
<asrwt>0</asrwt>
<pdfrwt beam="1">  1       21 0.17179901E+00 0.27073231E+03</pdfrwt>
<pdfrwt beam="2">  1       21 0.16698879E-01 0.27073231E+03</pdfrwt>
<totfact> 0.63131847E+03</totfact>
</mgrwt>
</event>
<event>
12    1  0.1050690E-001  0.1842638E+03  0.7546771E-02  0.1165885E+00
         21   -1    0    0  503  502  0.00000000000E+00  0.00000000000E+00  0.35218327195E+03  0.35218327195E+03  0.00000000000E+00 0. -1.
         21   -1    0    0  501  503 -0.00000000000E+00 -0.00000000000E+00 -0.38937515379E+03  0.38937515379E+03  0.00000000000E+00 0.  1.
          6    2    1    2  501    0 -0.14112775663E+02 -0.62494792693E+02 -0.34259892908E+03  0.38487005414E+03  0.16323652416E+03 0.  0.
         24    2    3    3    0    0 -0.35718028441E+02 -0.12858223130E+02 -0.30722673390E+03  0.32003288751E+03  0.81189110138E+02 0.  0.
         -6    2    1    2    0  502  0.14112775663E+02  0.62494792693E+02  0.30540704723E+03  0.35668837160E+03  0.17276678033E+03 0.  0.
        -24    2    5    5    0    0  0.35117148958E+02  0.99588514021E+02  0.27162113465E+03  0.30209253157E+03  0.79566139572E+02 0.  0.
          5    1    3    3  501    0  0.21605252778E+02 -0.49636569563E+02 -0.35372195174E+02  0.64837166633E+02  0.47000000000E+01 0. -1.
        -13    1    4    4    0    0 -0.96982674162E+01 -0.40027658306E+02 -0.23514830768E+03  0.23872787107E+03  0.00000000000E+00 0.  1.
         14    1    4    4    0    0 -0.26019761024E+02  0.27169435176E+02 -0.72078426221E+02  0.81305016438E+02  0.00000000000E+00 0. -1.
         -5    1    5    5    0  502 -0.21004373295E+02 -0.37093721328E+02  0.33785912582E+02  0.54595840029E+02  0.47000000000E+01 0.  1.
         11    1    6    6    0    0  0.59878528978E+02  0.80078436664E+02  0.21908659120E+03  0.24082551504E+03  0.00000000000E+00 0. -1.
        -12    1    6    6    0    0 -0.24761380020E+02  0.19510077357E+02  0.52534543449E+02  0.61267016529E+02  0.00000000000E+00 0.  1.
<mgrwt>
<rscale>  2 0.18199616E+03</rscale>
<asrwt>0</asrwt>
<pdfrwt beam="1">  1       21 0.54182042E-01 0.18426375E+03</pdfrwt>
<pdfrwt beam="2">  1       21 0.59903870E-01 0.18426375E+03</pdfrwt>
<totfact> 0.84213661E+03</totfact>
</mgrwt>
</event>
<event>
12    1  0.1050690E-001  0.1728792E+03  0.7546771E-02  0.1176455E+00
         21   -1    0    0  501  502  0.00000000000E+00  0.00000000000E+00  0.21350408491E+03  0.21350408491E+03  0.00000000000E+00 0.  1.
         21   -1    0    0  502  503 -0.00000000000E+00 -0.00000000000E+00 -0.14874458223E+03  0.14874458223E+03  0.00000000000E+00 0.  1.
         -6    2    1    2    0  503  0.10411029289E+02  0.12692109447E+02 -0.21912650415E+02  0.17426242565E+03  0.17209808125E+03 0.  0.
        -24    2    3    3    0    0  0.26929472045E+02 -0.56799637537E+02 -0.71400686495E+01  0.10117151635E+03  0.78951249837E+02 0.  0.
          6    2    1    2  501    0 -0.10411029289E+02 -0.12692109447E+02  0.86672153097E+02  0.18798624149E+03  0.16600387253E+03 0.  0.
         24    2    5    5    0    0 -0.54992473494E+02  0.37055653887E+02  0.77296158338E+02  0.12036712879E+03  0.64158054634E+02 0.  0.
          5    1    5    5  501    0  0.44581444205E+02 -0.49747763334E+02  0.93759947592E+01  0.67619112697E+02  0.47000000000E+01 0. -1.
        -13    1    6    6    0    0  0.95481228457E+01  0.24698102020E+02  0.20011628420E+02  0.33190784343E+02  0.00000000000E+00 0.  1.
         14    1    6    6    0    0 -0.64540596340E+02  0.12357551867E+02  0.57284529917E+02  0.87176344452E+02  0.00000000000E+00 0. -1.
         -5    1    3    3    0  503 -0.16518442755E+02  0.69491746985E+02 -0.14772581765E+02  0.73090909298E+02  0.47000000000E+01 0.  1.
         11    1    4    4    0    0 -0.23136502687E+02 -0.32020201812E+02  0.13305740258E+02  0.41684934982E+02  0.00000000000E+00 0. -1.
        -12    1    4    4    0    0  0.50065974732E+02 -0.24779435725E+02 -0.20445808907E+02  0.59486581366E+02  0.00000000000E+00 0.  1.
<mgrwt>
<rscale>  2 0.17134244E+03</rscale>
<asrwt>0</asrwt>
<pdfrwt beam="1">  1       21 0.32846782E-01 0.17287923E+03</pdfrwt>
<pdfrwt beam="2">  1       21 0.22883782E-01 0.17287923E+03</pdfrwt>
<totfact> 0.16087967E+05</totfact>
</mgrwt>
</event>
<event>
12    1  0.1050690E-001  0.3057363E+03  0.7546771E-02  0.1082555E+00
         21   -1    0    0  503  502  0.00000000000E+00  0.00000000000E+00  0.51068325449E+03  0.51068325449E+03  0.00000000000E+00 0.  1.
         21   -1    0    0  501  503 -0.00000000000E+00 -0.00000000000E+00 -0.18270549879E+03  0.18270549879E+03  0.00000000000E+00 0.  1.
          6    2    1    2  501    0 -0.14077053081E+03 -0.20881994923E+03  0.14765755880E+03  0.33843801268E+03  0.17121746469E+03 0.  0.
         24    2    3    3    0    0 -0.10728346882E+03 -0.15260307488E+03  0.17365376181E+03  0.26787164071E+03  0.82475122077E+02 0.  0.
         -6    2    1    2    0  502  0.14077053081E+03  0.20881994923E+03  0.18032019691E+03  0.35495074060E+03  0.17335668806E+03 0.  0.
        -24    2    5    5    0    0  0.10019209080E+01  0.94704739572E+02  0.85946485739E+02  0.15126953688E+03  0.80781698625E+02 0.  0.
          5    1    3    3  501    0 -0.33487061994E+02 -0.56216874352E+02 -0.25996203007E+02  0.70566371975E+02  0.47000000000E+01 0. -1.
        -11    1    4    4    0    0 -0.23915121450E+02 -0.53729414921E+02  0.10607759697E+02  0.59760418569E+02  0.00000000000E+00 0.  1.
         12    1    4    4    0    0 -0.83368347365E+02 -0.98873659959E+02  0.16304600211E+03  0.20811122214E+03  0.00000000000E+00 0. -1.
         -5    1    5    5    0  502  0.13976860990E+03  0.11411520966E+03  0.94373711170E+02  0.20368120372E+03  0.47000000000E+01 0.  1.
         11    1    6    6    0    0  0.29338148179E+02  0.93924807268E+01  0.39477802615E+02  0.50074370012E+02  0.00000000000E+00 0. -1.
        -12    1    6    6    0    0 -0.28336227271E+02  0.85312258845E+02  0.46468683124E+02  0.10119516686E+03  0.00000000000E+00 0.  1.
<mgrwt>
<rscale>  2 0.30543383E+03</rscale>
<asrwt>0</asrwt>
<pdfrwt beam="1">  1       21 0.78566654E-01 0.30573625E+03</pdfrwt>
<pdfrwt beam="2">  1       21 0.28108539E-01 0.30573625E+03</pdfrwt>
<totfact> 0.16347926E+04</totfact>
</mgrwt>
</event>
<event>
12    1  0.1050690E-001  0.1938614E+03  0.7546771E-02  0.1156891E+00
         21   -1    0    0  501  502  0.00000000000E+00  0.00000000000E+00  0.13896454944E+04  0.13896454944E+04  0.00000000000E+00 0. -1.
         21   -1    0    0  502  503 -0.00000000000E+00 -0.00000000000E+00 -0.42824742573E+02  0.42824742573E+02  0.00000000000E+00 0. -1.
         -6    2    1    2    0  503 -0.18767149514E+02  0.85117516282E+02  0.21428382521E+03  0.28346103583E+03  0.16381515072E+03 0.  0.
        -24    2    3    3    0    0 -0.41457517498E+02 -0.73702438947E+01  0.11047362270E+03  0.14250896338E+03  0.79569699503E+02 0.  0.
          6    2    1    2  501    0  0.18767149514E+02 -0.85117516282E+02  0.11325369266E+04  0.11490092011E+04  0.17316193776E+03 0.  0.
         24    2    5    5    0    0 -0.20439363313E+02 -0.64922480716E+02  0.34876756399E+03  0.36398595696E+03  0.78830622875E+02 0.  0.
          5    1    5    5  501    0  0.39206512827E+02 -0.20195035567E+02  0.78376936259E+03  0.78502324414E+03  0.47000000000E+01 0. -1.
        -13    1    6    6    0    0  0.28907148199E+02 -0.29983063501E+02  0.10827125506E+03  0.11600548257E+03  0.00000000000E+00 0.  1.
         14    1    6    6    0    0 -0.49346511511E+02 -0.34939417215E+02  0.24049630892E+03  0.24798047439E+03  0.00000000000E+00 0. -1.
         -5    1    3    3    0  503  0.22690367984E+02  0.92487760177E+02  0.10381020251E+03  0.14095207245E+03  0.47000000000E+01 0.  1.
         13    1    4    4    0    0  0.76084069060E+01 -0.86317218826E-02 -0.97981578237E+01  0.12405314462E+02  0.00000000000E+00 0. -1.
        -14    1    4    4    0    0 -0.49065924404E+02 -0.73616121728E+01  0.12027178053E+03  0.13010364892E+03  0.00000000000E+00 0.  1.
<mgrwt>
<rscale>  2 0.19175195E+03</rscale>
<asrwt>0</asrwt>
<pdfrwt beam="1">  1       21 0.21379158E+00 0.19386143E+03</pdfrwt>
<pdfrwt beam="2">  1       21 0.65884230E-02 0.19386143E+03</pdfrwt>
<totfact> 0.18434908E+04</totfact>
</mgrwt>
</event>
<event>
12    1  0.1050690E-001  0.2728964E+03  0.7546771E-02  0.1099647E+00
         21   -1    0    0  501  502  0.00000000000E+00  0.00000000000E+00  0.29693318641E+03  0.29693318641E+03  0.00000000000E+00 0.  1.
         21   -1    0    0  502  503 -0.00000000000E+00 -0.00000000000E+00 -0.46278210142E+03  0.46278210142E+03  0.00000000000E+00 0. -1.
         -6    2    1    2    0  503 -0.40082119376E+02  0.20750283996E+03 -0.34005445226E+03  0.43595606463E+03  0.17250117364E+03 0.  0.
        -24    2    3    3    0    0 -0.27816805096E+02  0.21000285283E+03 -0.35149626603E+03  0.41835796528E+03  0.81232931948E+02 0.  0.
          6    2    1    2  501    0  0.40082119376E+02 -0.20750283996E+03  0.17420553725E+03  0.32375922320E+03  0.17265126851E+03 0.  0.
         24    2    5    5    0    0 -0.83855565938E+01 -0.22668379534E+02  0.50828588757E+02  0.96257893993E+02  0.78088819499E+02 0.  0.
          5    1    5    5  501    0  0.48467675970E+02 -0.18483446042E+03  0.12337694849E+03  0.22750132921E+03  0.47000000000E+01 0. -1.
        -11    1    6    6    0    0  0.83643186518E+01 -0.16893108484E+02  0.68612294495E+02  0.71154661806E+02  0.00000000000E+00 0.  1.
         12    1    6    6    0    0 -0.16749875246E+02 -0.57752710504E+01 -0.17783705738E+02  0.25103232187E+02  0.00000000000E+00 0. -1.
         -5    1    3    3    0  503 -0.12265314280E+02 -0.25000128788E+01  0.11441813767E+02  0.17598099359E+02  0.47000000000E+01 0.  1.
         11    1    4    4    0    0 -0.57155451350E+01  0.11121633487E+03 -0.11012166767E+03  0.15661584303E+03  0.00000000000E+00 0. -1.
        -12    1    4    4    0    0 -0.22101259961E+02  0.98786517964E+02 -0.24137459836E+03  0.26174212225E+03  0.00000000000E+00 0.  1.
<mgrwt>
<rscale>  2 0.27287270E+03</rscale>
<asrwt>0</asrwt>
<pdfrwt beam="1">  1       21 0.45682028E-01 0.27289644E+03</pdfrwt>
<pdfrwt beam="2">  1       21 0.71197247E-01 0.27289644E+03</pdfrwt>
<totfact> 0.78010049E+03</totfact>
</mgrwt>
</event>
<event>
12    1  0.1050690E-001  0.1983097E+03  0.7546771E-02  0.1152027E+00
         21   -1    0    0  503  502  0.00000000000E+00  0.00000000000E+00  0.84185249145E+03  0.84185249145E+03  0.00000000000E+00 0. -1.
         21   -1    0    0  501  503 -0.00000000000E+00 -0.00000000000E+00 -0.60565175670E+02  0.60565175670E+02  0.00000000000E+00 0. -1.
          6    2    1    2  501    0  0.42698523209E+02 -0.80730055257E+02  0.16478233171E+03  0.25480270916E+03  0.17155377596E+03 0.  0.
         24    2    3    3    0    0  0.54658596676E+02  0.12690068763E+02  0.10118810945E+03  0.14106319081E+03  0.80691946766E+02 0.  0.
         -6    2    1    2    0  502 -0.42698523209E+02  0.80730055257E+02  0.61650498408E+03  0.64761495796E+03  0.17602906772E+03 0.  0.
        -24    2    5    5    0    0  0.43749983236E+02  0.23072524750E+02  0.26843770649E+03  0.28433730270E+03  0.79639795373E+02 0.  0.
          5    1    3    3  501    0 -0.11960073468E+02 -0.93420124019E+02  0.63594222262E+02  0.11373951835E+03  0.47000000000E+01 0. -1.
        -11    1    4    4    0    0  0.42228826252E+02  0.45823477787E+01  0.11387488799E+03  0.12153913687E+03  0.00000000000E+00 0.  1.
         12    1    4    4    0    0  0.12429770424E+02  0.81077209839E+01 -0.12686778543E+02  0.19524053937E+02  0.00000000000E+00 0. -1.
         -5    1    5    5    0  502 -0.86448506445E+02  0.57657530507E+02  0.34806727758E+03  0.36327765527E+03  0.47000000000E+01 0.  1.
         11    1    6    6    0    0  0.42568331977E+02  0.28317504728E+02  0.27271557128E+03  0.27746662283E+03  0.00000000000E+00 0. -1.
        -12    1    6    6    0    0  0.11816512589E+01 -0.52449799783E+01 -0.42778647946E+01  0.68706798696E+01  0.00000000000E+00 0.  1.
<mgrwt>
<rscale>  2 0.19731181E+03</rscale>
<asrwt>0</asrwt>
<pdfrwt beam="1">  1       21 0.12951576E+00 0.19830970E+03</pdfrwt>
<pdfrwt beam="2">  1       21 0.93177199E-02 0.19830970E+03</pdfrwt>
<totfact> 0.39974430E+04</totfact>
</mgrwt>
</event>
<event>
12    1  0.1050690E-001  0.1779854E+03  0.7546771E-02  0.1169912E+00
         21   -1    0    0  501  502  0.00000000000E+00  0.00000000000E+00  0.19920099293E+04  0.19920099293E+04  0.00000000000E+00 0. -1.
         21   -1    0    0  502  503 -0.00000000000E+00 -0.00000000000E+00 -0.18808198399E+02  0.18808198399E+02  0.00000000000E+00 0. -1.
         -6    2    1    2    0  503  0.36032262591E+01 -0.40513001181E+02  0.58652124063E+03  0.61276176290E+03  0.17267172860E+03 0.  0.
        -24    2    3    3    0    0 -0.21324072278E+02 -0.36066522982E+01  0.13342935252E+03  0.15746208371E+03  0.80766278191E+02 0.  0.
          6    2    1    2  501    0 -0.36032262591E+01  0.40513001181E+02  0.13866804903E+04  0.13980563648E+04  0.17327587989E+03 0.  0.
         24    2    5    5    0    0 -0.59336123602E+02 -0.12857968243E+02  0.80298761614E+03  0.80926601371E+03  0.80226344561E+02 0.  0.
          5    1    5    5  501    0  0.55732897343E+02  0.53370969424E+02  0.58369287411E+03  0.58879035107E+03  0.47000000000E+01 0. -1.
        -11    1    6    6    0    0 -0.49197967251E+02 -0.29457265884E+02  0.75908381646E+03  0.76124661636E+03  0.00000000000E+00 0.  1.
         12    1    6    6    0    0 -0.10138156352E+02  0.16599297641E+02  0.43903799678E+02  0.48019397357E+02  0.00000000000E+00 0. -1.
         -5    1    3    3    0  503  0.24927298537E+02 -0.36906348883E+02  0.45309188811E+03  0.45529967919E+03  0.47000000000E+01 0.  1.
         13    1    4    4    0    0  0.24047183982E+02 -0.12189008246E+02  0.90438876623E+02  0.94371761583E+02  0.00000000000E+00 0. -1.
        -14    1    4    4    0    0 -0.45371256260E+02  0.85823559479E+01  0.42990475900E+02  0.63090322129E+02  0.00000000000E+00 0.  1.
<mgrwt>
<rscale>  2 0.17783823E+03</rscale>
<asrwt>0</asrwt>
<pdfrwt beam="1">  1       21 0.30646290E+00 0.17798544E+03</pdfrwt>
<pdfrwt beam="2">  1       21 0.28935706E-02 0.17798544E+03</pdfrwt>
<totfact> 0.21370214E+04</totfact>
</mgrwt>
</event>
<event>
12    1  0.1050690E-001  0.1762671E+03  0.7546771E-02  0.1171739E+00
         21   -1    0    0  501  502  0.00000000000E+00  0.00000000000E+00  0.12043829113E+03  0.12043829113E+03  0.00000000000E+00 0. -1.
         21   -1    0    0  502  503 -0.00000000000E+00 -0.00000000000E+00 -0.33008388400E+03  0.33008388400E+03  0.00000000000E+00 0. -1.
         -6    2    1    2    0  503  0.62613371158E+01  0.31105308639E+02 -0.21152584714E+03  0.27534210573E+03  0.17338785023E+03 0.  0.
        -24    2    3    3    0    0  0.57573714118E+02  0.63174046904E+02 -0.14578770071E+03  0.18587167539E+03  0.77385614140E+02 0.  0.
          6    2    1    2  501    0 -0.62613371158E+01 -0.31105308639E+02  0.18802542769E+01  0.17518006941E+03  0.17227239127E+03 0.  0.
         24    2    5    5    0    0  0.35094241086E+02 -0.34026834269E+02  0.54030393169E+02  0.10839274915E+03  0.80251314474E+02 0.  0.
          5    1    5    5  501    0 -0.41355578202E+02  0.29215256299E+01 -0.52150138892E+02  0.66787320255E+02  0.47000000000E+01 0. -1.
        -11    1    6    6    0    0 -0.20213739858E+02 -0.58505324553E+00 -0.50319353270E+01  0.20838856482E+02  0.00000000000E+00 0.  1.
         12    1    6    6    0    0  0.55307980944E+02 -0.33441781024E+02  0.59062328496E+02  0.87553892669E+02  0.00000000000E+00 0. -1.
         -5    1    3    3    0  503 -0.51312377003E+02 -0.32068738265E+02 -0.65738146437E+02  0.89470430336E+02  0.47000000000E+01 0.  1.
         11    1    4    4    0    0  0.30413375273E+02 -0.58437424170E+01 -0.83358452270E+02  0.88925554740E+02  0.00000000000E+00 0. -1.
        -12    1    4    4    0    0  0.27160338846E+02  0.69017789321E+02 -0.62429248435E+02  0.96946120650E+02  0.00000000000E+00 0.  1.
<mgrwt>
<rscale>  2 0.17599218E+03</rscale>
<asrwt>0</asrwt>
<pdfrwt beam="1">  1       21 0.18528968E-01 0.17626710E+03</pdfrwt>
<pdfrwt beam="2">  1       21 0.50782135E-01 0.17626710E+03</pdfrwt>
<totfact> 0.98781231E+04</totfact>
</mgrwt>
</event>
<event>
12    1  0.1050690E-001  0.2072711E+03  0.7546771E-02  0.1143746E+00
         21   -1    0    0  501  502  0.00000000000E+00  0.00000000000E+00  0.11879238403E+04  0.11879238403E+04  0.00000000000E+00 0. -1.
         21   -1    0    0  502  503 -0.00000000000E+00 -0.00000000000E+00 -0.39565496070E+02  0.39565496070E+02  0.00000000000E+00 0. -1.
         -6    2    1    2    0  503 -0.43353519432E+02 -0.10616018791E+03  0.39423438596E+03  0.44540100907E+03  0.17266092396E+03 0.  0.
        -24    2    3    3    0    0 -0.87668079533E+02 -0.80194213167E+02  0.33987739441E+03  0.37046914261E+03  0.87257884449E+02 0.  0.
          6    2    1    2  501    0  0.43353519432E+02  0.10616018791E+03  0.75412395829E+03  0.78208832732E+03  0.17265484100E+03 0.  0.
         24    2    5    5    0    0  0.19864176443E+02  0.84569630262E+02  0.73524023681E+03  0.74471739811E+03  0.80493411819E+02 0.  0.
          5    1    5    5  501    0  0.23489342989E+02  0.21590557649E+02  0.18883721482E+02  0.37370929219E+02  0.47000000000E+01 0. -1.
        -11    1    6    6    0    0 -0.29449892610E+02  0.49440305710E+02  0.38638037996E+03  0.39064234028E+03  0.00000000000E+00 0.  1.
         12    1    6    6    0    0  0.49314069052E+02  0.35129324551E+02  0.34885985685E+03  0.35407505783E+03  0.00000000000E+00 0. -1.
         -5    1    3    3    0  503  0.44314560101E+02 -0.25965974744E+02  0.54356991553E+02  0.74931866466E+02  0.47000000000E+01 0.  1.
         11    1    4    4    0    0 -0.34196213426E+02 -0.50441412146E+02  0.65969497136E+02  0.89809195656E+02  0.00000000000E+00 0. -1.
        -12    1    4    4    0    0 -0.53471866107E+02 -0.29752801021E+02  0.27390789728E+03  0.28065994695E+03  0.00000000000E+00 0.  1.
<mgrwt>
<rscale>  2 0.20726983E+03</rscale>
<asrwt>0</asrwt>
<pdfrwt beam="1">  1       21 0.18275749E+00 0.20727110E+03</pdfrwt>
<pdfrwt beam="2">  1       21 0.60870003E-02 0.20727110E+03</pdfrwt>
<totfact> 0.33208243E+04</totfact>
</mgrwt>
</event>
<event>
12    1  0.1050690E-001  0.2672011E+03  0.7546771E-02  0.1102952E+00
         21   -1    0    0  503  502  0.00000000000E+00  0.00000000000E+00  0.10441014280E+03  0.10441014280E+03  0.00000000000E+00 0. -1.
         21   -1    0    0  501  503 -0.00000000000E+00 -0.00000000000E+00 -0.11851665993E+04  0.11851665993E+04  0.00000000000E+00 0. -1.
          6    2    1    2  501    0  0.15513582281E+03 -0.13110533561E+03 -0.95995446054E+03  0.99633695594E+03  0.17297118522E+03 0.  0.
         24    2    3    3    0    0  0.69904583685E+02 -0.71076832508E+02 -0.76115129069E+03  0.77180950628E+03  0.80000373299E+02 0.  0.
         -6    2    1    2    0  502 -0.15513582281E+03  0.13110533561E+03 -0.12080199596E+03  0.29323978617E+03  0.17361082172E+03 0.  0.
        -24    2    5    5    0    0 -0.12191341669E+03  0.15747521447E+03 -0.12770283697E+03  0.25001004657E+03  0.80843580294E+02 0.  0.
          5    1    3    3  501    0  0.85231239127E+02 -0.60028503101E+02 -0.19880316984E+03  0.22452744965E+03  0.47000000000E+01 0. -1.
        -13    1    4    4    0    0  0.19860768423E+02 -0.66000148778E+02 -0.56995416889E+03  0.57410645737E+03  0.00000000000E+00 0.  1.
         14    1    4    4    0    0  0.50043815261E+02 -0.50766837297E+01 -0.19119712180E+03  0.19770304891E+03  0.00000000000E+00 0. -1.
         -5    1    5    5    0  502 -0.33222406125E+02 -0.26369878856E+02  0.69008410070E+01  0.43229739604E+02  0.47000000000E+01 0.  1.
         11    1    6    6    0    0 -0.96923638355E+02  0.59422807611E+02 -0.64645776644E+02  0.13078355468E+03  0.00000000000E+00 0. -1.
        -12    1    6    6    0    0 -0.24989778332E+02  0.98052406855E+02 -0.63057060325E+02  0.11922649189E+03  0.00000000000E+00 0.  1.
<mgrwt>
<rscale>  2 0.26709729E+03</rscale>
<asrwt>0</asrwt>
<pdfrwt beam="1">  1       21 0.16063097E-01 0.26720114E+03</pdfrwt>
<pdfrwt beam="2">  1       21 0.18233334E+00 0.26720114E+03</pdfrwt>
<totfact> 0.57402628E+03</totfact>
</mgrwt>
</event>
<event>
12    1  0.1050690E-001  0.2341414E+03  0.7546771E-02  0.1124255E+00
         21   -1    0    0  503  502  0.00000000000E+00  0.00000000000E+00  0.19671639404E+03  0.19671639404E+03  0.00000000000E+00 0. -1.
         21   -1    0    0  501  503 -0.00000000000E+00 -0.00000000000E+00 -0.27900608787E+03  0.27900608787E+03  0.00000000000E+00 0. -1.
          6    2    1    2  501    0 -0.14875293199E+03  0.40727190747E+02 -0.68383338617E+02  0.24116847808E+03  0.17233634260E+03 0.  0.
         24    2    3    3    0    0 -0.84889563220E+02 -0.35852705786E+02 -0.28208400478E+01  0.12173840799E+03  0.79502379752E+02 0.  0.
         -6    2    1    2    0  502  0.14875293199E+03 -0.40727190747E+02 -0.13906355209E+02  0.23455400383E+03  0.17617052862E+03 0.  0.
        -24    2    5    5    0    0  0.10483769659E+03 -0.49718311486E+02 -0.72862403830E+02  0.16034286032E+03  0.83294956863E+02 0.  0.
          5    1    3    3  501    0 -0.63863368768E+02  0.76579896532E+02 -0.65562498569E+02  0.11943007009E+03  0.47000000000E+01 0. -1.
        -11    1    4    4    0    0 -0.54223967351E+02 -0.18401619574E+02 -0.40486168663E+02  0.70128368662E+02  0.00000000000E+00 0.  1.
         12    1    4    4    0    0 -0.30665595869E+02 -0.17451086211E+02  0.37665328616E+02  0.51610039330E+02  0.00000000000E+00 0. -1.
         -5    1    5    5    0  502  0.43915235394E+02  0.89911207388E+01  0.58956048621E+02  0.74211143508E+02  0.47000000000E+01 0.  1.
         11    1    6    6    0    0  0.61595175972E+02 -0.52891457056E+02 -0.69993545914E+01  0.81489035442E+02  0.00000000000E+00 0. -1.
        -12    1    6    6    0    0  0.43242520621E+02  0.31731455701E+01 -0.65863049238E+02  0.78853824875E+02  0.00000000000E+00 0.  1.
<mgrwt>
<rscale>  2 0.23342030E+03</rscale>
<asrwt>0</asrwt>
<pdfrwt beam="1">  1       21 0.30264061E-01 0.23414140E+03</pdfrwt>
<pdfrwt beam="2">  1       21 0.42924013E-01 0.23414140E+03</pdfrwt>
<totfact> 0.53664611E+04</totfact>
</mgrwt>
</event>
<event>
12    1  0.1050690E-001  0.2310087E+03  0.7546771E-02  0.1125991E+00
         21   -1    0    0  503  502  0.00000000000E+00  0.00000000000E+00  0.98744711621E+02  0.98744711621E+02  0.00000000000E+00 0. -1.
         21   -1    0    0  501  503 -0.00000000000E+00 -0.00000000000E+00 -0.54316150579E+03  0.54316150579E+03  0.00000000000E+00 0. -1.
          6    2    1    2  501    0  0.12962791482E+03  0.81423343160E+02 -0.19653908572E+03  0.30330285935E+03  0.17300825173E+03 0.  0.
         24    2    3    3    0    0  0.59529963881E+02  0.26291329049E+02 -0.19029638885E+03  0.21378010823E+03  0.72485643284E+02 0.  0.
         -6    2    1    2    0  502 -0.12962791482E+03 -0.81423343160E+02 -0.24787770845E+03  0.33860335806E+03  0.17255642158E+03 0.  0.
        -24    2    5    5    0    0 -0.15128087321E+03 -0.63926443253E+02 -0.14818795500E+03  0.23499289016E+03  0.79306340687E+02 0.  0.
          5    1    3    3  501    0  0.70097950935E+02  0.55132014111E+02 -0.62426968687E+01  0.89522751127E+02  0.47000000000E+01 0. -1.
        -11    1    4    4    0    0  0.52711575690E+02 -0.76068379285E+01 -0.15696295621E+03  0.16575205524E+03  0.00000000000E+00 0.  1.
         12    1    4    4    0    0  0.68183881913E+01  0.33898166978E+02 -0.33333432634E+02  0.48028052981E+02  0.00000000000E+00 0. -1.
         -5    1    5    5    0  502  0.21652958397E+02 -0.17496899907E+02 -0.99689753455E+02  0.10361046790E+03  0.47000000000E+01 0.  1.
         13    1    6    6    0    0 -0.19191567232E+02  0.10018409217E+02 -0.50196722345E+02  0.54666220925E+02  0.00000000000E+00 0. -1.
        -14    1    6    6    0    0 -0.13208930598E+03 -0.73944852470E+02 -0.97991232655E+02  0.18032666924E+03  0.00000000000E+00 0.  1.
<mgrwt>
<rscale>  2 0.23092409E+03</rscale>
<asrwt>0</asrwt>
<pdfrwt beam="1">  1       21 0.15191494E-01 0.23100868E+03</pdfrwt>
<pdfrwt beam="2">  1       21 0.83563309E-01 0.23100868E+03</pdfrwt>
<totfact> 0.46877405E+04</totfact>
</mgrwt>
</event>
<event>
12    1  0.1050690E-001  0.2051507E+03  0.7546771E-02  0.1145861E+00
         21   -1    0    0  501  502  0.00000000000E+00  0.00000000000E+00  0.45924066852E+03  0.45924066852E+03  0.00000000000E+00 0. -1.
         21   -1    0    0  502  503 -0.00000000000E+00 -0.00000000000E+00 -0.11591054694E+03  0.11591054694E+03  0.00000000000E+00 0.  1.
         -6    2    1    2    0  503 -0.10647316790E+03 -0.24105630886E+02  0.30492374934E+03  0.36643640060E+03  0.17140456777E+03 0.  0.
        -24    2    3    3    0    0 -0.30703060711E+02 -0.69876022344E+02  0.17953157181E+03  0.21287427616E+03  0.85197040665E+02 0.  0.
          6    2    1    2  501    0  0.10647316790E+03  0.24105630886E+02  0.38406372241E+02  0.20871481486E+03  0.17369285418E+03 0.  0.
         24    2    5    5    0    0  0.97621931907E+02 -0.73683488907E-02 -0.33975742855E+02  0.13176650951E+03  0.81719154932E+02 0.  0.
          5    1    5    5  501    0  0.88512359900E+01  0.24112999235E+02  0.72382115096E+02  0.76948305351E+02  0.47000000000E+01 0. -1.
        -13    1    6    6    0    0  0.29421989104E+02  0.19989806454E+02 -0.47578690259E+02  0.59405198187E+02  0.00000000000E+00 0.  1.
         14    1    6    6    0    0  0.68199942803E+02 -0.19997174803E+02  0.13602947404E+02  0.72361311324E+02  0.00000000000E+00 0. -1.
         -5    1    3    3    0  503 -0.75770107186E+02  0.45770391458E+02  0.12539217753E+03  0.15356212444E+03  0.47000000000E+01 0.  1.
         13    1    4    4    0    0 -0.50174461747E+02 -0.30411460268E+02  0.14661599155E+03  0.15791954441E+03  0.00000000000E+00 0. -1.
        -14    1    4    4    0    0  0.19471401036E+02 -0.39464562076E+02  0.32915580259E+02  0.54954731752E+02  0.00000000000E+00 0.  1.
<mgrwt>
<rscale>  2 0.20466558E+03</rscale>
<asrwt>0</asrwt>
<pdfrwt beam="1">  1       21 0.70652409E-01 0.20515074E+03</pdfrwt>
<pdfrwt beam="2">  1       21 0.17832392E-01 0.20515074E+03</pdfrwt>
<totfact> 0.51539510E+04</totfact>
</mgrwt>
</event>
<event>
12    1  0.1050690E-001  0.2135998E+03  0.7546771E-02  0.1139698E+00
         21   -1    0    0  503  502  0.00000000000E+00  0.00000000000E+00  0.12330943851E+03  0.12330943851E+03  0.00000000000E+00 0. -1.
         21   -1    0    0  501  503 -0.00000000000E+00 -0.00000000000E+00 -0.39727183405E+03  0.39727183405E+03  0.00000000000E+00 0. -1.
          6    2    1    2  501    0  0.10645359620E+03  0.46712112471E+02 -0.21635292509E+03  0.30402868815E+03  0.17919393244E+03 0.  0.
         24    2    3    3    0    0  0.96136458921E+02  0.66915825084E+02 -0.71605581908E+02  0.15743906817E+03  0.77069802424E+02 0.  0.
         -6    2    1    2    0  502 -0.10645359620E+03 -0.46712112471E+02 -0.57609470450E+02  0.21655258442E+03  0.17338333581E+03 0.  0.
        -24    2    5    5    0    0 -0.13997850257E+03 -0.34342380077E+02 -0.70516989934E+02  0.17826911951E+03  0.77677878772E+02 0.  0.
          5    1    3    3  501    0  0.10317137278E+02 -0.20203712613E+02 -0.14474734319E+03  0.14658961998E+03  0.47000000000E+01 0. -1.
        -13    1    4    4    0    0 -0.81018835614E+01  0.14392372132E+02  0.56604308818E+01  0.17459134302E+02  0.00000000000E+00 0.  1.
         14    1    4    4    0    0  0.10423834248E+03  0.52523452952E+02 -0.77266012790E+02  0.13997993387E+03  0.00000000000E+00 0. -1.
         -5    1    5    5    0  502  0.33524906365E+02 -0.12369732393E+02  0.12907519484E+02  0.38283464910E+02  0.47000000000E+01 0.  1.
         11    1    6    6    0    0 -0.77105542947E+02  0.20849094630E+02 -0.38779538253E+02  0.88790777039E+02  0.00000000000E+00 0. -1.
        -12    1    6    6    0    0 -0.62872959618E+02 -0.55191474708E+02 -0.31737451681E+02  0.89478342468E+02  0.00000000000E+00 0.  1.
<mgrwt>
<rscale>  2 0.21237662E+03</rscale>
<asrwt>0</asrwt>
<pdfrwt beam="1">  1       21 0.18970683E-01 0.21359975E+03</pdfrwt>
<pdfrwt beam="2">  1       21 0.61118743E-01 0.21359975E+03</pdfrwt>
<totfact> 0.62826448E+04</totfact>
</mgrwt>
</event>
<event>
12    1  0.1050690E-001  0.2020466E+03  0.7546771E-02  0.1148095E+00
         21   -1    0    0  503  502  0.00000000000E+00  0.00000000000E+00  0.24388358712E+03  0.24388358712E+03  0.00000000000E+00 0.  1.
         21   -1    0    0  501  503 -0.00000000000E+00 -0.00000000000E+00 -0.19484718269E+03  0.19484718269E+03  0.00000000000E+00 0.  1.
          6    2    1    2  501    0 -0.27084861783E+00 -0.10522579202E+03  0.10727403448E+03  0.22845844260E+03  0.17208428416E+03 0.  0.
         24    2    3    3    0    0 -0.50319072937E+02 -0.29704539494E+02  0.93411438366E+02  0.13668401309E+03  0.80885436570E+02 0.  0.
         -6    2    1    2    0  502  0.27084861783E+00  0.10522579202E+03 -0.58237630057E+02  0.21027232722E+03  0.17248272196E+03 0.  0.
        -24    2    5    5    0    0 -0.63490474937E+02  0.87476874528E+02 -0.29494290722E+02  0.13796188531E+03  0.80500463520E+02 0.  0.
          5    1    3    3  501    0  0.50048224319E+02 -0.75521252522E+02  0.13862596118E+02  0.91774429506E+02  0.47000000000E+01 0. -1.
        -11    1    4    4    0    0  0.22039521099E+02 -0.84635054730E+01  0.29854767875E+02  0.38061510480E+02  0.00000000000E+00 0.  1.
         12    1    4    4    0    0 -0.72358594037E+02 -0.21241034021E+02  0.63556670491E+02  0.98622502610E+02  0.00000000000E+00 0. -1.
         -5    1    5    5    0  502  0.63761323555E+02  0.17748917488E+02 -0.28743339335E+02  0.72310441913E+02  0.47000000000E+01 0.  1.
         11    1    6    6    0    0 -0.96976647482E+01  0.72924782048E+02  0.26776030767E+01  0.73615474573E+02  0.00000000000E+00 0. -1.
        -12    1    6    6    0    0 -0.53792810189E+02  0.14552092480E+02 -0.32171893799E+02  0.64346410732E+02  0.00000000000E+00 0.  1.
<mgrwt>
<rscale>  2 0.20196154E+03</rscale>
<asrwt>0</asrwt>
<pdfrwt beam="1">  1       21 0.37520552E-01 0.20204660E+03</pdfrwt>
<pdfrwt beam="2">  1       21 0.29976490E-01 0.20204660E+03</pdfrwt>
<totfact> 0.72811502E+04</totfact>
</mgrwt>
</event>
<event>
12    1  0.1050690E-001  0.2659493E+03  0.7546771E-02  0.1103793E+00
         21   -1    0    0  503  502  0.00000000000E+00  0.00000000000E+00  0.72943364044E+03  0.72943364044E+03  0.00000000000E+00 0.  1.
         21   -1    0    0  501  503 -0.00000000000E+00 -0.00000000000E+00 -0.10938951096E+03  0.10938951096E+03  0.00000000000E+00 0. -1.
          6    2    1    2  501    0  0.27367216390E+02  0.20007985555E+03  0.16563744814E+03  0.31231154943E+03  0.17123617186E+03 0.  0.
         24    2    3    3    0    0  0.41575663421E+02  0.55848389492E+02  0.21602114201E+02  0.10792744244E+03  0.79587078702E+02 0.  0.
         -6    2    1    2    0  502 -0.27367216390E+02 -0.20007985555E+03  0.45440668134E+03  0.52651160197E+03  0.17305525658E+03 0.  0.
        -24    2    5    5    0    0 -0.51246160234E+02 -0.41477205156E+02  0.19253843670E+03  0.21939261489E+03  0.81948412896E+02 0.  0.
          5    1    3    3  501    0 -0.14208447031E+02  0.14423146606E+03  0.14403533394E+03  0.20438410699E+03  0.47000000000E+01 0. -1.
        -11    1    4    4    0    0  0.89399239326E+01 -0.84880886515E+01  0.32692295509E+02  0.34939319893E+02  0.00000000000E+00 0.  1.
         12    1    4    4    0    0  0.32635739488E+02  0.64336478144E+02 -0.11090181308E+02  0.72988122550E+02  0.00000000000E+00 0. -1.
         -5    1    5    5    0  502  0.23878943844E+02 -0.15860265040E+03  0.26186824464E+03  0.30711898708E+03  0.47000000000E+01 0.  1.
         11    1    6    6    0    0 -0.72964082427E+02 -0.37151926386E+02  0.13700719233E+03  0.15960887729E+03  0.00000000000E+00 0. -1.
        -12    1    6    6    0    0  0.21717922194E+02 -0.43252787694E+01  0.55531244363E+02  0.59783737600E+02  0.00000000000E+00 0.  1.
<mgrwt>
<rscale>  2 0.26565379E+03</rscale>
<asrwt>0</asrwt>
<pdfrwt beam="1">  1       21 0.11222056E+00 0.26594931E+03</pdfrwt>
<pdfrwt beam="2">  1       21 0.16829156E-01 0.26594931E+03</pdfrwt>
<totfact> 0.18980914E+04</totfact>
</mgrwt>
</event>
<event>
12    1  0.1050690E-001  0.1917457E+03  0.7546771E-02  0.1158349E+00
         21   -1    0    0  501  502  0.00000000000E+00  0.00000000000E+00  0.16073226490E+03  0.16073226490E+03  0.00000000000E+00 0.  1.
         21   -1    0    0  502  503 -0.00000000000E+00 -0.00000000000E+00 -0.23377184295E+03  0.23377184295E+03  0.00000000000E+00 0.  1.
         -6    2    1    2    0  503 -0.63640925797E+02 -0.19155642259E+02 -0.81727500497E+02  0.20256166308E+03  0.17301657997E+03 0.  0.
        -24    2    3    3    0    0 -0.10783574975E+03  0.10213334259E+02 -0.52993097166E+02  0.14203501456E+03  0.75052087866E+02 0.  0.
          6    2    1    2  501    0  0.63640925797E+02  0.19155642259E+02  0.86879224476E+01  0.19194244477E+03  0.17985915612E+03 0.  0.
         24    2    5    5    0    0  0.58599122130E+02  0.40165285287E+01  0.76945901434E+02  0.12168680980E+03  0.73736139829E+02 0.  0.
          5    1    5    5  501    0  0.50418036671E+01  0.15139113730E+02 -0.68257978987E+02  0.70255634963E+02  0.47000000000E+01 0. -1.
        -13    1    6    6    0    0  0.27921060688E+02 -0.29679772793E+02  0.12244911909E+02  0.42548941358E+02  0.00000000000E+00 0.  1.
         14    1    6    6    0    0  0.30678061442E+02  0.33696301322E+02  0.64700989525E+02  0.79137868446E+02  0.00000000000E+00 0. -1.
         -5    1    3    3    0  503  0.44194823952E+02 -0.29368976518E+02 -0.28734403331E+02  0.60526648516E+02  0.47000000000E+01 0.  1.
         13    1    4    4    0    0 -0.39660873814E+02 -0.25801155469E+01  0.17239725208E+02  0.43322627266E+02  0.00000000000E+00 0. -1.
        -14    1    4    4    0    0 -0.68174875934E+02  0.12793449806E+02 -0.70232822374E+02  0.98712387294E+02  0.00000000000E+00 0.  1.
<mgrwt>
<rscale>  2 0.19012447E+03</rscale>
<asrwt>0</asrwt>
<pdfrwt beam="1">  1       21 0.24728041E-01 0.19174572E+03</pdfrwt>
<pdfrwt beam="2">  1       21 0.35964899E-01 0.19174572E+03</pdfrwt>
<totfact> 0.11534645E+05</totfact>
</mgrwt>
</event>
<event>
12    1  0.1050690E-001  0.2014804E+03  0.7546771E-02  0.1150817E+00
         21   -1    0    0  501  502  0.00000000000E+00  0.00000000000E+00  0.90396238612E+03  0.90396238612E+03  0.00000000000E+00 0. -1.
         21   -1    0    0  502  503 -0.00000000000E+00 -0.00000000000E+00 -0.42579117578E+02  0.42579117578E+02  0.00000000000E+00 0.  1.
         -6    2    1    2    0  503  0.92007075258E+02 -0.39093386516E+02  0.42727731959E+03  0.47239843178E+03  0.17493077415E+03 0.  0.
        -24    2    3    3    0    0  0.24915666628E+02  0.41638443901E+02  0.24216698739E+03  0.25954446625E+03  0.79774242241E+02 0.  0.
          6    2    1    2  501    0 -0.92007075258E+02  0.39093386516E+02  0.43410594895E+03  0.47414307192E+03  0.16238867869E+03 0.  0.
         24    2    5    5    0    0 -0.10094809423E+03  0.30861733063E+02  0.43994775400E+03  0.45986306403E+03  0.82322822552E+02 0.  0.
          5    1    5    5  501    0  0.89410189734E+01  0.82316534530E+01 -0.58418050549E+01  0.14280007883E+02  0.47000000000E+01 0. -1.
        -11    1    6    6    0    0 -0.55381702082E+02 -0.15839620298E+02  0.11725461274E+03  0.13063946841E+03  0.00000000000E+00 0.  1.
         12    1    6    6    0    0 -0.45566392149E+02  0.46701353361E+02  0.32269314126E+03  0.32922359563E+03  0.00000000000E+00 0. -1.
         -5    1    3    3    0  503  0.67091408630E+02 -0.80731830417E+02  0.18511033221E+03  0.21285396553E+03  0.47000000000E+01 0.  1.
         13    1    4    4    0    0 -0.86734585762E+01 -0.20294723169E+02  0.73824775285E+02  0.77053242100E+02  0.00000000000E+00 0. -1.
        -14    1    4    4    0    0  0.33589125204E+02  0.61933167070E+02  0.16834221210E+03  0.18249122415E+03  0.00000000000E+00 0.  1.
<mgrwt>
<rscale>  2 0.19872758E+03</rscale>
<asrwt>0</asrwt>
<pdfrwt beam="1">  1       21 0.13907112E+00 0.20148045E+03</pdfrwt>
<pdfrwt beam="2">  1       21 0.65506341E-02 0.20148045E+03</pdfrwt>
<totfact> 0.61450017E+04</totfact>
</mgrwt>
</event>
<event>
12    1  0.1050690E-001  0.2407396E+03  0.7546771E-02  0.1119377E+00
         21   -1    0    0  503  502  0.00000000000E+00  0.00000000000E+00  0.20667187242E+03  0.20667187242E+03  0.00000000000E+00 0.  1.
         21   -1    0    0  501  503 -0.00000000000E+00 -0.00000000000E+00 -0.36390942268E+03  0.36390942268E+03  0.00000000000E+00 0. -1.
          6    2    1    2  501    0 -0.54279422632E+00  0.16785650010E+03 -0.21564249475E+03  0.32285832518E+03  0.17192938476E+03 0.  0.
         24    2    3    3    0    0  0.19387745351E+02  0.18121525773E+03 -0.22087560237E+03  0.29785516081E+03  0.81956151679E+02 0.  0.
         -6    2    1    2    0  502  0.54279422632E+00 -0.16785650010E+03  0.58404944490E+02  0.24772296991E+03  0.17256718411E+03 0.  0.
        -24    2    5    5    0    0  0.43955569484E+02 -0.16022557799E+03  0.76750225483E+02  0.19974860840E+03  0.80028629347E+02 0.  0.
          5    1    3    3  501    0 -0.19930539578E+02 -0.13358757631E+02  0.52331076103E+01  0.25003164371E+02  0.47000000000E+01 0. -1.
        -13    1    4    4    0    0  0.18759466813E+02  0.67221928006E+02 -0.30949991377E+02  0.76345315286E+02  0.00000000000E+00 0.  1.
         14    1    4    4    0    0  0.62827853862E+00  0.11399332972E+03 -0.18992561099E+03  0.22150984553E+03  0.00000000000E+00 0. -1.
         -5    1    5    5    0  502 -0.43412775258E+02 -0.76309221104E+01 -0.18345280993E+02  0.47974361513E+02  0.47000000000E+01 0.  1.
         11    1    6    6    0    0  0.22270724395E+02 -0.77755204333E+02 -0.57662839432E+01  0.81087033467E+02  0.00000000000E+00 0. -1.
        -12    1    6    6    0    0  0.21684845089E+02 -0.82470373656E+02  0.82516509426E+02  0.11866157493E+03  0.00000000000E+00 0.  1.
<mgrwt>
<rscale>  2 0.24062528E+03</rscale>
<asrwt>0</asrwt>
<pdfrwt beam="1">  1       21 0.31795673E-01 0.24073955E+03</pdfrwt>
<pdfrwt beam="2">  1       21 0.55986065E-01 0.24073955E+03</pdfrwt>
<totfact> 0.27865476E+04</totfact>
</mgrwt>
</event>
<event>
12    1  0.1050690E-001  0.3081836E+03  0.7546771E-02  0.1081384E+00
         21   -1    0    0  501  502  0.00000000000E+00  0.00000000000E+00  0.77148238924E+03  0.77148238924E+03  0.00000000000E+00 0.  1.
         21   -1    0    0  502  503 -0.00000000000E+00 -0.00000000000E+00 -0.13472740839E+03  0.13472740839E+03  0.00000000000E+00 0. -1.
         -6    2    1    2    0  503  0.58518634715E+02 -0.24913931232E+03  0.18161314740E+03  0.35654516261E+03  0.16925214953E+03 0.  0.
        -24    2    3    3    0    0  0.25688445999E+02 -0.12075305870E+03  0.19790809528E+02  0.14733376129E+03  0.77938203913E+02 0.  0.
          6    2    1    2  501    0 -0.58518634715E+02  0.24913931232E+03  0.45514183344E+03  0.54966463502E+03  0.17170409109E+03 0.  0.
         24    2    5    5    0    0 -0.85540713918E+02  0.24494156015E+03  0.36062667945E+03  0.45116073550E+03  0.78618227514E+02 0.  0.
          5    1    5    5  501    0  0.27022079203E+02  0.41977521618E+01  0.94515153986E+02  0.98503899520E+02  0.47000000000E+01 0. -1.
        -11    1    6    6    0    0 -0.76840713157E+02  0.13349225513E+03  0.25163179683E+03  0.29503091118E+03  0.00000000000E+00 0.  1.
         12    1    6    6    0    0 -0.87000007608E+01  0.11144930503E+03  0.10899488263E+03  0.15612982432E+03  0.00000000000E+00 0. -1.
         -5    1    3    3    0  503  0.32830188716E+02 -0.12838625361E+03  0.16182233788E+03  0.20921140132E+03  0.47000000000E+01 0.  1.
         13    1    4    4    0    0  0.38557540122E+02 -0.31561052666E+02  0.27458559705E+02  0.56892499037E+02  0.00000000000E+00 0. -1.
        -14    1    4    4    0    0 -0.12869094124E+02 -0.89192006037E+02 -0.76677501768E+01  0.90441262249E+02  0.00000000000E+00 0.  1.
<mgrwt>
<rscale>  2 0.30784319E+03</rscale>
<asrwt>0</asrwt>
<pdfrwt beam="1">  1       21 0.11868960E+00 0.30818359E+03</pdfrwt>
<pdfrwt beam="2">  1       21 0.20727294E-01 0.30818359E+03</pdfrwt>
<totfact> 0.10969257E+04</totfact>
</mgrwt>
</event>
<event>
12    1  0.1050690E-001  0.2079838E+03  0.7546771E-02  0.1143418E+00
         21   -1    0    0  503  502  0.00000000000E+00  0.00000000000E+00  0.98236350569E+03  0.98236350569E+03  0.00000000000E+00 0.  1.
         21   -1    0    0  501  503 -0.00000000000E+00 -0.00000000000E+00 -0.93298311215E+02  0.93298311215E+02  0.00000000000E+00 0.  1.
          6    2    1    2  501    0  0.96083691761E+02  0.63570036584E+02  0.53306134681E+02  0.21470633636E+03  0.17315900642E+03 0.  0.
         24    2    3    3    0    0  0.11423831245E+03  0.80905898604E+02  0.77744459076E+02  0.17935886030E+03  0.80803733767E+02 0.  0.
         -6    2    1    2    0  502 -0.96083691761E+02 -0.63570036584E+02  0.83575905979E+03  0.86095548054E+03  0.17169131626E+03 0.  0.
        -24    2    5    5    0    0 -0.81112270475E+02 -0.10823390844E+03  0.59441876003E+03  0.61501598556E+03  0.81346302047E+02 0.  0.
          5    1    3    3  501    0 -0.18154620694E+02 -0.17335862020E+02 -0.24438324395E+02  0.35347476059E+02  0.47000000000E+01 0. -1.
        -11    1    4    4    0    0  0.77857827281E+02  0.24468273384E+02  0.71412375931E+01  0.81923958313E+02  0.00000000000E+00 0.  1.
         12    1    4    4    0    0  0.36380485173E+02  0.56437625220E+02  0.70603221483E+02  0.97434901990E+02  0.00000000000E+00 0. -1.
         -5    1    5    5    0  502 -0.14971421286E+02  0.44663871857E+02  0.24134029976E+03  0.24593949498E+03  0.47000000000E+01 0.  1.
         13    1    6    6    0    0 -0.52378154186E+02 -0.14383661894E+02  0.14111011280E+03  0.15120325625E+03  0.00000000000E+00 0. -1.
        -14    1    6    6    0    0 -0.28734116289E+02 -0.93850246547E+02  0.45330864723E+03  0.46381272931E+03  0.00000000000E+00 0.  1.
<mgrwt>
<rscale>  2 0.20767805E+03</rscale>
<asrwt>0</asrwt>
<pdfrwt beam="1">  1       21 0.15113284E+00 0.20798381E+03</pdfrwt>
<pdfrwt beam="2">  1       21 0.14353587E-01 0.20798381E+03</pdfrwt>
<totfact> 0.12315698E+04</totfact>
</mgrwt>
</event>
<event>
12    1  0.1050690E-001  0.1834290E+03  0.7546771E-02  0.1165079E+00
         21   -1    0    0  501  502  0.00000000000E+00  0.00000000000E+00  0.13859295404E+03  0.13859295404E+03  0.00000000000E+00 0. -1.
         21   -1    0    0  502  503 -0.00000000000E+00 -0.00000000000E+00 -0.51931613522E+03  0.51931613522E+03  0.00000000000E+00 0. -1.
         -6    2    1    2    0  503  0.37157609465E+02  0.40304648314E+02 -0.43117928140E+03  0.46766708483E+03  0.17260294583E+03 0.  0.
        -24    2    3    3    0    0  0.47320875504E+01  0.82479466909E+02 -0.35308837712E+03  0.37306048292E+03  0.87621154651E+02 0.  0.
          6    2    1    2  501    0 -0.37157609465E+02 -0.40304648314E+02  0.50456100223E+02  0.19024200442E+03  0.17504584993E+03 0.  0.
         24    2    5    5    0    0 -0.20207613694E+02 -0.94432074392E+02  0.22758037817E+02  0.12694624412E+03  0.79193789442E+02 0.  0.
          5    1    5    5  501    0 -0.16949995771E+02  0.54127426079E+02  0.27698062406E+02  0.63295760297E+02  0.47000000000E+01 0. -1.
        -11    1    6    6    0    0  0.21550202057E+02 -0.81936600541E+00 -0.14771164091E+01  0.21616300383E+02  0.00000000000E+00 0.  1.
         12    1    6    6    0    0 -0.41757815751E+02 -0.93612708387E+02  0.24235154226E+02  0.10532994374E+03  0.00000000000E+00 0. -1.
         -5    1    3    3    0  503  0.32425521914E+02 -0.42174818595E+02 -0.78090904279E+02  0.94606601915E+02  0.47000000000E+01 0.  1.
         11    1    4    4    0    0  0.40844473905E+02  0.36863936598E+02 -0.10856564995E+03  0.12171163141E+03  0.00000000000E+00 0. -1.
        -12    1    4    4    0    0 -0.36112386354E+02  0.45615530311E+02 -0.24452272717E+03  0.25134885151E+03  0.00000000000E+00 0.  1.
<mgrwt>
<rscale>  2 0.18284377E+03</rscale>
<asrwt>0</asrwt>
<pdfrwt beam="1">  1       21 0.21321993E-01 0.18342901E+03</pdfrwt>
<pdfrwt beam="2">  1       21 0.79894790E-01 0.18342901E+03</pdfrwt>
<totfact> 0.28388691E+04</totfact>
</mgrwt>
</event>
<event>
12    1  0.1050690E-001  0.1885668E+03  0.7546771E-02  0.1160966E+00
         21   -1    0    0  501  502  0.00000000000E+00  0.00000000000E+00  0.56750325261E+02  0.56750325261E+02  0.00000000000E+00 0.  1.
         21   -1    0    0  502  503 -0.00000000000E+00 -0.00000000000E+00 -0.64241621152E+03  0.64241621152E+03  0.00000000000E+00 0.  1.
         -6    2    1    2    0  503 -0.36544497444E+02 -0.65141375638E+02 -0.36823983968E+03  0.41136184538E+03  0.16744876588E+03 0.  0.
        -24    2    3    3    0    0 -0.16184456367E+02  0.18789902190E+01 -0.30931887067E+03  0.31971016072E+03  0.79189367235E+02 0.  0.
          6    2    1    2  501    0  0.36544497444E+02  0.65141375638E+02 -0.21742604658E+03  0.28780469140E+03  0.17314316488E+03 0.  0.
         24    2    5    5    0    0  0.49759547875E+00  0.10724168945E+03 -0.15545473706E+03  0.20453195415E+03  0.78524629506E+02 0.  0.
          5    1    5    5  501    0  0.36046901965E+02 -0.42100313812E+02 -0.61971309528E+02  0.83272737249E+02  0.47000000000E+01 0. -1.
        -11    1    6    6    0    0  0.13156280512E+02  0.10649596039E+03 -0.96778244272E+02  0.14450088533E+03  0.00000000000E+00 0.  1.
         12    1    6    6    0    0 -0.12658685034E+02  0.74572905835E+00 -0.58676492784E+02  0.60031068823E+02  0.00000000000E+00 0. -1.
         -5    1    3    3    0  503 -0.20360041076E+02 -0.67020365857E+02 -0.58920969004E+02  0.91651684658E+02  0.47000000000E+01 0.  1.
         13    1    4    4    0    0  0.14649022959E+02  0.46298696266E+01 -0.90107166026E+01  0.17810743390E+02  0.00000000000E+00 0. -1.
        -14    1    4    4    0    0 -0.30833479326E+02 -0.27508794076E+01 -0.30030815407E+03  0.30189941733E+03  0.00000000000E+00 0.  1.
<mgrwt>
<rscale>  2 0.18724941E+03</rscale>
<asrwt>0</asrwt>
<pdfrwt beam="1">  1       21 0.87308196E-02 0.18856684E+03</pdfrwt>
<pdfrwt beam="2">  1       21 0.98833259E-01 0.18856684E+03</pdfrwt>
<totfact> 0.87109076E+04</totfact>
</mgrwt>
</event>
<event>
12    1  0.1050690E-001  0.2245268E+03  0.7546771E-02  0.1130872E+00
         21   -1    0    0  501  502  0.00000000000E+00  0.00000000000E+00  0.19561154468E+04  0.19561154468E+04  0.00000000000E+00 0. -1.
         21   -1    0    0  502  503 -0.00000000000E+00 -0.00000000000E+00 -0.57331822348E+02  0.57331822348E+02  0.00000000000E+00 0. -1.
         -6    2    1    2    0  503  0.12918000218E+03 -0.66904262238E+02  0.19842635931E+03  0.29833003544E+03  0.16871317882E+03 0.  0.
        -24    2    3    3    0    0  0.10436280423E+03 -0.11139190576E+03  0.15784278065E+03  0.23302949488E+03  0.78029805241E+02 0.  0.
          6    2    1    2  501    0 -0.12918000218E+03  0.66904262238E+02  0.17003572652E+04  0.17151172337E+04  0.17102234638E+03 0.  0.
         24    2    5    5    0    0 -0.88724733225E+02 -0.15685803207E+02  0.68204235637E+03  0.69264714068E+03  0.80375138604E+02 0.  0.
          5    1    5    5  501    0 -0.40455268957E+02  0.82590065445E+02  0.10183149088E+04  0.10224700931E+04  0.47000000000E+01 0. -1.
        -11    1    6    6    0    0 -0.84474410089E+02  0.90368491656E+01  0.61890834876E+03  0.62471204148E+03  0.00000000000E+00 0.  1.
         12    1    6    6    0    0 -0.42503231364E+01 -0.24722652373E+02  0.63134007608E+02  0.67935099203E+02  0.00000000000E+00 0. -1.
         -5    1    3    3    0  503  0.24817197957E+02  0.44487643525E+02  0.40583578664E+02  0.65300540564E+02  0.47000000000E+01 0.  1.
         13    1    4    4    0    0  0.10960357863E+03 -0.11234508310E+03  0.12747622530E+03  0.20219928328E+03  0.00000000000E+00 0. -1.
        -14    1    4    4    0    0 -0.52407744015E+01  0.95317733302E+00  0.30366555348E+02  0.30830211596E+02  0.00000000000E+00 0.  1.
<mgrwt>
<rscale>  2 0.22408707E+03</rscale>
<asrwt>0</asrwt>
<pdfrwt beam="1">  1       21 0.30094079E+00 0.22452683E+03</pdfrwt>
<pdfrwt beam="2">  1       21 0.88202819E-02 0.22452683E+03</pdfrwt>
<totfact> 0.32905595E+03</totfact>
</mgrwt>
</event>
<event>
12    1  0.1050690E-001  0.2281267E+03  0.7546771E-02  0.1128319E+00
         21   -1    0    0  503  502  0.00000000000E+00  0.00000000000E+00  0.22702781793E+04  0.22702781793E+04  0.00000000000E+00 0.  1.
         21   -1    0    0  501  503 -0.00000000000E+00 -0.00000000000E+00 -0.72287259403E+02  0.72287259403E+02  0.00000000000E+00 0. -1.
          6    2    1    2  501    0  0.42089713379E+02 -0.14239874838E+03  0.12763334816E+03  0.25967747498E+03  0.17056720651E+03 0.  0.
         24    2    3    3    0    0  0.43747844043E+02 -0.84502144307E+01  0.39109811850E+02  0.99042903280E+02  0.79338763066E+02 0.  0.
         -6    2    1    2    0  502 -0.42089713379E+02  0.14239874838E+03  0.20703575717E+04  0.20828879637E+04  0.17318443073E+03 0.  0.
        -24    2    5    5    0    0 -0.14159317190E+02  0.47984180510E+02  0.15721130257E+04  0.15749864621E+04  0.80870405502E+02 0.  0.
          5    1    3    3  501    0 -0.16581306641E+01 -0.13394853395E+03  0.88523536309E+02  0.16063457170E+03  0.47000000000E+01 0. -1.
        -11    1    4    4    0    0  0.36957696580E+02 -0.30920940247E+02  0.53108821126E+02  0.71711385174E+02  0.00000000000E+00 0.  1.
         12    1    4    4    0    0  0.67901474633E+01  0.22470725817E+02 -0.13999009275E+02  0.27331518106E+02  0.00000000000E+00 0. -1.
         -5    1    5    5    0  502 -0.27930396190E+02  0.94414567873E+02  0.49824454605E+03  0.50790150160E+03  0.47000000000E+01 0.  1.
         11    1    6    6    0    0  0.32734856208E+02  0.15377379455E+02  0.46696299866E+03  0.46836148083E+03  0.00000000000E+00 0. -1.
        -12    1    6    6    0    0 -0.46894173398E+02  0.32606801055E+02  0.11051500270E+04  0.11066249813E+04  0.00000000000E+00 0.  1.
<mgrwt>
<rscale>  2 0.22762997E+03</rscale>
<asrwt>0</asrwt>
<pdfrwt beam="1">  1       21 0.34927351E+00 0.22812671E+03</pdfrwt>
<pdfrwt beam="2">  1       21 0.11121119E-01 0.22812671E+03</pdfrwt>
<totfact> 0.11319012E+03</totfact>
</mgrwt>
</event>
<event>
12    1  0.1050690E-001  0.1985549E+03  0.7546771E-02  0.1151145E+00
         21   -1    0    0  503  502  0.00000000000E+00  0.00000000000E+00  0.85615114906E+02  0.85615114906E+02  0.00000000000E+00 0. -1.
         21   -1    0    0  501  503 -0.00000000000E+00 -0.00000000000E+00 -0.47217644155E+03  0.47217644155E+03  0.00000000000E+00 0. -1.
          6    2    1    2  501    0  0.52799752982E+02  0.80483279397E+02 -0.24031967886E+03  0.31119339544E+03  0.17269165915E+03 0.  0.
         24    2    3    3    0    0  0.31943925512E+02  0.99199210428E+02 -0.86767056611E+02  0.15503402360E+03  0.75140725537E+02 0.  0.
         -6    2    1    2    0  502 -0.52799752982E+02 -0.80483279397E+02 -0.14624164778E+03  0.24659816102E+03  0.17366249247E+03 0.  0.
        -24    2    5    5    0    0 -0.55063614924E+02 -0.16757217428E+02 -0.15375014099E+03  0.18221956585E+03  0.79069958270E+02 0.  0.
          5    1    3    3  501    0  0.20855827471E+02 -0.18715931031E+02 -0.15355262225E+03  0.15615937184E+03  0.47000000000E+01 0. -1.
        -11    1    4    4    0    0 -0.44217120897E+01  0.41182791804E+01 -0.44337793116E+02  0.44747644180E+02  0.00000000000E+00 0.  1.
         12    1    4    4    0    0  0.36365637601E+02  0.95080931248E+02 -0.42429263495E+02  0.11028637942E+03  0.00000000000E+00 0. -1.
         -5    1    5    5    0  502  0.22638619417E+01 -0.63726061969E+02  0.75084932051E+01  0.64378595163E+02  0.47000000000E+01 0.  1.
         13    1    6    6    0    0 -0.65937377460E+02 -0.18147658926E+01 -0.68917365518E+02  0.95397245199E+02  0.00000000000E+00 0. -1.
        -14    1    6    6    0    0  0.10873762536E+02 -0.14942451535E+02 -0.84832775471E+02  0.86822320654E+02  0.00000000000E+00 0.  1.
<mgrwt>
<rscale>  2 0.19834238E+03</rscale>
<asrwt>0</asrwt>
<pdfrwt beam="1">  1       21 0.13171556E-01 0.19855486E+03</pdfrwt>
<pdfrwt beam="2">  1       21 0.72642529E-01 0.19855486E+03</pdfrwt>
<totfact> 0.84530786E+04</totfact>
</mgrwt>
</event>
<event>
12    1  0.1050690E-001  0.1995027E+03  0.7546771E-02  0.1150605E+00
         21   -1    0    0  503  502  0.00000000000E+00  0.00000000000E+00  0.15906919751E+03  0.15906919751E+03  0.00000000000E+00 0.  1.
         21   -1    0    0  501  503 -0.00000000000E+00 -0.00000000000E+00 -0.25499145311E+03  0.25499145311E+03  0.00000000000E+00 0.  1.
          6    2    1    2  501    0 -0.80967994792E+02 -0.56104152212E+02 -0.83462954987E+02  0.21625766713E+03  0.17348723775E+03 0.  0.
         24    2    3    3    0    0 -0.66549705260E+00 -0.78696206702E+02 -0.30781421991E+02  0.11748355115E+03  0.81617112274E+02 0.  0.
         -6    2    1    2    0  502  0.80967994792E+02  0.56104152212E+02 -0.12459300617E+02  0.19780298348E+03  0.17107686584E+03 0.  0.
        -24    2    5    5    0    0  0.63748362471E+01 -0.21764120471E+02 -0.30417830068E+02  0.88385407324E+02  0.79827441177E+02 0.  0.
          5    1    3    3  501    0 -0.80302497739E+02  0.22592054490E+02 -0.52681532997E+02  0.98774115983E+02  0.47000000000E+01 0. -1.
        -13    1    4    4    0    0 -0.85339594412E+01 -0.53005028167E+02 -0.58140342260E+02  0.79136975383E+02  0.00000000000E+00 0.  1.
         14    1    4    4    0    0  0.78684623885E+01 -0.25691178536E+02  0.27358920269E+02  0.38346575769E+02  0.00000000000E+00 0. -1.
         -5    1    5    5    0  502  0.74593158545E+02  0.77868272683E+02  0.17958529451E+02  0.10941757616E+03  0.47000000000E+01 0.  1.
         11    1    6    6    0    0  0.17986580238E+02  0.10128181461E+02 -0.46464087449E+02  0.50842979366E+02  0.00000000000E+00 0. -1.
        -12    1    6    6    0    0 -0.11611743991E+02 -0.31892301932E+02  0.16046257381E+02  0.37542427958E+02  0.00000000000E+00 0.  1.
<mgrwt>
<rscale>  2 0.19897748E+03</rscale>
<asrwt>0</asrwt>
<pdfrwt beam="1">  1       21 0.24472184E-01 0.19950267E+03</pdfrwt>
<pdfrwt beam="2">  1       21 0.39229454E-01 0.19950267E+03</pdfrwt>
<totfact> 0.98556559E+04</totfact>
</mgrwt>
</event>
<event>
12    1  0.1050690E-001  0.2918836E+03  0.7546771E-02  0.1089414E+00
         21   -1    0    0  501  502  0.00000000000E+00  0.00000000000E+00  0.30570815312E+03  0.30570815312E+03  0.00000000000E+00 0. -1.
         21   -1    0    0  502  503 -0.00000000000E+00 -0.00000000000E+00 -0.27851541562E+03  0.27851541562E+03  0.00000000000E+00 0.  1.
         -6    2    1    2    0  503  0.22181556423E+03 -0.77716508332E+02  0.20577015050E+02  0.29226500305E+03  0.17249179186E+03 0.  0.
        -24    2    3    3    0    0  0.17535474447E+03 -0.89240513958E+02 -0.39010558984E+02  0.21568707243E+03  0.79283880858E+02 0.  0.
          6    2    1    2  501    0 -0.22181556423E+03  0.77716508332E+02  0.66157224485E+01  0.29195856568E+03  0.17307234352E+03 0.  0.
         24    2    5    5    0    0 -0.10512053447E+03  0.22628543673E+02 -0.59792864581E+02  0.14675317924E+03  0.79993319760E+02 0.  0.
          5    1    5    5  501    0 -0.11669502976E+03  0.55087964658E+02  0.66408587029E+02  0.14520538644E+03  0.47000000000E+01 0. -1.
        -13    1    6    6    0    0 -0.78554876512E+02 -0.22407977919E+02 -0.34627280100E+02  0.88724487180E+02  0.00000000000E+00 0.  1.
         14    1    6    6    0    0 -0.26565657955E+02  0.45036521592E+02 -0.25165584480E+02  0.58028692058E+02  0.00000000000E+00 0. -1.
         -5    1    3    3    0  503  0.46460819759E+02  0.11524005626E+02  0.59587574034E+02  0.76577930618E+02  0.47000000000E+01 0.  1.
         13    1    4    4    0    0  0.15780326660E+03 -0.71527363201E+02 -0.47623373840E+01  0.17332257352E+03  0.00000000000E+00 0. -1.
        -14    1    4    4    0    0  0.17551477871E+02 -0.17713150757E+02 -0.34248221600E+02  0.42364498911E+02  0.00000000000E+00 0.  1.
<mgrwt>
<rscale>  2 0.29179760E+03</rscale>
<asrwt>0</asrwt>
<pdfrwt beam="1">  1       21 0.47032024E-01 0.29188360E+03</pdfrwt>
<pdfrwt beam="2">  1       21 0.42848525E-01 0.29188360E+03</pdfrwt>
<totfact> 0.21583016E+04</totfact>
</mgrwt>
</event>
<event>
12    1  0.1050690E-001  0.2200198E+03  0.7546771E-02  0.1134640E+00
         21   -1    0    0  501  502  0.00000000000E+00  0.00000000000E+00  0.47843722044E+03  0.47843722044E+03  0.00000000000E+00 0. -1.
         21   -1    0    0  502  503 -0.00000000000E+00 -0.00000000000E+00 -0.10021758671E+03  0.10021758671E+03  0.00000000000E+00 0.  1.
         -6    2    1    2    0  503  0.10002818489E+03 -0.91042760260E+02  0.16326956717E+03  0.27398114867E+03  0.17353471208E+03 0.  0.
        -24    2    3    3    0    0  0.36372112003E+02  0.62373540581E+01  0.12476523754E+03  0.15142426532E+03  0.77466822006E+02 0.  0.
          6    2    1    2  501    0 -0.10002818489E+03  0.91042760260E+02  0.21495006657E+03  0.30467365848E+03  0.16830949195E+03 0.  0.
         24    2    5    5    0    0 -0.55209882407E+02  0.80208788772E+02  0.57633023551E+02  0.14067122800E+03  0.83577796531E+02 0.  0.
          5    1    5    5  501    0 -0.44818302487E+02  0.10833971487E+02  0.15731704302E+03  0.16400243047E+03  0.47000000000E+01 0. -1.
        -13    1    6    6    0    0  0.95411254453E+01 -0.11984370352E+02  0.36595335142E+01  0.15749615647E+02  0.00000000000E+00 0.  1.
         14    1    6    6    0    0 -0.64751007852E+02  0.92193159124E+02  0.53973490037E+02  0.12492161236E+03  0.00000000000E+00 0. -1.
         -5    1    3    3    0  503  0.63656072890E+02 -0.97280114318E+02  0.38504329628E+02  0.12255688335E+03  0.47000000000E+01 0.  1.
         13    1    4    4    0    0 -0.70638109759E+00 -0.31888672290E+02  0.56574634355E+02  0.64946713905E+02  0.00000000000E+00 0. -1.
        -14    1    4    4    0    0  0.37078493101E+02  0.38126026349E+02  0.68190603186E+02  0.86477551414E+02  0.00000000000E+00 0.  1.
<mgrwt>
<rscale>  2 0.21898824E+03</rscale>
<asrwt>0</asrwt>
<pdfrwt beam="1">  1       21 0.73605725E-01 0.22001981E+03</pdfrwt>
<pdfrwt beam="2">  1       21 0.15418091E-01 0.22001981E+03</pdfrwt>
<totfact> 0.61082270E+04</totfact>
</mgrwt>
</event>
<event>
12    1  0.1050690E-001  0.2231609E+03  0.7546771E-02  0.1131680E+00
         21   -1    0    0  501  502  0.00000000000E+00  0.00000000000E+00  0.43800025817E+02  0.43800025817E+02  0.00000000000E+00 0.  1.
         21   -1    0    0  502  503 -0.00000000000E+00 -0.00000000000E+00 -0.11630331439E+04  0.11630331439E+04  0.00000000000E+00 0. -1.
         -6    2    1    2    0  503  0.58373184560E+02  0.12730120394E+03 -0.46231811634E+03  0.51304783131E+03  0.17282074910E+03 0.  0.
        -24    2    3    3    0    0  0.34354759705E+02  0.15946585331E+03 -0.36813193837E+03  0.41055599983E+03  0.80159198227E+02 0.  0.
          6    2    1    2  501    0 -0.58373184560E+02 -0.12730120394E+03 -0.65691500179E+03  0.69378533844E+03  0.17374622605E+03 0.  0.
         24    2    5    5    0    0 -0.10579905621E+01 -0.33621040936E+02 -0.46242825214E+03  0.47038392799E+03  0.79307361563E+02 0.  0.
          5    1    5    5  501    0 -0.57315193998E+02 -0.93680163008E+02 -0.19448674965E+03  0.22340141046E+03  0.47000000000E+01 0. -1.
        -11    1    6    6    0    0  0.63906631308E+01  0.22730163839E+02 -0.70345220285E+02  0.74202095256E+02  0.00000000000E+00 0.  1.
         12    1    6    6    0    0 -0.74486536929E+01 -0.56351204775E+02 -0.39208303185E+03  0.39618183273E+03  0.00000000000E+00 0. -1.
         -5    1    3    3    0  503  0.24018424855E+02 -0.32164649364E+02 -0.94186177963E+02  0.10249183148E+03  0.47000000000E+01 0.  1.
         11    1    4    4    0    0  0.52862539099E+02  0.77529575108E+02 -0.23614611382E+03  0.25410680850E+03  0.00000000000E+00 0. -1.
        -12    1    4    4    0    0 -0.18507779393E+02  0.81936278199E+02 -0.13198582456E+03  0.15644919133E+03  0.00000000000E+00 0.  1.
<mgrwt>
<rscale>  2 0.22298071E+03</rscale>
<asrwt>0</asrwt>
<pdfrwt beam="1">  1       21 0.67384654E-02 0.22316088E+03</pdfrwt>
<pdfrwt beam="2">  1       21 0.17892818E+00 0.22316088E+03</pdfrwt>
<totfact> 0.29304586E+04</totfact>
</mgrwt>
</event>
<event>
12    1  0.1050690E-001  0.2749277E+03  0.7546771E-02  0.1098631E+00
         21   -1    0    0  501  502  0.00000000000E+00  0.00000000000E+00  0.60911983147E+02  0.60911983147E+02  0.00000000000E+00 0. -1.
         21   -1    0    0  502  503 -0.00000000000E+00 -0.00000000000E+00 -0.20470531860E+04  0.20470531860E+04  0.00000000000E+00 0. -1.
         -6    2    1    2    0  503  0.17939087665E+03 -0.11590176586E+03 -0.16552409044E+04  0.16777556554E+04  0.17154381877E+03 0.  0.
        -24    2    3    3    0    0  0.20155120721E+03 -0.86443891994E+02 -0.13267677564E+04  0.13471871368E+04  0.80653991900E+02 0.  0.
          6    2    1    2  501    0 -0.17939087665E+03  0.11590176586E+03 -0.33090029847E+03  0.43020951373E+03  0.17312109123E+03 0.  0.
         24    2    5    5    0    0 -0.57286142972E+02 -0.21204352360E+02 -0.12436162084E+03  0.15382577869E+03  0.66822381860E+02 0.  0.
          5    1    5    5  501    0 -0.12210473368E+03  0.13710611822E+03 -0.20653867763E+03  0.27638373504E+03  0.47000000000E+01 0. -1.
        -13    1    6    6    0    0 -0.18727429390E+02  0.10693128004E+02 -0.20373142948E+01  0.21661261450E+02  0.00000000000E+00 0.  1.
         14    1    6    6    0    0 -0.38558713582E+02 -0.31897480364E+02 -0.12232430654E+03  0.13216451724E+03  0.00000000000E+00 0. -1.
         -5    1    3    3    0  503 -0.22160330560E+02 -0.29457873863E+02 -0.32847314795E+03  0.33056851863E+03  0.47000000000E+01 0.  1.
         13    1    4    4    0    0 -0.64044454807E+00 -0.17117847699E+02 -0.16794531922E+03  0.16881664944E+03  0.00000000000E+00 0. -1.
        -14    1    4    4    0    0  0.20219165176E+03 -0.69326044295E+02 -0.11588224372E+04  0.11783704873E+04  0.00000000000E+00 0.  1.
<mgrwt>
<rscale>  2 0.27467971E+03</rscale>
<asrwt>0</asrwt>
<pdfrwt beam="1">  1       21 0.93710762E-02 0.27492766E+03</pdfrwt>
<pdfrwt beam="2">  1       21 0.31493120E+00 0.27492766E+03</pdfrwt>
<totfact> 0.23328335E+03</totfact>
</mgrwt>
</event>
<event>
12    1  0.1050690E-001  0.1859500E+03  0.7546771E-02  0.1162293E+00
         21   -1    0    0  503  502  0.00000000000E+00  0.00000000000E+00  0.44292270826E+03  0.44292270826E+03  0.00000000000E+00 0. -1.
         21   -1    0    0  501  503 -0.00000000000E+00 -0.00000000000E+00 -0.90525819553E+02  0.90525819553E+02  0.00000000000E+00 0. -1.
          6    2    1    2  501    0  0.11375025892E+02 -0.67041352844E+02  0.76559807030E+02  0.20109401076E+03  0.17307068759E+03 0.  0.
         24    2    3    3    0    0  0.36412364924E+02 -0.35348000375E+01  0.94664819604E+02  0.13031384351E+03  0.81742978958E+02 0.  0.
         -6    2    1    2    0  502 -0.11375025892E+02  0.67041352844E+02  0.27583708167E+03  0.33235451706E+03  0.17248041969E+03 0.  0.
        -24    2    5    5    0    0  0.26129005736E+02  0.87097641778E+02  0.11913930748E+03  0.16991963918E+03  0.80061133188E+02 0.  0.
          5    1    3    3  501    0 -0.25037339031E+02 -0.63506552807E+02 -0.18105012574E+02  0.70780167247E+02  0.47000000000E+01 0. -1.
        -13    1    4    4    0    0  0.26352472768E+02  0.32255379332E+02  0.80296872123E+02  0.90456895755E+02  0.00000000000E+00 0.  1.
         14    1    4    4    0    0  0.10059892156E+02 -0.35790179370E+02  0.14367947481E+02  0.39856947755E+02  0.00000000000E+00 0. -1.
         -5    1    5    5    0  502 -0.37504031628E+02 -0.20056288933E+02  0.15669777419E+03  0.16243487788E+03  0.47000000000E+01 0.  1.
         11    1    6    6    0    0 -0.28967730962E+02  0.29460013789E+02  0.37369083418E+02  0.55708798632E+02  0.00000000000E+00 0. -1.
        -12    1    6    6    0    0  0.55096736698E+02  0.57637627989E+02  0.81770224066E+02  0.11421084055E+03  0.00000000000E+00 0.  1.
<mgrwt>
<rscale>  2 0.18581252E+03</rscale>
<asrwt>0</asrwt>
<pdfrwt beam="1">  1       21 0.68141954E-01 0.18594999E+03</pdfrwt>
<pdfrwt beam="2">  1       21 0.13927049E-01 0.18594999E+03</pdfrwt>
<totfact> 0.88478581E+04</totfact>
</mgrwt>
</event>
<event>
12    1  0.1050690E-001  0.2132040E+03  0.7546771E-02  0.1139308E+00
         21   -1    0    0  501  502  0.00000000000E+00  0.00000000000E+00  0.32986152819E+03  0.32986152819E+03  0.00000000000E+00 0.  1.
         21   -1    0    0  502  503 -0.00000000000E+00 -0.00000000000E+00 -0.27883148779E+03  0.27883148779E+03  0.00000000000E+00 0.  1.
         -6    2    1    2    0  503 -0.34210313572E+00  0.12338639620E+03 -0.19153767852E+03  0.28660536465E+03  0.17387246173E+03 0.  0.
        -24    2    3    3    0    0  0.14233844507E+02  0.15026936663E+03 -0.18699454534E+03  0.25533425325E+03  0.86285201608E+02 0.  0.
          6    2    1    2  501    0  0.34210313572E+00 -0.12338639620E+03  0.24256771892E+03  0.32208765133E+03  0.17227024432E+03 0.  0.
         24    2    5    5    0    0  0.52240242810E+02 -0.82130185529E+02  0.84296681076E+02  0.15042722130E+03  0.77768940606E+02 0.  0.
          5    1    5    5  501    0 -0.51898139674E+02 -0.41256210672E+02  0.15827103784E+03  0.17166043003E+03  0.47000000000E+01 0. -1.
        -13    1    6    6    0    0 -0.18129511615E+02 -0.30624484821E+02  0.36517577764E+02  0.50990898676E+02  0.00000000000E+00 0.  1.
         14    1    6    6    0    0  0.70369754425E+02 -0.51505700708E+02  0.47779103312E+02  0.99436322622E+02  0.00000000000E+00 0. -1.
         -5    1    3    3    0  503 -0.14575947643E+02 -0.26882970432E+02 -0.45431331840E+01  0.31271111398E+02  0.47000000000E+01 0.  1.
         11    1    4    4    0    0 -0.21622530980E+02  0.51506137599E+02 -0.11534357523E+03  0.12815832553E+03  0.00000000000E+00 0. -1.
        -12    1    4    4    0    0  0.35856375487E+02  0.98763229035E+02 -0.71650970108E+02  0.12717592771E+03  0.00000000000E+00 0.  1.
<mgrwt>
<rscale>  2 0.21287711E+03</rscale>
<asrwt>0</asrwt>
<pdfrwt beam="1">  1       21 0.50747927E-01 0.21320402E+03</pdfrwt>
<pdfrwt beam="2">  1       21 0.42897152E-01 0.21320402E+03</pdfrwt>
<totfact> 0.19071479E+04</totfact>
</mgrwt>
</event>
<event>
12    1  0.1050690E-001  0.2104983E+03  0.7546771E-02  0.1141271E+00
         21   -1    0    0  503  502  0.00000000000E+00  0.00000000000E+00  0.70381951010E+03  0.70381951010E+03  0.00000000000E+00 0. -1.
         21   -1    0    0  501  503 -0.00000000000E+00 -0.00000000000E+00 -0.62820991315E+02  0.62820991315E+02  0.00000000000E+00 0.  1.
          6    2    1    2  501    0 -0.29042211464E+02 -0.11663454761E+03  0.31486686323E+03  0.37874881343E+03  0.17280756456E+03 0.  0.
         24    2    3    3    0    0 -0.34915250737E+02 -0.53318737663E+01  0.19691440694E+03  0.21639842156E+03  0.82495391265E+02 0.  0.
         -6    2    1    2    0  502  0.29042211464E+02  0.11663454761E+03  0.32613165555E+03  0.38789168799E+03  0.17219476505E+03 0.  0.
        -24    2    5    5    0    0  0.38847934748E+00  0.12973234622E+03  0.17070456213E+03  0.22923400597E+03  0.81102092383E+02 0.  0.
          5    1    3    3  501    0  0.58730392725E+01 -0.11130267384E+03  0.11795245629E+03  0.16235039186E+03  0.47000000000E+01 0. -1.
        -11    1    4    4    0    0 -0.11854125741E+02 -0.71267111236E+01 -0.38092006456E+01  0.14346439212E+02  0.00000000000E+00 0.  1.
         12    1    4    4    0    0 -0.23061124996E+02  0.17948373573E+01  0.20072360759E+03  0.20205198235E+03  0.00000000000E+00 0. -1.
         -5    1    5    5    0  502  0.28653732117E+02 -0.13097798611E+02  0.15542709342E+03  0.15865768202E+03  0.47000000000E+01 0.  1.
         11    1    6    6    0    0 -0.11309815005E+02  0.36194424266E+02  0.11184998916E+03  0.11810321054E+03  0.00000000000E+00 0. -1.
        -12    1    6    6    0    0  0.11698294353E+02  0.93537921955E+02  0.58854572965E+02  0.11113079543E+03  0.00000000000E+00 0.  1.
<mgrwt>
<rscale>  2 0.21037246E+03</rscale>
<asrwt>0</asrwt>
<pdfrwt beam="1">  1       21 0.10827992E+00 0.21049827E+03</pdfrwt>
<pdfrwt beam="2">  1       21 0.96647684E-02 0.21049827E+03</pdfrwt>
<totfact> 0.57950866E+04</totfact>
</mgrwt>
</event>
<event>
12    1  0.1050690E-001  0.2196402E+03  0.7546771E-02  0.1135045E+00
         21   -1    0    0  501  502  0.00000000000E+00  0.00000000000E+00  0.16973066034E+04  0.16973066034E+04  0.00000000000E+00 0. -1.
         21   -1    0    0  502  503 -0.00000000000E+00 -0.00000000000E+00 -0.27875712490E+02  0.27875712490E+02  0.00000000000E+00 0. -1.
         -6    2    1    2    0  503  0.73455290620E+02 -0.11399249642E+03  0.78500457466E+03  0.81389107437E+03  0.16672291307E+03 0.  0.
        -24    2    3    3    0    0  0.23855254260E+02 -0.99599446558E+02  0.31099863866E+03  0.33705667874E+03  0.79987052242E+02 0.  0.
          6    2    1    2  501    0 -0.73455290620E+02  0.11399249642E+03  0.88442631629E+03  0.91129124156E+03  0.17277687645E+03 0.  0.
         24    2    5    5    0    0  0.14270661208E+02  0.81928164491E+02  0.34245022801E+03  0.36130566514E+03  0.79710407645E+02 0.  0.
          5    1    5    5  501    0 -0.87725951828E+02  0.32064331933E+02  0.54197608828E+03  0.54998557643E+03  0.47000000000E+01 0. -1.
        -11    1    6    6    0    0  0.73124052597E+01  0.92943872847E+02  0.33126288377E+03  0.34413243516E+03  0.00000000000E+00 0.  1.
         12    1    6    6    0    0  0.69582559485E+01 -0.11015708357E+02  0.11187344244E+02  0.17173229972E+02  0.00000000000E+00 0. -1.
         -5    1    3    3    0  503  0.49600036360E+02 -0.14393049866E+02  0.47400593600E+03  0.47683439563E+03  0.47000000000E+01 0.  1.
         13    1    4    4    0    0  0.31641662017E+02 -0.79516916328E+02  0.30168720231E+03  0.31359098009E+03  0.00000000000E+00 0. -1.
        -14    1    4    4    0    0 -0.77864077572E+01 -0.20082530231E+02  0.93114363481E+01  0.23465698649E+02  0.00000000000E+00 0.  1.
<mgrwt>
<rscale>  2 0.21844809E+03</rscale>
<asrwt>0</asrwt>
<pdfrwt beam="1">  1       21 0.26112401E+00 0.21964020E+03</pdfrwt>
<pdfrwt beam="2">  1       21 0.42885725E-02 0.21964020E+03</pdfrwt>
<totfact> 0.19493081E+04</totfact>
</mgrwt>
</event>
<event>
12    1  0.1050690E-001  0.1804242E+03  0.7546771E-02  0.1168224E+00
         21   -1    0    0  501  502  0.00000000000E+00  0.00000000000E+00  0.10528911886E+03  0.10528911886E+03  0.00000000000E+00 0. -1.
         21   -1    0    0  502  503 -0.00000000000E+00 -0.00000000000E+00 -0.32929363238E+03  0.32929363238E+03  0.00000000000E+00 0. -1.
         -6    2    1    2    0  503 -0.24604546707E+02  0.37777276116E+02 -0.17396358950E+03  0.25063168225E+03  0.17470089687E+03 0.  0.
        -24    2    3    3    0    0 -0.56669893390E+02  0.78319587604E+02 -0.14012755272E+03  0.18867336672E+03  0.81341709222E+02 0.  0.
          6    2    1    2  501    0  0.24604546707E+02 -0.37777276116E+02 -0.50040924018E+02  0.18395106899E+03  0.17117650363E+03 0.  0.
         24    2    5    5    0    0  0.34185468623E+02 -0.27016029091E+02  0.34862144712E+02  0.97705955606E+02  0.80203319969E+02 0.  0.
          5    1    5    5  501    0 -0.95809219161E+01 -0.10761247025E+02 -0.84903068730E+02  0.86245113381E+02  0.47000000000E+01 0. -1.
        -13    1    6    6    0    0 -0.15542902323E+02  0.17414882444E+02  0.16347925085E+02  0.28497624423E+02  0.00000000000E+00 0.  1.
         14    1    6    6    0    0  0.49728370946E+02 -0.44430911534E+02  0.18514219627E+02  0.69208331183E+02  0.00000000000E+00 0. -1.
         -5    1    3    3    0  503  0.32065346684E+02 -0.40542311488E+02 -0.33836036779E+02  0.61958315533E+02  0.47000000000E+01 0.  1.
         11    1    4    4    0    0 -0.67195452292E+02  0.42925471188E+02 -0.12605521086E+03  0.14915676676E+03  0.00000000000E+00 0. -1.
        -12    1    4    4    0    0  0.10525558902E+02  0.35394116416E+02 -0.14072341862E+02  0.39516599962E+02  0.00000000000E+00 0.  1.
<mgrwt>
<rscale>  2 0.17956554E+03</rscale>
<asrwt>0</asrwt>
<pdfrwt beam="1">  1       21 0.16198326E-01 0.18042425E+03</pdfrwt>
<pdfrwt beam="2">  1       21 0.50660558E-01 0.18042425E+03</pdfrwt>
<totfact> 0.12692666E+05</totfact>
</mgrwt>
</event>
<event>
12    1  0.1050690E-001  0.1834819E+03  0.7546771E-02  0.1165733E+00
         21   -1    0    0  501  502  0.00000000000E+00  0.00000000000E+00  0.50118309428E+02  0.50118309428E+02  0.00000000000E+00 0. -1.
         21   -1    0    0  502  503 -0.00000000000E+00 -0.00000000000E+00 -0.75127875816E+03  0.75127875816E+03  0.00000000000E+00 0. -1.
         -6    2    1    2    0  503 -0.38023746455E+02  0.13151092313E+02 -0.50016883178E+03  0.53276118771E+03  0.17901638561E+03 0.  0.
        -24    2    3    3    0    0 -0.91683626758E+02  0.32657481793E+02 -0.36348659885E+03  0.38455860749E+03  0.79312146079E+02 0.  0.
          6    2    1    2  501    0  0.38023746455E+02 -0.13151092313E+02 -0.20099161694E+03  0.26863587987E+03  0.17363424015E+03 0.  0.
         24    2    5    5    0    0  0.11492513233E+01  0.24556733601E+02 -0.19893038704E+03  0.21564581293E+03  0.79532784444E+02 0.  0.
          5    1    5    5  501    0  0.36874495132E+02 -0.37707825914E+02 -0.20612299020E+01  0.52990066947E+02  0.47000000000E+01 0. -1.
        -13    1    6    6    0    0 -0.11004281128E+02 -0.23845419630E+02 -0.31899904657E+02  0.41319513037E+02  0.00000000000E+00 0.  1.
         14    1    6    6    0    0  0.12153532451E+02  0.48402153231E+02 -0.16703048238E+03  0.17432629989E+03  0.00000000000E+00 0. -1.
         -5    1    3    3    0  503  0.53659880303E+02 -0.19506389480E+02 -0.13668223293E+03  0.14820258022E+03  0.47000000000E+01 0.  1.
         13    1    4    4    0    0 -0.67944789424E+02  0.12746034836E+02 -0.11522998027E+03  0.13437598062E+03  0.00000000000E+00 0. -1.
        -14    1    4    4    0    0 -0.23738837334E+02  0.19911446957E+02 -0.24825661859E+03  0.25018262687E+03  0.00000000000E+00 0.  1.
<mgrwt>
<rscale>  2 0.18215582E+03</rscale>
<asrwt>0</asrwt>
<pdfrwt beam="1">  1       21 0.77105100E-02 0.18348194E+03</pdfrwt>
<pdfrwt beam="2">  1       21 0.11558133E+00 0.18348194E+03</pdfrwt>
<totfact> 0.74406969E+04</totfact>
</mgrwt>
</event>
<event>
12    1  0.1050690E-001  0.1893343E+03  0.7546771E-02  0.1160052E+00
         21   -1    0    0  503  502  0.00000000000E+00  0.00000000000E+00  0.27695295986E+02  0.27695295986E+02  0.00000000000E+00 0.  1.
         21   -1    0    0  501  503 -0.00000000000E+00 -0.00000000000E+00 -0.13788639060E+04  0.13788639060E+04  0.00000000000E+00 0.  1.
          6    2    1    2  501    0  0.56066403275E+02 -0.52035276841E+02 -0.88477316513E+03  0.90480442161E+03  0.17319461893E+03 0.  0.
         24    2    3    3    0    0  0.62179853055E+02 -0.49823253734E+02 -0.31234459527E+03  0.33231964024E+03  0.80799172990E+02 0.  0.
         -6    2    1    2    0  502 -0.56066403275E+02  0.52035276841E+02 -0.46639544486E+03  0.50175478035E+03  0.16846969164E+03 0.  0.
        -24    2    5    5    0    0 -0.10140531564E+03  0.44443040975E+02 -0.37433309055E+03  0.39874591616E+03  0.81331550114E+02 0.  0.
          5    1    3    3  501    0 -0.61134497804E+01 -0.22120231072E+01 -0.57242856986E+03  0.57248478138E+03  0.47000000000E+01 0. -1.
        -11    1    4    4    0    0  0.18332061942E+02 -0.40162291995E+02 -0.52368265950E+02  0.68494594472E+02  0.00000000000E+00 0.  1.
         12    1    4    4    0    0  0.43847791113E+02 -0.96609617384E+01 -0.25997632932E+03  0.26382504576E+03  0.00000000000E+00 0. -1.
         -5    1    5    5    0  502  0.45338912362E+02  0.75922358654E+01 -0.92062354309E+02  0.10300886418E+03  0.47000000000E+01 0.  1.
         13    1    6    6    0    0 -0.19287335227E+02  0.15977108008E+02 -0.22164002417E+03  0.22305059873E+03  0.00000000000E+00 0. -1.
        -14    1    6    6    0    0 -0.82117980410E+02  0.28465932967E+02 -0.15269306638E+03  0.17569531743E+03  0.00000000000E+00 0.  1.
<mgrwt>
<rscale>  2 0.18824692E+03</rscale>
<asrwt>0</asrwt>
<pdfrwt beam="1">  1       21 0.42608145E-02 0.18933433E+03</pdfrwt>
<pdfrwt beam="2">  1       21 0.21213292E+00 0.18933433E+03</pdfrwt>
<totfact> 0.39751311E+04</totfact>
</mgrwt>
</event>
<event>
12    1  0.1050690E-001  0.1789488E+03  0.7546771E-02  0.1169386E+00
         21   -1    0    0  503  502  0.00000000000E+00  0.00000000000E+00  0.35424700182E+03  0.35424700182E+03  0.00000000000E+00 0. -1.
         21   -1    0    0  501  503 -0.00000000000E+00 -0.00000000000E+00 -0.13611347534E+03  0.13611347534E+03  0.00000000000E+00 0. -1.
          6    2    1    2  501    0  0.19126006886E+02 -0.25957296007E+02 -0.34344350867E+02  0.18221477598E+03  0.17602018291E+03 0.  0.
         24    2    3    3    0    0  0.36860825345E+02 -0.67881883040E+02  0.12688156318E+02  0.11659205494E+03  0.86406293028E+02 0.  0.
         -6    2    1    2    0  502 -0.19126006886E+02  0.25957296007E+02  0.25247787734E+03  0.30814570119E+03  0.17369257111E+03 0.  0.
        -24    2    5    5    0    0 -0.71762011737E+02  0.46698156476E+02  0.13816716524E+03  0.18051435237E+03  0.78515996551E+02 0.  0.
          5    1    3    3  501    0 -0.17734818459E+02  0.41924587032E+02 -0.47032507185E+02  0.65622721033E+02  0.47000000000E+01 0. -1.
        -13    1    4    4    0    0  0.40466081177E+02 -0.12666130117E+02  0.36884515739E+02  0.56199662626E+02  0.00000000000E+00 0.  1.
         14    1    4    4    0    0 -0.36052558322E+01 -0.55215752922E+02 -0.24196359421E+02  0.60392392316E+02  0.00000000000E+00 0. -1.
         -5    1    5    5    0  502  0.52636004851E+02 -0.20740860469E+02  0.11431071211E+03  0.12763134882E+03  0.47000000000E+01 0.  1.
         13    1    6    6    0    0 -0.52962789565E+02  0.23271236726E+02  0.13890307270E+03  0.15046817319E+03  0.00000000000E+00 0. -1.
        -14    1    6    6    0    0 -0.18799222172E+02  0.23426919750E+02 -0.73590746652E+00  0.30046179176E+02  0.00000000000E+00 0.  1.
<mgrwt>
<rscale>  2 0.17837383E+03</rscale>
<asrwt>0</asrwt>
<pdfrwt beam="1">  1       21 0.54499538E-01 0.17894885E+03</pdfrwt>
<pdfrwt beam="2">  1       21 0.20940535E-01 0.17894885E+03</pdfrwt>
<totfact> 0.67755277E+04</totfact>
</mgrwt>
</event>
<event>
12    1  0.1050690E-001  0.1814129E+03  0.7546771E-02  0.1167596E+00
         21   -1    0    0  501  502  0.00000000000E+00  0.00000000000E+00  0.55982986518E+03  0.55982986518E+03  0.00000000000E+00 0.  1.
         21   -1    0    0  502  503 -0.00000000000E+00 -0.00000000000E+00 -0.77127197526E+02  0.77127197526E+02  0.00000000000E+00 0.  1.
         -6    2    1    2    0  503  0.23116697950E+02 -0.47550167552E+02  0.77341580713E+02  0.19285320327E+03  0.16856819909E+03 0.  0.
        -24    2    3    3    0    0 -0.28206015719E+02  0.10742184967E+02  0.51027200982E+01  0.86680879737E+02  0.81096012842E+02 0.  0.
          6    2    1    2  501    0 -0.23116697950E+02  0.47550167552E+02  0.40536108694E+03  0.44410385944E+03  0.17353739368E+03 0.  0.
         24    2    5    5    0    0  0.26815810297E+01  0.65600515626E+02  0.39852107565E+03  0.41154250169E+03  0.78978252909E+02 0.  0.
          5    1    5    5  501    0 -0.25798278980E+02 -0.18050348075E+02  0.68400112874E+01  0.32561357747E+02  0.47000000000E+01 0. -1.
        -11    1    6    6    0    0 -0.34482631113E+02  0.39866020495E+02  0.27508438759E+03  0.28008886399E+03  0.00000000000E+00 0.  1.
         12    1    6    6    0    0  0.37164212143E+02  0.25734495132E+02  0.12343668807E+03  0.13145363770E+03  0.00000000000E+00 0. -1.
         -5    1    3    3    0  503  0.51322713669E+02 -0.58292352519E+02  0.72238860615E+02  0.10617232353E+03  0.47000000000E+01 0.  1.
         11    1    4    4    0    0 -0.81949667620E+01 -0.27188815026E+02  0.26422098015E+02  0.38788096193E+02  0.00000000000E+00 0. -1.
        -12    1    4    4    0    0 -0.20011048957E+02  0.37930999993E+02 -0.21319377917E+02  0.47892783544E+02  0.00000000000E+00 0.  1.
<mgrwt>
<rscale>  2 0.18021415E+03</rscale>
<asrwt>0</asrwt>
<pdfrwt beam="1">  1       21 0.86127669E-01 0.18141286E+03</pdfrwt>
<pdfrwt beam="2">  1       21 0.11865723E-01 0.18141286E+03</pdfrwt>
<totfact> 0.69959617E+04</totfact>
</mgrwt>
</event>
<event>
12    1  0.1050690E-001  0.2024567E+03  0.7546771E-02  0.1147781E+00
         21   -1    0    0  503  502  0.00000000000E+00  0.00000000000E+00  0.15669534301E+03  0.15669534301E+03  0.00000000000E+00 0.  1.
         21   -1    0    0  501  503 -0.00000000000E+00 -0.00000000000E+00 -0.28718238968E+03  0.28718238968E+03  0.00000000000E+00 0.  1.
          6    2    1    2  501    0 -0.25158804839E+02 -0.10155505041E+03  0.18735952121E+01  0.20199333108E+03  0.17277558195E+03 0.  0.
         24    2    3    3    0    0 -0.39897807594E+02 -0.95158041097E+02  0.58528192943E+02  0.14291716521E+03  0.79704949064E+02 0.  0.
         -6    2    1    2    0  502  0.25158804839E+02  0.10155505041E+03 -0.13236064189E+03  0.24188440161E+03  0.17332723530E+03 0.  0.
        -24    2    5    5    0    0  0.54505541280E+02  0.74358277810E+02 -0.20277374954E+02  0.12278089996E+03  0.78510954330E+02 0.  0.
          5    1    3    3  501    0  0.14739002755E+02 -0.63970093134E+01 -0.56654597731E+02  0.59076165875E+02  0.47000000000E+01 0. -1.
        -11    1    4    4    0    0 -0.46493460048E+02 -0.10610967674E+03  0.59233225858E+02  0.13011333664E+03  0.00000000000E+00 0.  1.
         12    1    4    4    0    0  0.65956524538E+01  0.10951635645E+02 -0.70503291526E+00  0.12803828568E+02  0.00000000000E+00 0. -1.
         -5    1    5    5    0  502 -0.29346736441E+02  0.27196772601E+02 -0.11208326693E+03  0.11910350165E+03  0.47000000000E+01 0.  1.
         13    1    6    6    0    0  0.43827760704E+02  0.17136997410E+02  0.20888114158E+02  0.51486528351E+02  0.00000000000E+00 0. -1.
        -14    1    6    6    0    0  0.10677780575E+02  0.57221280401E+02 -0.41165489112E+02  0.71294371605E+02  0.00000000000E+00 0.  1.
<mgrwt>
<rscale>  2 0.20233860E+03</rscale>
<asrwt>0</asrwt>
<pdfrwt beam="1">  1       21 0.24106976E-01 0.20245672E+03</pdfrwt>
<pdfrwt beam="2">  1       21 0.44181906E-01 0.20245672E+03</pdfrwt>
<totfact> 0.79539197E+04</totfact>
</mgrwt>
</event>
<event>
12    1  0.1050690E-001  0.2190636E+03  0.7546771E-02  0.1135201E+00
         21   -1    0    0  503  502  0.00000000000E+00  0.00000000000E+00  0.30032174660E+03  0.30032174660E+03  0.00000000000E+00 0. -1.
         21   -1    0    0  501  503 -0.00000000000E+00 -0.00000000000E+00 -0.54489181446E+03  0.54489181446E+03  0.00000000000E+00 0. -1.
          6    2    1    2  501    0  0.45229417476E+02 -0.12423385034E+03 -0.47892051865E+03  0.52664383479E+03  0.17466858837E+03 0.  0.
         24    2    3    3    0    0 -0.42253874402E+02 -0.58866348074E+02 -0.25308432708E+03  0.27574482695E+03  0.82054226833E+02 0.  0.
         -6    2    1    2    0  502 -0.45229417476E+02  0.12423385034E+03  0.23435045078E+03  0.31856972627E+03  0.17054848851E+03 0.  0.
        -24    2    5    5    0    0  0.37404239182E+02  0.60657192969E+02  0.87038147591E+02  0.13803353253E+03  0.79995279858E+02 0.  0.
          5    1    3    3  501    0  0.87483291878E+02 -0.65367502271E+02 -0.22583619158E+03  0.25089900784E+03  0.47000000000E+01 0. -1.
        -13    1    4    4    0    0 -0.19043626642E+02 -0.75132225691E+02 -0.21290818392E+03  0.22657759340E+03  0.00000000000E+00 0.  1.
         14    1    4    4    0    0 -0.23210247759E+02  0.16265877617E+02 -0.40176143157E+02  0.49167233548E+02  0.00000000000E+00 0. -1.
         -5    1    5    5    0  502 -0.82633656658E+02  0.63576657376E+02  0.14731230319E+03  0.18053619373E+03  0.47000000000E+01 0.  1.
         13    1    6    6    0    0  0.10190449380E+02  0.19647709651E+02  0.86002703755E+02  0.88805083223E+02  0.00000000000E+00 0. -1.
        -14    1    6    6    0    0  0.27213789802E+02  0.41009483318E+02  0.10354438360E+01  0.49228449309E+02  0.00000000000E+00 0.  1.
<mgrwt>
<rscale>  2 0.21824129E+03</rscale>
<asrwt>0</asrwt>
<pdfrwt beam="1">  1       21 0.46203346E-01 0.21906361E+03</pdfrwt>
<pdfrwt beam="2">  1       21 0.83829508E-01 0.21906361E+03</pdfrwt>
<totfact> 0.54426780E+03</totfact>
</mgrwt>
</event>
<event>
12    1  0.1050690E-001  0.2215409E+03  0.7546771E-02  0.1133184E+00
         21   -1    0    0  503  502  0.00000000000E+00  0.00000000000E+00  0.29814258604E+03  0.29814258604E+03  0.00000000000E+00 0. -1.
         21   -1    0    0  501  503 -0.00000000000E+00 -0.00000000000E+00 -0.57961357370E+03  0.57961357370E+03  0.00000000000E+00 0.  1.
          6    2    1    2  501    0  0.12396389982E+03  0.59369851163E+02 -0.51267137131E+03  0.55754684017E+03  0.17068894616E+03 0.  0.
         24    2    3    3    0    0  0.11039297400E+03  0.68159858595E+02 -0.51780315570E+03  0.53994401456E+03  0.81160678742E+02 0.  0.
         -6    2    1    2    0  502 -0.12396389982E+03 -0.59369851163E+02  0.23120038364E+03  0.32020931957E+03  0.17374856332E+03 0.  0.
        -24    2    5    5    0    0 -0.17177419711E+02 -0.20743460932E+02  0.24623683263E+02  0.84431090086E+02  0.76137561534E+02 0.  0.
          5    1    3    3  501    0  0.13570925826E+02 -0.87900074320E+01  0.51317843937E+01  0.17602825611E+02  0.47000000000E+01 0. -1.
        -13    1    4    4    0    0  0.91883144184E+02  0.23586844266E+02 -0.24160702599E+03  0.25956272155E+03  0.00000000000E+00 0.  1.
         14    1    4    4    0    0  0.18509829813E+02  0.44573014329E+02 -0.27619612971E+03  0.28038129302E+03  0.00000000000E+00 0. -1.
         -5    1    5    5    0  502 -0.10678648011E+03 -0.38626390230E+02  0.20657670038E+03  0.23577822948E+03  0.47000000000E+01 0.  1.
         13    1    6    6    0    0  0.93950522155E+01  0.10751106496E+02  0.38411104847E+02  0.40978851528E+02  0.00000000000E+00 0. -1.
        -14    1    6    6    0    0 -0.26572471926E+02 -0.31494567428E+02 -0.13787421584E+02  0.43452238558E+02  0.00000000000E+00 0.  1.
<mgrwt>
<rscale>  2 0.22094067E+03</rscale>
<asrwt>0</asrwt>
<pdfrwt beam="1">  1       21 0.45868091E-01 0.22154095E+03</pdfrwt>
<pdfrwt beam="2">  1       21 0.89171317E-01 0.22154095E+03</pdfrwt>
<totfact> 0.47837033E+03</totfact>
</mgrwt>
</event>
<event>
12    1  0.1050690E-001  0.2033357E+03  0.7546771E-02  0.1148244E+00
         21   -1    0    0  501  502  0.00000000000E+00  0.00000000000E+00  0.29067030955E+03  0.29067030955E+03  0.00000000000E+00 0. -1.
         21   -1    0    0  502  503 -0.00000000000E+00 -0.00000000000E+00 -0.21109889389E+03  0.21109889389E+03  0.00000000000E+00 0. -1.
         -6    2    1    2    0  503 -0.61862689914E+02  0.55180761686E+02 -0.10746262958E+03  0.22998616321E+03  0.18567043289E+03 0.  0.
        -24    2    3    3    0    0 -0.72203503851E+02  0.63276980300E+02 -0.14465498322E+03  0.19026409934E+03  0.77833419075E+02 0.  0.
          6    2    1    2  501    0  0.61862689914E+02 -0.55180761686E+02  0.18703404524E+03  0.27178304023E+03  0.17892003246E+03 0.  0.
         24    2    5    5    0    0  0.46177639443E+02 -0.45596852442E+02  0.22734701624E+02  0.10639187833E+03  0.81184467594E+02 0.  0.
          5    1    5    5  501    0  0.15685050471E+02 -0.95839092443E+01  0.16429934362E+03  0.16539116191E+03  0.47000000000E+01 0. -1.
        -13    1    6    6    0    0 -0.17507714857E+02  0.91792329296E+01  0.67078393646E+01  0.20875188757E+02  0.00000000000E+00 0.  1.
         14    1    6    6    0    0  0.63685354300E+02 -0.54776085372E+02  0.16026862259E+02  0.85516689569E+02  0.00000000000E+00 0. -1.
         -5    1    3    3    0  503  0.10340813936E+02 -0.80962186133E+01  0.37192353642E+02  0.39722063870E+02  0.47000000000E+01 0.  1.
         13    1    4    4    0    0 -0.13049252167E+02  0.54949608656E+02 -0.38167818575E+02  0.68165422674E+02  0.00000000000E+00 0. -1.
        -14    1    4    4    0    0 -0.59154251684E+02  0.83273716440E+01 -0.10648716464E+03  0.12209867667E+03  0.00000000000E+00 0.  1.
<mgrwt>
<rscale>  2 0.20178182E+03</rscale>
<asrwt>0</asrwt>
<pdfrwt beam="1">  1       21 0.44718509E-01 0.20333573E+03</pdfrwt>
<pdfrwt beam="2">  1       21 0.32476753E-01 0.20333573E+03</pdfrwt>
<totfact> 0.43556787E+04</totfact>
</mgrwt>
</event>
<event>
12    1  0.1050690E-001  0.2024933E+03  0.7546771E-02  0.1148318E+00
         21   -1    0    0  503  502  0.00000000000E+00  0.00000000000E+00  0.41513568501E+03  0.41513568501E+03  0.00000000000E+00 0.  1.
         21   -1    0    0  501  503 -0.00000000000E+00 -0.00000000000E+00 -0.15865247516E+03  0.15865247516E+03  0.00000000000E+00 0.  1.
          6    2    1    2  501    0 -0.97938040472E+02 -0.42323367833E+02 -0.50893665347E+02  0.20570652881E+03  0.16835047843E+03 0.  0.
         24    2    3    3    0    0 -0.11585408721E+03 -0.92215028785E+01  0.33266565821E+00  0.14196529269E+03  0.81528081196E+02 0.  0.
         -6    2    1    2    0  502  0.97938040472E+02  0.42323367833E+02  0.30737687520E+03  0.36808163135E+03  0.17210582993E+03 0.  0.
        -24    2    5    5    0    0  0.36625200838E+02  0.76745518037E+02  0.25383519624E+03  0.27957767599E+03  0.80623136805E+02 0.  0.
          5    1    3    3  501    0  0.17916046737E+02 -0.33101864955E+02 -0.51226331005E+02  0.63741236122E+02  0.47000000000E+01 0. -1.
        -13    1    4    4    0    0 -0.11940951045E+02  0.74034426947E+01 -0.29422471337E+02  0.32604893730E+02  0.00000000000E+00 0.  1.
         14    1    4    4    0    0 -0.10391313616E+03 -0.16624945573E+02  0.29755136995E+02  0.10936039896E+03  0.00000000000E+00 0. -1.
         -5    1    5    5    0  502  0.61312839634E+02 -0.34422150204E+02  0.53541678957E+02  0.88503955359E+02  0.47000000000E+01 0.  1.
         13    1    6    6    0    0 -0.21251846069E+02  0.99279959716E+00  0.57806535985E+02  0.61597258178E+02  0.00000000000E+00 0. -1.
        -14    1    6    6    0    0  0.57877046907E+02  0.75752718440E+02  0.19602866025E+03  0.21798041781E+03  0.00000000000E+00 0.  1.
<mgrwt>
<rscale>  2 0.20169309E+03</rscale>
<asrwt>0</asrwt>
<pdfrwt beam="1">  1       21 0.63867028E-01 0.20249332E+03</pdfrwt>
<pdfrwt beam="2">  1       21 0.24408073E-01 0.20249332E+03</pdfrwt>
<totfact> 0.35713634E+04</totfact>
</mgrwt>
</event>
<event>
12    1  0.1050690E-001  0.1980700E+03  0.7546771E-02  0.1151611E+00
         21   -1    0    0  501  502  0.00000000000E+00  0.00000000000E+00  0.38902893777E+03  0.38902893777E+03  0.00000000000E+00 0.  1.
         21   -1    0    0  502  503 -0.00000000000E+00 -0.00000000000E+00 -0.23993226020E+03  0.23993226020E+03  0.00000000000E+00 0. -1.
         -6    2    1    2    0  503 -0.31595113753E+02  0.91024574004E+02 -0.16528001641E+03  0.25797131302E+03  0.17305487636E+03 0.  0.
        -24    2    3    3    0    0 -0.10397301368E+02  0.72514443255E+02 -0.18885969344E+03  0.22095694609E+03  0.88247038815E+02 0.  0.
          6    2    1    2  501    0  0.31595113753E+02 -0.91024574004E+02  0.31437669398E+03  0.37098988495E+03  0.17180531055E+03 0.  0.
         24    2    5    5    0    0 -0.37963451904E+02 -0.91064161066E+02  0.20617432998E+03  0.24227222028E+03  0.80337222166E+02 0.  0.
          5    1    5    5  501    0  0.69558565657E+02  0.39587061857E-01  0.10820236400E+03  0.12871766467E+03  0.47000000000E+01 0. -1.
        -11    1    6    6    0    0 -0.25170305509E+02  0.79559209168E+01  0.31720547277E+02  0.41267833437E+02  0.00000000000E+00 0.  1.
         12    1    6    6    0    0 -0.12793146395E+02 -0.99020081983E+02  0.17445378270E+03  0.20100438684E+03  0.00000000000E+00 0. -1.
         -5    1    3    3    0  503 -0.21197812385E+02  0.18510130749E+02  0.23579677039E+02  0.37014366934E+02  0.47000000000E+01 0.  1.
         13    1    4    4    0    0  0.17358772735E+02  0.43539586903E+02 -0.26777179760E+02  0.53981848564E+02  0.00000000000E+00 0. -1.
        -14    1    4    4    0    0 -0.27756074103E+02  0.28974856352E+02 -0.16208251368E+03  0.16697509752E+03  0.00000000000E+00 0.  1.
<mgrwt>
<rscale>  2 0.19779671E+03</rscale>
<asrwt>0</asrwt>
<pdfrwt beam="1">  1       21 0.59850606E-01 0.19806997E+03</pdfrwt>
<pdfrwt beam="2">  1       21 0.36912655E-01 0.19806997E+03</pdfrwt>
<totfact> 0.18378414E+04</totfact>
</mgrwt>
</event>
<event>
12    1  0.1050690E-001  0.1935610E+03  0.7546771E-02  0.1155537E+00
         21   -1    0    0  503  502  0.00000000000E+00  0.00000000000E+00  0.85938514166E+03  0.85938514166E+03  0.00000000000E+00 0.  1.
         21   -1    0    0  501  503 -0.00000000000E+00 -0.00000000000E+00 -0.46033098144E+02  0.46033098144E+02  0.00000000000E+00 0. -1.
          6    2    1    2  501    0 -0.18795285121E+02 -0.85417164797E+02  0.51500346335E+03  0.54978116161E+03  0.17141004525E+03 0.  0.
         24    2    3    3    0    0  0.18767823393E+02 -0.20174877970E+02  0.12093720998E+03  0.14856071702E+03  0.81763200692E+02 0.  0.
         -6    2    1    2    0  502  0.18795285121E+02  0.85417164797E+02  0.29834858017E+03  0.35563707820E+03  0.17267455318E+03 0.  0.
        -24    2    5    5    0    0  0.23889787435E+02  0.67605252534E+02  0.88122652020E+02  0.14454409149E+03  0.89365544091E+02 0.  0.
          5    1    3    3  501    0 -0.37563108514E+02 -0.65242286827E+02  0.39406625338E+03  0.40122044459E+03  0.47000000000E+01 0. -1.
        -13    1    4    4    0    0  0.12369173399E+02 -0.46171070967E+02  0.10944229743E+03  0.11942520970E+03  0.00000000000E+00 0.  1.
         14    1    4    4    0    0  0.63986499943E+01  0.25996192997E+02  0.11494912543E+02  0.29135507315E+02  0.00000000000E+00 0. -1.
         -5    1    5    5    0  502 -0.50945023146E+01  0.17811912263E+02  0.21022592815E+03  0.21109298671E+03  0.47000000000E+01 0.  1.
         11    1    6    6    0    0  0.47764004555E+02  0.73831540037E+02  0.56853014727E+02  0.10471275815E+03  0.00000000000E+00 0. -1.
        -12    1    6    6    0    0 -0.23874217119E+02 -0.62262875024E+01  0.31269637293E+02  0.39831333339E+02  0.00000000000E+00 0.  1.
<mgrwt>
<rscale>  2 0.19327857E+03</rscale>
<asrwt>0</asrwt>
<pdfrwt beam="1">  1       21 0.13221309E+00 0.19356099E+03</pdfrwt>
<pdfrwt beam="2">  1       21 0.70820158E-02 0.19356099E+03</pdfrwt>
<totfact> 0.61379634E+04</totfact>
</mgrwt>
</event>
<event>
12    1  0.1050690E-001  0.2222499E+03  0.7546771E-02  0.1132253E+00
         21   -1    0    0  501  502  0.00000000000E+00  0.00000000000E+00  0.30131212375E+03  0.30131212375E+03  0.00000000000E+00 0. -1.
         21   -1    0    0  502  503 -0.00000000000E+00 -0.00000000000E+00 -0.34992439966E+03  0.34992439966E+03  0.00000000000E+00 0.  1.
         -6    2    1    2    0  503  0.13843911569E+03 -0.13943504674E+02 -0.26179678806E+03  0.34341310517E+03  0.17330664294E+03 0.  0.
        -24    2    3    3    0    0  0.12689931664E+03  0.42538323336E+02 -0.14937991823E+03  0.21698918939E+03  0.82807021605E+02 0.  0.
          6    2    1    2  501    0 -0.13843911569E+03  0.13943504674E+02  0.21318451215E+03  0.30782341825E+03  0.17305435714E+03 0.  0.
         24    2    5    5    0    0 -0.14493959855E+03 -0.20410111992E+02  0.21562368272E+03  0.27246147814E+03  0.79483486457E+02 0.  0.
          5    1    5    5  501    0  0.65004828590E+01  0.34353616667E+02 -0.24391705704E+01  0.35361940113E+02  0.47000000000E+01 0. -1.
        -13    1    6    6    0    0 -0.37136424725E+02 -0.44465364168E+01  0.84065246893E+01  0.38334780355E+02  0.00000000000E+00 0.  1.
         14    1    6    6    0    0 -0.10780317382E+03 -0.15963575576E+02  0.20721715803E+03  0.23412669778E+03  0.00000000000E+00 0. -1.
         -5    1    3    3    0  503  0.11539799050E+02 -0.56481828010E+02 -0.11241686983E+03  0.12642391578E+03  0.47000000000E+01 0.  1.
         13    1    4    4    0    0  0.11810238735E+03  0.43958522892E+02 -0.15964959780E+03  0.20339252619E+03  0.00000000000E+00 0. -1.
        -14    1    4    4    0    0  0.87969292890E+01 -0.14201995561E+01  0.10269679571E+02  0.13596663201E+02  0.00000000000E+00 0.  1.
<mgrwt>
<rscale>  2 0.22220068E+03</rscale>
<asrwt>0</asrwt>
<pdfrwt beam="1">  1       21 0.46355712E-01 0.22224987E+03</pdfrwt>
<pdfrwt beam="2">  1       21 0.53834523E-01 0.22224987E+03</pdfrwt>
<totfact> 0.14283798E+04</totfact>
</mgrwt>
</event>
<event>
12    1  0.1050690E-001  0.2059520E+03  0.7546771E-02  0.1145486E+00
         21   -1    0    0  501  502  0.00000000000E+00  0.00000000000E+00  0.30222805282E+02  0.30222805282E+02  0.00000000000E+00 0. -1.
         21   -1    0    0  502  503 -0.00000000000E+00 -0.00000000000E+00 -0.15815002366E+04  0.15815002366E+04  0.00000000000E+00 0.  1.
         -6    2    1    2    0  503 -0.48098374033E+02 -0.94459885804E+02 -0.10570193982E+04  0.10762725595E+04  0.17273242470E+03 0.  0.
        -24    2    3    3    0    0  0.68757604519E+01 -0.11800649302E+03 -0.76542758863E+03  0.77857393407E+03  0.79530930453E+02 0.  0.
          6    2    1    2  501    0  0.48098374033E+02  0.94459885804E+02 -0.49425803310E+03  0.53545048237E+03  0.17657885540E+03 0.  0.
         24    2    5    5    0    0 -0.26399289321E+02 -0.25073622295E+01 -0.17453507757E+03  0.19310941365E+03  0.78265848214E+02 0.  0.
          5    1    5    5  501    0  0.74497663354E+02  0.96967248034E+02 -0.31972295554E+03  0.34234106872E+03  0.47000000000E+01 0. -1.
        -13    1    6    6    0    0  0.22868010211E+02  0.64326634291E+01 -0.10355844508E+03  0.10624818397E+03  0.00000000000E+00 0.  1.
         14    1    6    6    0    0 -0.49267299532E+02 -0.89400256587E+01 -0.70976632488E+02  0.86861229679E+02  0.00000000000E+00 0. -1.
         -5    1    3    3    0  503 -0.54974134485E+02  0.23546607212E+02 -0.29159180956E+03  0.29769862541E+03  0.47000000000E+01 0.  1.
         11    1    4    4    0    0  0.28928931221E+02 -0.16321541272E+02 -0.10891472948E+03  0.11386700167E+03  0.00000000000E+00 0. -1.
        -12    1    4    4    0    0 -0.22053170769E+02 -0.10168495174E+03 -0.65651285915E+03  0.66470693240E+03  0.00000000000E+00 0.  1.
<mgrwt>
<rscale>  2 0.20512496E+03</rscale>
<asrwt>0</asrwt>
<pdfrwt beam="1">  1       21 0.46496626E-02 0.20595197E+03</pdfrwt>
<pdfrwt beam="2">  1       21 0.24330772E+00 0.20595197E+03</pdfrwt>
<totfact> 0.21906659E+04</totfact>
</mgrwt>
</event>
<event>
12    1  0.1050690E-001  0.2145874E+03  0.7546771E-02  0.1138534E+00
         21   -1    0    0  501  502  0.00000000000E+00  0.00000000000E+00  0.22153467232E+03  0.22153467232E+03  0.00000000000E+00 0.  1.
         21   -1    0    0  502  503 -0.00000000000E+00 -0.00000000000E+00 -0.84212523598E+03  0.84212523598E+03  0.00000000000E+00 0.  1.
         -6    2    1    2    0  503 -0.11618870463E+03 -0.40241052426E+02 -0.77233734011E+03  0.80083898799E+03  0.17239188022E+03 0.  0.
        -24    2    3    3    0    0 -0.10669182008E+03  0.27080152923E+01 -0.72064238306E+03  0.73280023565E+03  0.79248112277E+02 0.  0.
          6    2    1    2  501    0  0.11618870463E+03  0.40241052426E+02  0.15174677645E+03  0.26282092032E+03  0.17586527404E+03 0.  0.
         24    2    5    5    0    0  0.10550553671E+03  0.88885072170E+02  0.13749283646E+03  0.21080519637E+03  0.80638554084E+02 0.  0.
          5    1    5    5  501    0  0.10683167917E+02 -0.48644019745E+02  0.14253939989E+02  0.52015723958E+02  0.47000000000E+01 0. -1.
        -11    1    6    6    0    0  0.36789798078E+02  0.72562090882E+02  0.10561529957E+03  0.13331668230E+03  0.00000000000E+00 0.  1.
         12    1    6    6    0    0  0.68715738635E+02  0.16322981289E+02  0.31877536894E+02  0.77488514070E+02  0.00000000000E+00 0. -1.
         -5    1    3    3    0  503 -0.94968845471E+01 -0.42949067718E+02 -0.51694957054E+02  0.68038752331E+02  0.47000000000E+01 0.  1.
         11    1    4    4    0    0 -0.49957648066E+02 -0.17746946929E+02 -0.15223581955E+03  0.16120318074E+03  0.00000000000E+00 0. -1.
        -12    1    4    4    0    0 -0.56734172017E+02  0.20454962222E+02 -0.56840656351E+03  0.57159705492E+03  0.00000000000E+00 0.  1.
<mgrwt>
<rscale>  2 0.21387454E+03</rscale>
<asrwt>0</asrwt>
<pdfrwt beam="1">  1       21 0.34082257E-01 0.21458740E+03</pdfrwt>
<pdfrwt beam="2">  1       21 0.12955773E+00 0.21458740E+03</pdfrwt>
<totfact> 0.35506405E+03</totfact>
</mgrwt>
</event>
<event>
12    1  0.1050690E-001  0.1863950E+03  0.7546771E-02  0.1161759E+00
         21   -1    0    0  503  502  0.00000000000E+00  0.00000000000E+00  0.38867889376E+03  0.38867889376E+03  0.00000000000E+00 0.  1.
         21   -1    0    0  501  503 -0.00000000000E+00 -0.00000000000E+00 -0.95730546932E+02  0.95730546932E+02  0.00000000000E+00 0.  1.
          6    2    1    2  501    0 -0.18253610159E+02 -0.66541895640E+02  0.84086548849E+02  0.20448382162E+03  0.17315330619E+03 0.  0.
         24    2    3    3    0    0 -0.48534289499E+02 -0.11956254241E+02  0.10147664448E+03  0.13951446565E+03  0.81659337975E+02 0.  0.
         -6    2    1    2    0  502  0.18253610159E+02  0.66541895640E+02  0.20886179798E+03  0.27992561908E+03  0.17313024981E+03 0.  0.
        -24    2    5    5    0    0  0.21125271666E+02 -0.12357866959E+02  0.54206999804E+02  0.10622007634E+03  0.88007453159E+02 0.  0.
          5    1    3    3  501    0  0.30280679340E+02 -0.54585641400E+02 -0.17390095632E+02  0.64969355964E+02  0.47000000000E+01 0. -1.
        -11    1    4    4    0    0 -0.39438440718E+02 -0.42391339669E+02  0.40179549814E+02  0.70475616410E+02  0.00000000000E+00 0.  1.
         12    1    4    4    0    0 -0.90958487814E+01  0.30435085428E+02  0.61297094666E+02  0.69038849241E+02  0.00000000000E+00 0. -1.
         -5    1    5    5    0  502 -0.28716615069E+01  0.78899762599E+02  0.15465479818E+03  0.17370554273E+03  0.47000000000E+01 0.  1.
         11    1    6    6    0    0  0.10478043106E+02  0.16959615930E+02 -0.18442588003E+02  0.27157816777E+02  0.00000000000E+00 0. -1.
        -12    1    6    6    0    0  0.10647228560E+02 -0.29317482889E+02  0.72649587807E+02  0.79062259565E+02  0.00000000000E+00 0.  1.
<mgrwt>
<rscale>  2 0.18638962E+03</rscale>
<asrwt>0</asrwt>
<pdfrwt beam="1">  1       21 0.59796752E-01 0.18639497E+03</pdfrwt>
<pdfrwt beam="2">  1       21 0.14727777E-01 0.18639497E+03</pdfrwt>
<totfact> 0.10610908E+05</totfact>
</mgrwt>
</event>
<event>
12    1  0.1050690E-001  0.2493662E+03  0.7546771E-02  0.1113857E+00
         21   -1    0    0  501  502  0.00000000000E+00  0.00000000000E+00  0.52746737553E+03  0.52746737553E+03  0.00000000000E+00 0.  1.
         21   -1    0    0  502  503 -0.00000000000E+00 -0.00000000000E+00 -0.18626206638E+03  0.18626206638E+03  0.00000000000E+00 0. -1.
         -6    2    1    2    0  503 -0.15987591098E+03 -0.77499623562E+02 -0.46112173986E+02  0.25359382619E+03  0.17497713429E+03 0.  0.
        -24    2    3    3    0    0 -0.17232943788E+03 -0.30729184318E+02 -0.94458116808E+01  0.19269163867E+03  0.79994539367E+02 0.  0.
          6    2    1    2  501    0  0.15987591098E+03  0.77499623562E+02  0.38731748315E+03  0.46013561572E+03  0.17361870159E+03 0.  0.
         24    2    5    5    0    0  0.72943297024E+02  0.73651311622E+02  0.33317706992E+03  0.35754242287E+03  0.78002461173E+02 0.  0.
          5    1    5    5  501    0  0.86932613960E+02  0.38483119400E+01  0.54140413224E+02  0.10259319285E+03  0.47000000000E+01 0. -1.
        -13    1    6    6    0    0  0.21134471115E+02  0.59751547435E+02  0.10091727045E+03  0.11916882464E+03  0.00000000000E+00 0.  1.
         14    1    6    6    0    0  0.51808825909E+02  0.13899764187E+02  0.23225979947E+03  0.23837359824E+03  0.00000000000E+00 0. -1.
         -5    1    3    3    0  503  0.12453526894E+02 -0.46770439244E+02 -0.36666362305E+02  0.60902187513E+02  0.47000000000E+01 0.  1.
         13    1    4    4    0    0 -0.41458473376E+02  0.18585181600E+02 -0.25198067466E+02  0.51953407913E+02  0.00000000000E+00 0. -1.
        -14    1    4    4    0    0 -0.13087096450E+03 -0.49314365918E+02  0.15752255785E+02  0.14073823076E+03  0.00000000000E+00 0.  1.
<mgrwt>
<rscale>  2 0.24912802E+03</rscale>
<asrwt>0</asrwt>
<pdfrwt beam="1">  1       21 0.81148827E-01 0.24936619E+03</pdfrwt>
<pdfrwt beam="2">  1       21 0.28655703E-01 0.24936619E+03</pdfrwt>
<totfact> 0.15007311E+04</totfact>
</mgrwt>
</event>
<event>
12    1  0.1050690E-001  0.2115986E+03  0.7546771E-02  0.1140376E+00
         21   -1    0    0  501  502  0.00000000000E+00  0.00000000000E+00  0.49407214215E+03  0.49407214215E+03  0.00000000000E+00 0. -1.
         21   -1    0    0  502  503 -0.00000000000E+00 -0.00000000000E+00 -0.90707649166E+02  0.90707649166E+02  0.00000000000E+00 0. -1.
         -6    2    1    2    0  503 -0.12187789128E+03  0.53133208884E+01  0.18653165207E+03  0.28181042066E+03  0.17245464391E+03 0.  0.
        -24    2    3    3    0    0 -0.20875958977E+02  0.72273538851E+01  0.13418671037E+02  0.81322894731E+02  0.77105850411E+02 0.  0.
          6    2    1    2  501    0  0.12187789128E+03 -0.53133208884E+01  0.21683284092E+03  0.30296937066E+03  0.17289160447E+03 0.  0.
         24    2    5    5    0    0  0.87897609297E+02 -0.67288272036E+02  0.11483891182E+03  0.17879044448E+03  0.80773424449E+02 0.  0.
          5    1    5    5  501    0  0.33980281981E+02  0.61974951148E+02  0.10199392910E+03  0.12417892618E+03  0.47000000000E+01 0. -1.
        -13    1    6    6    0    0  0.16316584707E+02 -0.38949337538E+02  0.21103869964E+01  0.42281622064E+02  0.00000000000E+00 0.  1.
         14    1    6    6    0    0  0.71581024590E+02 -0.28338934499E+02  0.11272852482E+03  0.13650882242E+03  0.00000000000E+00 0. -1.
         -5    1    3    3    0  503 -0.10100193230E+03 -0.19140329967E+01  0.17311298103E+03  0.20048752593E+03  0.47000000000E+01 0.  1.
         13    1    4    4    0    0 -0.77014171921E+01 -0.34886271362E+02  0.98139031917E+01  0.37049648476E+02  0.00000000000E+00 0. -1.
        -14    1    4    4    0    0 -0.13174541785E+02  0.42113625247E+02  0.36047678458E+01  0.44273246255E+02  0.00000000000E+00 0.  1.
<mgrwt>
<rscale>  2 0.21150930E+03</rscale>
<asrwt>0</asrwt>
<pdfrwt beam="1">  1       21 0.76011097E-01 0.21159858E+03</pdfrwt>
<pdfrwt beam="2">  1       21 0.13955023E-01 0.21159858E+03</pdfrwt>
<totfact> 0.68418048E+04</totfact>
</mgrwt>
</event>
<event>
12    1  0.1050690E-001  0.2035237E+03  0.7546771E-02  0.1147583E+00
         21   -1    0    0  503  502  0.00000000000E+00  0.00000000000E+00  0.10023319411E+04  0.10023319411E+04  0.00000000000E+00 0.  1.
         21   -1    0    0  501  503 -0.00000000000E+00 -0.00000000000E+00 -0.78606119115E+02  0.78606119115E+02  0.00000000000E+00 0.  1.
          6    2    1    2  501    0  0.67162141983E+02 -0.72233264849E+02  0.88111499398E+02  0.22177811902E+03  0.17802668306E+03 0.  0.
         24    2    3    3    0    0  0.86025147130E+02 -0.79790889758E+02  0.11670686722E+02  0.14254290904E+03  0.80095967206E+02 0.  0.
         -6    2    1    2    0  502 -0.67162141983E+02  0.72233264849E+02  0.83561432259E+03  0.85915994119E+03  0.17371272428E+03 0.  0.
        -24    2    5    5    0    0  0.16088768442E+02  0.42826768280E+01  0.21231844036E+03  0.22665077660E+03  0.77551690021E+02 0.  0.
          5    1    3    3  501    0 -0.18863005146E+02  0.75576249084E+01  0.76440812676E+02  0.79235209976E+02  0.47000000000E+01 0. -1.
        -13    1    4    4    0    0  0.33470590100E+02 -0.66922736307E+02 -0.22999540251E+02  0.78280980374E+02  0.00000000000E+00 0.  1.
         14    1    4    4    0    0  0.52554557029E+02 -0.12868153451E+02  0.34670226974E+02  0.64261928669E+02  0.00000000000E+00 0. -1.
         -5    1    5    5    0  502 -0.83250910425E+02  0.67950588021E+02  0.62329588222E+03  0.63250916459E+03  0.47000000000E+01 0.  1.
         13    1    6    6    0    0 -0.36008058875E+01 -0.25596638095E+02  0.16660161197E+03  0.16859493111E+03  0.00000000000E+00 0. -1.
        -14    1    6    6    0    0  0.19689574329E+02  0.29879314923E+02  0.45716828396E+02  0.58055845495E+02  0.00000000000E+00 0.  1.
<mgrwt>
<rscale>  2 0.20257647E+03</rscale>
<asrwt>0</asrwt>
<pdfrwt beam="1">  1       21 0.15420491E+00 0.20352370E+03</pdfrwt>
<pdfrwt beam="2">  1       21 0.12093250E-01 0.20352370E+03</pdfrwt>
<totfact> 0.15957323E+04</totfact>
</mgrwt>
</event>
<event>
12    1  0.1050690E-001  0.1749771E+03  0.7546771E-02  0.1173527E+00
         21   -1    0    0  501  502  0.00000000000E+00  0.00000000000E+00  0.58884479687E+03  0.58884479687E+03  0.00000000000E+00 0. -1.
         21   -1    0    0  502  503 -0.00000000000E+00 -0.00000000000E+00 -0.12209162534E+03  0.12209162534E+03  0.00000000000E+00 0. -1.
         -6    2    1    2    0  503  0.18256354561E+02  0.21282787889E+02 -0.36831401704E+02  0.17881146836E+03  0.17271577091E+03 0.  0.
        -24    2    3    3    0    0 -0.33643760133E+02 -0.32079293783E+02 -0.10862270280E+02  0.99832867126E+02  0.87679123840E+02 0.  0.
          6    2    1    2  501    0 -0.18256354561E+02 -0.21282787889E+02  0.50358457323E+03  0.53212495385E+03  0.16962692172E+03 0.  0.
         24    2    5    5    0    0  0.14138622951E+02 -0.51478698627E+02  0.45884890305E+03  0.46900128333E+03  0.81055110053E+02 0.  0.
          5    1    5    5  501    0 -0.32394977512E+02  0.30195910738E+02  0.44735670181E+02  0.63123670519E+02  0.47000000000E+01 0. -1.
        -11    1    6    6    0    0 -0.43606942998E+01 -0.88352274703E+01  0.23332927554E+01  0.10125273049E+02  0.00000000000E+00 0.  1.
         12    1    6    6    0    0  0.18499317251E+02 -0.42643471157E+02  0.45651561029E+03  0.45887601028E+03  0.00000000000E+00 0. -1.
         -5    1    3    3    0  503  0.51900114694E+02  0.53362081673E+02 -0.25969131424E+02  0.78978601232E+02  0.47000000000E+01 0.  1.
         13    1    4    4    0    0 -0.17587691787E+01 -0.58073595079E+02 -0.60719241076E+01  0.58416641266E+02  0.00000000000E+00 0. -1.
        -14    1    4    4    0    0 -0.31884990954E+02  0.25994301296E+02 -0.47903461726E+01  0.41416225860E+02  0.00000000000E+00 0.  1.
<mgrwt>
<rscale>  2 0.17421003E+03</rscale>
<asrwt>0</asrwt>
<pdfrwt beam="1">  1       21 0.90591505E-01 0.17497711E+03</pdfrwt>
<pdfrwt beam="2">  1       21 0.18783327E-01 0.17497711E+03</pdfrwt>
<totfact> 0.27123055E+04</totfact>
</mgrwt>
</event>
<event>
12    1  0.1050690E-001  0.2451203E+03  0.7546771E-02  0.1116453E+00
         21   -1    0    0  501  502  0.00000000000E+00  0.00000000000E+00  0.42018580848E+02  0.42018580848E+02  0.00000000000E+00 0.  1.
         21   -1    0    0  502  503 -0.00000000000E+00 -0.00000000000E+00 -0.15076730492E+04  0.15076730492E+04  0.00000000000E+00 0.  1.
         -6    2    1    2    0  503  0.83482111192E+02 -0.15262179401E+03 -0.55609496793E+03  0.60772163663E+03  0.17268844599E+03 0.  0.
        -24    2    3    3    0    0 -0.36974903642E+00 -0.12933963795E+03 -0.28613812575E+03  0.32404580070E+03  0.80011094735E+02 0.  0.
          6    2    1    2  501    0 -0.83482111192E+02  0.15262179401E+03 -0.90955950042E+03  0.94196999341E+03  0.17247118249E+03 0.  0.
         24    2    5    5    0    0 -0.62657793853E+02  0.48990223608E+02 -0.25223131116E+03  0.27618054248E+03  0.79555116590E+02 0.  0.
          5    1    5    5  501    0 -0.20824317339E+02  0.10363157041E+03 -0.65732818925E+03  0.66578945093E+03  0.47000000000E+01 0. -1.
        -13    1    6    6    0    0 -0.81621412599E+02  0.40363019800E+02 -0.21558831765E+03  0.23402895349E+03  0.00000000000E+00 0.  1.
         14    1    6    6    0    0  0.18963618746E+02  0.86272038084E+01 -0.36642993511E+02  0.42151588996E+02  0.00000000000E+00 0. -1.
         -5    1    3    3    0  503  0.83851860229E+02 -0.23282156061E+02 -0.26995684218E+03  0.28367583594E+03  0.47000000000E+01 0.  1.
         13    1    4    4    0    0  0.20750746741E+02 -0.64621148680E+01 -0.17567196941E+02  0.27945640577E+02  0.00000000000E+00 0. -1.
        -14    1    4    4    0    0 -0.21120495777E+02 -0.12287752309E+03 -0.26857092881E+03  0.29610016012E+03  0.00000000000E+00 0.  1.
<mgrwt>
<rscale>  2 0.24508206E+03</rscale>
<asrwt>0</asrwt>
<pdfrwt beam="1">  1       21 0.64643969E-02 0.24512033E+03</pdfrwt>
<pdfrwt beam="2">  1       21 0.23194971E+00 0.24512033E+03</pdfrwt>
<totfact> 0.14169937E+04</totfact>
</mgrwt>
</event>
<event>
12    1  0.1050690E-001  0.2034084E+03  0.7546771E-02  0.1147176E+00
         21   -1    0    0  503  502  0.00000000000E+00  0.00000000000E+00  0.37432924716E+03  0.37432924716E+03  0.00000000000E+00 0.  1.
         21   -1    0    0  501  503 -0.00000000000E+00 -0.00000000000E+00 -0.18828418976E+03  0.18828418976E+03  0.00000000000E+00 0.  1.
          6    2    1    2  501    0 -0.64259243974E+02  0.82147393424E+02 -0.88421726293E+02  0.22179579454E+03  0.17463541483E+03 0.  0.
         24    2    3    3    0    0  0.20195882959E+02  0.72376898028E+02 -0.19491294940E+02  0.11224386434E+03  0.81070866815E+02 0.  0.
         -6    2    1    2    0  502  0.64259243974E+02 -0.82147393424E+02  0.27446678370E+03  0.34081764238E+03  0.17305260853E+03 0.  0.
        -24    2    5    5    0    0  0.87479465961E+02 -0.21520543155E+02  0.23736534826E+03  0.26589501433E+03  0.79006704435E+02 0.  0.
          5    1    3    3  501    0 -0.84455126933E+02  0.97704953955E+01 -0.68930431353E+02  0.10955193021E+03  0.47000000000E+01 0. -1.
        -11    1    4    4    0    0 -0.92323921674E+01 -0.13312741875E+02 -0.14106991583E+02  0.21481931312E+02  0.00000000000E+00 0.  1.
         12    1    4    4    0    0  0.29428275126E+02  0.85689639903E+02 -0.53843033569E+01  0.90761933024E+02  0.00000000000E+00 0. -1.
         -5    1    5    5    0  502 -0.23220221987E+02 -0.60626850269E+02  0.37101435435E+02  0.74922628050E+02  0.47000000000E+01 0.  1.
         13    1    6    6    0    0 -0.38958699530E+01  0.14999359303E+02  0.10818163441E+02  0.18899503761E+02  0.00000000000E+00 0. -1.
        -14    1    6    6    0    0  0.91375335914E+02 -0.36519902458E+02  0.22654718482E+03  0.24699551056E+03  0.00000000000E+00 0.  1.
<mgrwt>
<rscale>  2 0.20306822E+03</rscale>
<asrwt>0</asrwt>
<pdfrwt beam="1">  1       21 0.57589115E-01 0.20340839E+03</pdfrwt>
<pdfrwt beam="2">  1       21 0.28966798E-01 0.20340839E+03</pdfrwt>
<totfact> 0.32083656E+04</totfact>
</mgrwt>
</event>
<event>
12    1  0.1050690E-001  0.1929069E+03  0.7546771E-02  0.1156064E+00
         21   -1    0    0  501  502  0.00000000000E+00  0.00000000000E+00  0.54904015517E+03  0.54904015517E+03  0.00000000000E+00 0. -1.
         21   -1    0    0  502  503 -0.00000000000E+00 -0.00000000000E+00 -0.23730455683E+03  0.23730455683E+03  0.00000000000E+00 0.  1.
         -6    2    1    2    0  503 -0.75110994490E+02  0.35560798772E+02 -0.17665039604E+03  0.26156915159E+03  0.17408856004E+03 0.  0.
        -24    2    3    3    0    0 -0.55291962182E+02 -0.29942808641E+02 -0.16161479814E+03  0.19134326014E+03  0.80864870922E+02 0.  0.
          6    2    1    2  501    0  0.75110994490E+02 -0.35560798772E+02  0.48838599439E+03  0.52477556042E+03  0.17309615071E+03 0.  0.
         24    2    5    5    0    0  0.91692669462E+02  0.53877983904E+01  0.21699602346E+03  0.24977311338E+03  0.82841776690E+02 0.  0.
          5    1    5    5  501    0 -0.16581674972E+02 -0.40948597162E+02  0.27138997093E+03  0.27500244704E+03  0.47000000000E+01 0. -1.
        -11    1    6    6    0    0  0.68324758089E+02  0.17593232678E+02  0.21134546223E+03  0.22281090371E+03  0.00000000000E+00 0.  1.
         12    1    6    6    0    0  0.23367911373E+02 -0.12205434288E+02  0.56505612221E+01  0.26962209669E+02  0.00000000000E+00 0. -1.
         -5    1    3    3    0  503 -0.19819032308E+02  0.65503607413E+02 -0.15035597900E+02  0.70225891450E+02  0.47000000000E+01 0.  1.
         13    1    4    4    0    0 -0.69092320708E+02 -0.19742646618E+02 -0.78282276269E+02  0.10626210827E+03  0.00000000000E+00 0. -1.
        -14    1    4    4    0    0  0.13800358526E+02 -0.10200162023E+02 -0.83332521876E+02  0.85081151866E+02  0.00000000000E+00 0.  1.
<mgrwt>
<rscale>  2 0.19268269E+03</rscale>
<asrwt>0</asrwt>
<pdfrwt beam="1">  1       21 0.84467716E-01 0.19290687E+03</pdfrwt>
<pdfrwt beam="2">  1       21 0.36508394E-01 0.19290687E+03</pdfrwt>
<totfact> 0.87945022E+03</totfact>
</mgrwt>
</event>
<event>
12    1  0.1050690E-001  0.1835078E+03  0.7546771E-02  0.1165678E+00
         21   -1    0    0  503  502  0.00000000000E+00  0.00000000000E+00  0.84359869191E+03  0.84359869191E+03  0.00000000000E+00 0. -1.
         21   -1    0    0  501  503 -0.00000000000E+00 -0.00000000000E+00 -0.42331344429E+03  0.42331344429E+03  0.00000000000E+00 0. -1.
          6    2    1    2  501    0  0.43880132805E+02 -0.35839620220E+01 -0.39384314892E+03  0.43235827809E+03  0.17286683847E+03 0.  0.
         24    2    3    3    0    0  0.19712412295E+02 -0.57729184102E+02 -0.13412019756E+03  0.16591150056E+03  0.76270313566E+02 0.  0.
         -6    2    1    2    0  502 -0.43880132805E+02  0.35839620220E+01  0.81412839654E+03  0.83455385811E+03  0.17814821132E+03 0.  0.
        -24    2    5    5    0    0 -0.81642139724E+02  0.26921777988E+02  0.72882640051E+03  0.73827746771E+03  0.80470343289E+02 0.  0.
          5    1    3    3  501    0  0.24167720510E+02  0.54145222080E+02 -0.25972295136E+03  0.26644677752E+03  0.47000000000E+01 0. -1.
        -11    1    4    4    0    0  0.59808511560E+01  0.87955535458E+01  0.44951860928E+01  0.11547252519E+02  0.00000000000E+00 0.  1.
         12    1    4    4    0    0  0.13731561139E+02 -0.66524737647E+02 -0.13861538365E+03  0.15436424805E+03  0.00000000000E+00 0. -1.
         -5    1    5    5    0  502  0.37762006919E+02 -0.23337815966E+02  0.85301996032E+02  0.96276390396E+02  0.47000000000E+01 0.  1.
         13    1    6    6    0    0  0.14062923722E+02  0.11664690534E+02  0.69276639952E+02  0.71645541885E+02  0.00000000000E+00 0. -1.
        -14    1    6    6    0    0 -0.95705063446E+02  0.15257087454E+02  0.65954976055E+03  0.66663192583E+03  0.00000000000E+00 0.  1.
<mgrwt>
<rscale>  2 0.18221347E+03</rscale>
<asrwt>0</asrwt>
<pdfrwt beam="1">  1       21 0.12978441E+00 0.18350775E+03</pdfrwt>
<pdfrwt beam="2">  1       21 0.65125146E-01 0.18350775E+03</pdfrwt>
<totfact> 0.95123698E+02</totfact>
</mgrwt>
</event>
<event>
12    1  0.1050690E-001  0.1866079E+03  0.7546771E-02  0.1161974E+00
         21   -1    0    0  501  502  0.00000000000E+00  0.00000000000E+00  0.18098238009E+03  0.18098238009E+03  0.00000000000E+00 0. -1.
         21   -1    0    0  502  503 -0.00000000000E+00 -0.00000000000E+00 -0.33743983256E+03  0.33743983256E+03  0.00000000000E+00 0. -1.
         -6    2    1    2    0  503  0.50388491988E+02 -0.48467896781E+02 -0.24903026594E+03  0.31011419607E+03  0.17107484942E+03 0.  0.
        -24    2    3    3    0    0  0.19656637931E+02 -0.35994738294E+02 -0.38851787906E+02  0.97283020796E+02  0.79199243129E+02 0.  0.
          6    2    1    2  501    0 -0.50388491988E+02  0.48467896781E+02  0.92572813470E+02  0.20830801659E+03  0.17301551040E+03 0.  0.
         24    2    5    5    0    0 -0.21303541755E+02 -0.35581493364E+02  0.74730879797E+02  0.11747487885E+03  0.80596272899E+02 0.  0.
          5    1    5    5  501    0 -0.29084950233E+02  0.84049390145E+02  0.17841933673E+02  0.90833137736E+02  0.47000000000E+01 0. -1.
        -11    1    6    6    0    0  0.25471993591E+02 -0.37802820949E+01  0.48959044225E+02  0.55318179667E+02  0.00000000000E+00 0.  1.
         12    1    6    6    0    0 -0.46775535347E+02 -0.31801211269E+02  0.25771835572E+02  0.62156699188E+02  0.00000000000E+00 0. -1.
         -5    1    3    3    0  503  0.30731854057E+02 -0.12473158487E+02 -0.21017847804E+03  0.21283117527E+03  0.47000000000E+01 0.  1.
         13    1    4    4    0    0 -0.89332550931E+01 -0.39055217402E+02 -0.52018501096E+02  0.65658491523E+02  0.00000000000E+00 0. -1.
        -14    1    4    4    0    0  0.28589893024E+02  0.30604791083E+01  0.13166713190E+02  0.31624529273E+02  0.00000000000E+00 0.  1.
<mgrwt>
<rscale>  2 0.18615679E+03</rscale>
<asrwt>0</asrwt>
<pdfrwt beam="1">  1       21 0.27843443E-01 0.18660789E+03</pdfrwt>
<pdfrwt beam="2">  1       21 0.51913820E-01 0.18660789E+03</pdfrwt>
<totfact> 0.43513412E+04</totfact>
</mgrwt>
</event>
<event>
12    1  0.1050690E-001  0.1879735E+03  0.7546771E-02  0.1160995E+00
         21   -1    0    0  501  502  0.00000000000E+00  0.00000000000E+00  0.39154573628E+03  0.39154573628E+03  0.00000000000E+00 0.  1.
         21   -1    0    0  502  503 -0.00000000000E+00 -0.00000000000E+00 -0.14833384779E+03  0.14833384779E+03  0.00000000000E+00 0.  1.
         -6    2    1    2    0  503 -0.26765704445E+02  0.61062846460E+02 -0.49983508599E+02  0.19160158743E+03  0.17253330989E+03 0.  0.
        -24    2    3    3    0    0 -0.54655256610E+02 -0.19436029086E+02 -0.22041257633E+02  0.10181987731E+03  0.80724928461E+02 0.  0.
          6    2    1    2  501    0  0.26765704445E+02 -0.61062846460E+02  0.29319539708E+03  0.34827799664E+03  0.17575251896E+03 0.  0.
         24    2    5    5    0    0 -0.38967404805E+02 -0.51228734112E+02  0.24561151086E+03  0.26640084693E+03  0.80632221461E+02 0.  0.
          5    1    5    5  501    0  0.65733109250E+02 -0.98341123477E+01  0.47583886215E+02  0.81877149710E+02  0.47000000000E+01 0. -1.
        -13    1    6    6    0    0 -0.28268334971E+02 -0.57613505822E+02  0.91360493079E+02  0.11164745636E+03  0.00000000000E+00 0.  1.
         14    1    6    6    0    0 -0.10699069834E+02  0.63847717095E+01  0.15425101779E+03  0.15475339057E+03  0.00000000000E+00 0. -1.
         -5    1    3    3    0  503  0.27889552165E+02  0.80498875546E+02 -0.27942250966E+02  0.89781710126E+02  0.47000000000E+01 0.  1.
         11    1    4    4    0    0 -0.45260899563E+02 -0.23969547849E+02  0.22596625141E+02  0.55979422301E+02  0.00000000000E+00 0. -1.
        -12    1    4    4    0    0 -0.93943570466E+01  0.45335187626E+01 -0.44637882773E+02  0.45840455006E+02  0.00000000000E+00 0.  1.
<mgrwt>
<rscale>  2 0.18721731E+03</rscale>
<asrwt>0</asrwt>
<pdfrwt beam="1">  1       21 0.60237805E-01 0.18797346E+03</pdfrwt>
<pdfrwt beam="2">  1       21 0.22820592E-01 0.18797346E+03</pdfrwt>
<totfact> 0.46386218E+04</totfact>
</mgrwt>
</event>
<event>
12    1  0.1050690E-001  0.1981543E+03  0.7546771E-02  0.1152195E+00
         21   -1    0    0  501  502  0.00000000000E+00  0.00000000000E+00  0.76816490923E+03  0.76816490923E+03  0.00000000000E+00 0. -1.
         21   -1    0    0  502  503 -0.00000000000E+00 -0.00000000000E+00 -0.98360137249E+02  0.98360137249E+02  0.00000000000E+00 0.  1.
         -6    2    1    2    0  503 -0.90685810640E+02 -0.28320493990E+02  0.33085702140E+02  0.20089744014E+03  0.17389408022E+03 0.  0.
        -24    2    3    3    0    0 -0.10817278593E+03 -0.70792285122E+02  0.48269981178E+02  0.15229394564E+03  0.64424805381E+02 0.  0.
          6    2    1    2  501    0  0.90685810640E+02  0.28320493990E+02  0.63671906984E+03  0.66562760634E+03  0.16918324325E+03 0.  0.
         24    2    5    5    0    0  0.24900106768E+02 -0.40714481039E+02  0.23642114730E+03  0.25410105386E+03  0.79966883129E+02 0.  0.
          5    1    5    5  501    0  0.65785703872E+02  0.69034975028E+02  0.40029792254E+03  0.41152655248E+03  0.47000000000E+01 0. -1.
        -11    1    6    6    0    0  0.18564246372E+02  0.28039015738E+01  0.62821586851E+01  0.19797944973E+02  0.00000000000E+00 0.  1.
         12    1    6    6    0    0  0.63358603954E+01 -0.43518382613E+02  0.23013898862E+03  0.23430310889E+03  0.00000000000E+00 0. -1.
         -5    1    3    3    0  503  0.17486975291E+02  0.42471791132E+02 -0.15184279038E+02  0.48603494491E+02  0.47000000000E+01 0.  1.
         11    1    4    4    0    0 -0.74122653803E+02 -0.15793888871E+02  0.43615620801E+02  0.87441049344E+02  0.00000000000E+00 0. -1.
        -12    1    4    4    0    0 -0.34050132127E+02 -0.54998396251E+02  0.46543603767E+01  0.64852896301E+02  0.00000000000E+00 0.  1.
<mgrwt>
<rscale>  2 0.19711591E+03</rscale>
<asrwt>0</asrwt>
<pdfrwt beam="1">  1       21 0.11817921E+00 0.19815428E+03</pdfrwt>
<pdfrwt beam="2">  1       21 0.15132329E-01 0.19815428E+03</pdfrwt>
<totfact> 0.21100178E+04</totfact>
</mgrwt>
</event>
<event>
12    1  0.1050690E-001  0.2393946E+03  0.7546771E-02  0.1120327E+00
         21   -1    0    0  501  502  0.00000000000E+00  0.00000000000E+00  0.44254210455E+02  0.44254210455E+02  0.00000000000E+00 0. -1.
         21   -1    0    0  502  503 -0.00000000000E+00 -0.00000000000E+00 -0.18611534303E+04  0.18611534303E+04  0.00000000000E+00 0. -1.
         -6    2    1    2    0  503  0.16317095139E+03  0.17066349797E+02 -0.14368742448E+04  0.14566802550E+04  0.17433803451E+03 0.  0.
        -24    2    3    3    0    0  0.15315402018E+03  0.46163839716E+02 -0.13794258004E+04  0.13913394822E+04  0.86155451580E+02 0.  0.
          6    2    1    2  501    0 -0.16317095139E+03 -0.17066349797E+02 -0.38002497503E+03  0.44872738574E+03  0.17326645778E+03 0.  0.
         24    2    5    5    0    0 -0.42667151859E+02 -0.61373266206E+02 -0.18689225122E+03  0.21676487250E+03  0.80443351066E+02 0.  0.
          5    1    5    5  501    0 -0.12050379953E+03  0.44306916409E+02 -0.19313272382E+03  0.23196251324E+03  0.47000000000E+01 0. -1.
        -13    1    6    6    0    0  0.20196772099E+02  0.23063790908E+01 -0.34328138412E+02  0.39895489401E+02  0.00000000000E+00 0.  1.
         14    1    6    6    0    0 -0.62863923957E+02 -0.63679645297E+02 -0.15256411281E+03  0.17686938310E+03  0.00000000000E+00 0. -1.
         -5    1    3    3    0  503  0.10016931206E+02 -0.29097489919E+02 -0.57448444378E+02  0.65340772813E+02  0.47000000000E+01 0.  1.
         11    1    4    4    0    0  0.12178897788E+03  0.24925646746E+02 -0.70687811202E+03  0.71772592837E+03  0.00000000000E+00 0. -1.
        -12    1    4    4    0    0  0.31365042304E+02  0.21238192970E+02 -0.67254768838E+03  0.67361355380E+03  0.00000000000E+00 0.  1.
<mgrwt>
<rscale>  2 0.23919954E+03</rscale>
<asrwt>0</asrwt>
<pdfrwt beam="1">  1       21 0.68083405E-02 0.23939459E+03</pdfrwt>
<pdfrwt beam="2">  1       21 0.28633128E+00 0.23939459E+03</pdfrwt>
<totfact> 0.61964648E+03</totfact>
</mgrwt>
</event>
<event>
12    1  0.1050690E-001  0.2247800E+03  0.7546771E-02  0.1130941E+00
         21   -1    0    0  503  502  0.00000000000E+00  0.00000000000E+00  0.17009215258E+03  0.17009215258E+03  0.00000000000E+00 0. -1.
         21   -1    0    0  501  503 -0.00000000000E+00 -0.00000000000E+00 -0.37685664400E+03  0.37685664400E+03  0.00000000000E+00 0. -1.
          6    2    1    2  501    0  0.13322994819E+03  0.51207515766E+02 -0.23300701874E+03  0.32375656862E+03  0.17364796625E+03 0.  0.
         24    2    3    3    0    0  0.11005215454E+03 -0.15962638374E+02 -0.20694823450E+03  0.24792656163E+03  0.79206853567E+02 0.  0.
         -6    2    1    2    0  502 -0.13322994819E+03 -0.51207515766E+02  0.26242527319E+02  0.22319222796E+03  0.16956907624E+03 0.  0.
        -24    2    5    5    0    0 -0.10195410311E+03 -0.96878255850E+02  0.36164176126E+02  0.16676064017E+03  0.81983095073E+02 0.  0.
          5    1    3    3  501    0  0.23177793643E+02  0.67170154140E+02 -0.26058784231E+02  0.75830006996E+02  0.47000000000E+01 0. -1.
        -13    1    4    4    0    0 -0.37638433415E+01 -0.22223682267E+02 -0.34015964009E+02  0.40806180631E+02  0.00000000000E+00 0.  1.
         14    1    4    4    0    0  0.11381599789E+03  0.62610438928E+01 -0.17293227049E+03  0.20712038100E+03  0.00000000000E+00 0. -1.
         -5    1    5    5    0  502 -0.31275845076E+02  0.45670740084E+02 -0.99216488069E+01  0.56431587787E+02  0.47000000000E+01 0.  1.
         11    1    6    6    0    0 -0.11241548205E+03 -0.74708353038E+02  0.17830015581E+02  0.13614877184E+03  0.00000000000E+00 0. -1.
        -12    1    6    6    0    0  0.10461378936E+02 -0.22169902812E+02  0.18334160544E+02  0.30611868332E+02  0.00000000000E+00 0.  1.
<mgrwt>
<rscale>  2 0.22399188E+03</rscale>
<asrwt>0</asrwt>
<pdfrwt beam="1">  1       21 0.26168024E-01 0.22477999E+03</pdfrwt>
<pdfrwt beam="2">  1       21 0.57977945E-01 0.22477999E+03</pdfrwt>
<totfact> 0.38083299E+04</totfact>
</mgrwt>
</event>
<event>
12    1  0.1050690E-001  0.1954763E+03  0.7546771E-02  0.1153785E+00
         21   -1    0    0  503  502  0.00000000000E+00  0.00000000000E+00  0.92052889529E+03  0.92052889529E+03  0.00000000000E+00 0.  1.
         21   -1    0    0  501  503 -0.00000000000E+00 -0.00000000000E+00 -0.50763518832E+02  0.50763518832E+02  0.00000000000E+00 0.  1.
          6    2    1    2  501    0  0.55035586700E+01 -0.90400289537E+02  0.22638020325E+03  0.29909695934E+03  0.17322959665E+03 0.  0.
         24    2    3    3    0    0  0.19968130736E+02 -0.12807142184E+03  0.19586165357E+03  0.24828544560E+03  0.80516208442E+02 0.  0.
         -6    2    1    2    0  502 -0.55035586700E+01  0.90400289537E+02  0.64338517321E+03  0.67219545479E+03  0.17233614485E+03 0.  0.
        -24    2    5    5    0    0 -0.85760159859E+01 -0.19194913777E+02  0.29868581447E+03  0.31044929171E+03  0.81997281624E+02 0.  0.
          5    1    3    3  501    0 -0.14464572066E+02  0.37671132298E+02  0.30518549681E+02  0.50811513738E+02  0.47000000000E+01 0. -1.
        -13    1    4    4    0    0  0.40270471726E+02 -0.84303346367E+02  0.16889351914E+03  0.19301239833E+03  0.00000000000E+00 0.  1.
         14    1    4    4    0    0 -0.20302340990E+02 -0.43768075468E+02  0.26968134428E+02  0.55273047269E+02  0.00000000000E+00 0. -1.
         -5    1    5    5    0  502  0.30724573159E+01  0.10959520331E+03  0.34469935875E+03  0.36174616308E+03  0.47000000000E+01 0.  1.
         11    1    6    6    0    0  0.21294804274E+02  0.24000339090E+02  0.10832921815E+03  0.11298099164E+03  0.00000000000E+00 0. -1.
        -12    1    6    6    0    0 -0.29870820260E+02 -0.43195252867E+02  0.19035659631E+03  0.19746830007E+03  0.00000000000E+00 0.  1.
<mgrwt>
<rscale>  2 0.19527819E+03</rscale>
<asrwt>0</asrwt>
<pdfrwt beam="1">  1       21 0.14161982E+00 0.19547633E+03</pdfrwt>
<pdfrwt beam="2">  1       21 0.78097728E-02 0.19547633E+03</pdfrwt>
<totfact> 0.43393034E+04</totfact>
</mgrwt>
</event>
<event>
12    1  0.1050690E-001  0.1755551E+03  0.7546771E-02  0.1172200E+00
         21   -1    0    0  501  502  0.00000000000E+00  0.00000000000E+00  0.14903353563E+03  0.14903353563E+03  0.00000000000E+00 0. -1.
         21   -1    0    0  502  503 -0.00000000000E+00 -0.00000000000E+00 -0.22806162916E+03  0.22806162916E+03  0.00000000000E+00 0. -1.
         -6    2    1    2    0  503 -0.28079366958E+02  0.21140043868E+02 -0.97254855944E+02  0.20069400852E+03  0.17200065624E+03 0.  0.
        -24    2    3    3    0    0  0.50656162946E+02 -0.62519551597E+01 -0.51985294641E+02  0.10571491366E+03  0.76603122153E+02 0.  0.
          6    2    1    2  501    0  0.28079366958E+02 -0.21140043868E+02  0.18226762423E+02  0.17640115627E+03  0.17190055486E+03 0.  0.
         24    2    5    5    0    0 -0.22915394913E+02 -0.67890002543E+02  0.10245736017E+01  0.10495866419E+03  0.76688354184E+02 0.  0.
          5    1    5    5  501    0  0.50994761872E+02  0.46749958675E+02  0.17202188821E+02  0.71442492081E+02  0.47000000000E+01 0. -1.
        -13    1    6    6    0    0 -0.17352071381E+02 -0.30758597243E+02  0.38268658389E+02  0.52073754431E+02  0.00000000000E+00 0.  1.
         14    1    6    6    0    0 -0.55633235325E+01 -0.37131405300E+02 -0.37244084788E+02  0.52884909757E+02  0.00000000000E+00 0. -1.
         -5    1    3    3    0  503 -0.78735529905E+02  0.27391999028E+02 -0.45269561304E+02  0.94979094862E+02  0.47000000000E+01 0.  1.
         13    1    4    4    0    0  0.95151825144E+01 -0.38074251904E+02 -0.29273735016E+02  0.48960585353E+02  0.00000000000E+00 0. -1.
        -14    1    4    4    0    0  0.41140980432E+02  0.31822296745E+02 -0.22711559625E+02  0.56754328307E+02  0.00000000000E+00 0.  1.
<mgrwt>
<rscale>  2 0.17553053E+03</rscale>
<asrwt>0</asrwt>
<pdfrwt beam="1">  1       21 0.22928236E-01 0.17555506E+03</pdfrwt>
<pdfrwt beam="2">  1       21 0.35086404E-01 0.17555506E+03</pdfrwt>
<totfact> 0.14060938E+05</totfact>
</mgrwt>
</event>
<event>
12    1  0.1050690E-001  0.2039211E+03  0.7546771E-02  0.1146560E+00
         21   -1    0    0  503  502  0.00000000000E+00  0.00000000000E+00  0.49185468787E+03  0.49185468787E+03  0.00000000000E+00 0. -1.
         21   -1    0    0  501  503 -0.00000000000E+00 -0.00000000000E+00 -0.85343599186E+02  0.85343599186E+02  0.00000000000E+00 0.  1.
          6    2    1    2  501    0 -0.59921666784E+02  0.89625379030E+02  0.23388199342E+03  0.31001926698E+03  0.17259155350E+03 0.  0.
         24    2    3    3    0    0  0.19662061815E+02  0.41478228549E+02  0.17940682777E+03  0.20212417150E+03  0.80995868629E+02 0.  0.
         -6    2    1    2    0  502  0.59921666784E+02 -0.89625379030E+02  0.17262909527E+03  0.26717902007E+03  0.17309104402E+03 0.  0.
        -24    2    5    5    0    0  0.76003876911E+02 -0.20083285728E+02  0.16913640350E+03  0.19556177970E+03  0.58799311371E+02 0.  0.
          5    1    3    3  501    0 -0.79583728599E+02  0.48147150481E+02  0.54475165648E+02  0.10789509548E+03  0.47000000000E+01 0. -1.
        -13    1    4    4    0    0  0.40353174135E+02  0.41764082224E+02  0.70835783507E+02  0.91598719707E+02  0.00000000000E+00 0.  1.
         14    1    4    4    0    0 -0.20691112320E+02 -0.28585367529E+00  0.10857104426E+03  0.11052545179E+03  0.00000000000E+00 0. -1.
         -5    1    5    5    0  502 -0.16082210128E+02 -0.69542093302E+02  0.34926917641E+01  0.71617240377E+02  0.47000000000E+01 0.  1.
         11    1    6    6    0    0  0.85594517387E+02 -0.19430741709E+02  0.15882567922E+03  0.18146506967E+03  0.00000000000E+00 0. -1.
        -12    1    6    6    0    0 -0.95906404752E+01 -0.65254401932E+00  0.10310724280E+02  0.14096710027E+02  0.00000000000E+00 0.  1.
<mgrwt>
<rscale>  2 0.20381509E+03</rscale>
<asrwt>0</asrwt>
<pdfrwt beam="1">  1       21 0.75669950E-01 0.20392112E+03</pdfrwt>
<pdfrwt beam="2">  1       21 0.13129785E-01 0.20392112E+03</pdfrwt>
<totfact> 0.77432195E+04</totfact>
</mgrwt>
</event>
<event>
12    1  0.1050690E-001  0.1954973E+03  0.7546771E-02  0.1154001E+00
         21   -1    0    0  503  502  0.00000000000E+00  0.00000000000E+00  0.12025504493E+03  0.12025504493E+03  0.00000000000E+00 0. -1.
         21   -1    0    0  501  503 -0.00000000000E+00 -0.00000000000E+00 -0.31499889613E+03  0.31499889613E+03  0.00000000000E+00 0. -1.
          6    2    1    2  501    0  0.32403824862E+02  0.82643464272E+02 -0.10241389199E+03  0.21905029511E+03  0.17208857157E+03 0.  0.
         24    2    3    3    0    0  0.12023768664E+02  0.91819323561E+02 -0.76499285585E+01  0.12157290363E+03  0.78397004399E+02 0.  0.
         -6    2    1    2    0  502 -0.32403824862E+02 -0.82643464272E+02 -0.92329959208E+02  0.21620364595E+03  0.17418164399E+03 0.  0.
        -24    2    5    5    0    0 -0.35683413315E+02  0.12045887950E+02 -0.81597394185E+02  0.12073581328E+03  0.80626251724E+02 0.  0.
          5    1    3    3  501    0  0.20380056198E+02 -0.91758592890E+01 -0.94763963432E+02  0.97477391480E+02  0.47000000000E+01 0. -1.
        -11    1    4    4    0    0 -0.26400249024E+02  0.73834498847E+02  0.28260048676E+00  0.78412921331E+02  0.00000000000E+00 0.  1.
         12    1    4    4    0    0  0.38424017688E+02  0.17984824713E+02 -0.79325290452E+01  0.43159982302E+02  0.00000000000E+00 0. -1.
         -5    1    5    5    0  502  0.32795884527E+01 -0.94689352221E+02 -0.10732565022E+02  0.95467832679E+02  0.47000000000E+01 0.  1.
         13    1    6    6    0    0 -0.50087206376E+02 -0.12011189463E+02 -0.24312972341E+02  0.56957155292E+02  0.00000000000E+00 0. -1.
        -14    1    6    6    0    0  0.14403793061E+02  0.24057077413E+02 -0.57284421844E+02  0.63778657984E+02  0.00000000000E+00 0.  1.
<mgrwt>
<rscale>  2 0.19503000E+03</rscale>
<asrwt>0</asrwt>
<pdfrwt beam="1">  1       21 0.18500776E-01 0.19549730E+03</pdfrwt>
<pdfrwt beam="2">  1       21 0.48461368E-01 0.19549730E+03</pdfrwt>
<totfact> 0.10839581E+05</totfact>
</mgrwt>
</event>
<event>
12    1  0.1050690E-001  0.2120833E+03  0.7546771E-02  0.1140020E+00
         21   -1    0    0  503  502  0.00000000000E+00  0.00000000000E+00  0.56091571222E+03  0.56091571222E+03  0.00000000000E+00 0. -1.
         21   -1    0    0  501  503 -0.00000000000E+00 -0.00000000000E+00 -0.82944797919E+02  0.82944797919E+02  0.00000000000E+00 0. -1.
          6    2    1    2  501    0  0.11742157253E+03 -0.30787070985E+02  0.17867205150E+03  0.27731398577E+03  0.17390708807E+03 0.  0.
         24    2    3    3    0    0  0.11268543954E+03  0.17473150859E+02  0.65132755251E+02  0.15376342219E+03  0.79984966782E+02 0.  0.
         -6    2    1    2    0  502 -0.11742157253E+03  0.30787070985E+02  0.29929886280E+03  0.36654652437E+03  0.17332303892E+03 0.  0.
        -24    2    5    5    0    0 -0.15161620872E+03  0.36840274423E+02  0.26984231487E+03  0.32076778879E+03  0.75712739098E+02 0.  0.
          5    1    3    3  501    0  0.47361329885E+01 -0.48260221844E+02  0.11353929625E+03  0.12355056358E+03  0.47000000000E+01 0. -1.
        -11    1    4    4    0    0  0.88986701199E+01 -0.19775542181E+02 -0.60517849144E+01  0.22514051148E+02  0.00000000000E+00 0.  1.
         12    1    4    4    0    0  0.10378676942E+03  0.37248693040E+02  0.71184540165E+02  0.13124937104E+03  0.00000000000E+00 0. -1.
         -5    1    5    5    0  502  0.34194636187E+02 -0.60532034377E+01  0.29456547924E+02  0.45778735582E+02  0.47000000000E+01 0.  1.
         13    1    6    6    0    0 -0.80375198609E+02  0.86852539634E+01  0.70687358772E+02  0.10738858821E+03  0.00000000000E+00 0. -1.
        -14    1    6    6    0    0 -0.71241010106E+02  0.28155020459E+02  0.19915495610E+03  0.21337920058E+03  0.00000000000E+00 0.  1.
<mgrwt>
<rscale>  2 0.21196358E+03</rscale>
<asrwt>0</asrwt>
<pdfrwt beam="1">  1       21 0.86294722E-01 0.21208334E+03</pdfrwt>
<pdfrwt beam="2">  1       21 0.12760739E-01 0.21208334E+03</pdfrwt>
<totfact> 0.60275081E+04</totfact>
</mgrwt>
</event>
<event>
12    1  0.1050690E-001  0.1976550E+03  0.7546771E-02  0.1151754E+00
         21   -1    0    0  501  502  0.00000000000E+00  0.00000000000E+00  0.14046403042E+03  0.14046403042E+03  0.00000000000E+00 0. -1.
         21   -1    0    0  502  503 -0.00000000000E+00 -0.00000000000E+00 -0.29735029753E+03  0.29735029753E+03  0.00000000000E+00 0. -1.
         -6    2    1    2    0  503 -0.13803947376E+02 -0.94567361788E+02 -0.13428044221E+03  0.23887076347E+03  0.17290017236E+03 0.  0.
        -24    2    3    3    0    0  0.61833191565E+01 -0.10244796942E+03 -0.15910124492E+03  0.20570817842E+03  0.80429028707E+02 0.  0.
          6    2    1    2  501    0  0.13803947376E+02  0.94567361788E+02 -0.22605824900E+02  0.19894356448E+03  0.17301440301E+03 0.  0.
         24    2    5    5    0    0  0.53000641135E+02  0.10420053748E+03  0.15916529059E+02  0.14295034498E+03  0.80713352436E+02 0.  0.
          5    1    5    5  501    0 -0.39196693759E+02 -0.96331756887E+01 -0.38522353960E+02  0.55993219501E+02  0.47000000000E+01 0. -1.
        -11    1    6    6    0    0 -0.19431055556E+01  0.23874163113E+02 -0.27427621883E+02  0.36414636696E+02  0.00000000000E+00 0.  1.
         12    1    6    6    0    0  0.54943746691E+02  0.80326374364E+02  0.43344150942E+02  0.10653570828E+03  0.00000000000E+00 0. -1.
         -5    1    3    3    0  503 -0.19987266533E+02  0.78806076298E+01  0.24820802712E+02  0.33162585052E+02  0.47000000000E+01 0.  1.
         11    1    4    4    0    0  0.91897463620E+01 -0.20051527814E+02 -0.10453359009E+03  0.10683532498E+03  0.00000000000E+00 0. -1.
        -12    1    4    4    0    0 -0.30064272055E+01 -0.82396441604E+02 -0.54567654828E+02  0.98872853438E+02  0.00000000000E+00 0.  1.
<mgrwt>
<rscale>  2 0.19763005E+03</rscale>
<asrwt>0</asrwt>
<pdfrwt beam="1">  1       21 0.21609851E-01 0.19765505E+03</pdfrwt>
<pdfrwt beam="2">  1       21 0.45746199E-01 0.19765505E+03</pdfrwt>
<totfact> 0.91271954E+04</totfact>
</mgrwt>
</event>
<event>
12    1  0.1050690E-001  0.1928026E+03  0.7546771E-02  0.1159455E+00
         21   -1    0    0  501  502  0.00000000000E+00  0.00000000000E+00  0.66402916945E+02  0.66402916945E+02  0.00000000000E+00 0.  1.
         21   -1    0    0  502  503 -0.00000000000E+00 -0.00000000000E+00 -0.51822385141E+03  0.51822385141E+03  0.00000000000E+00 0.  1.
         -6    2    1    2    0  503 -0.44434425168E+02 -0.46805430724E+00 -0.20103287008E+03  0.26829228818E+03  0.17202296308E+03 0.  0.
        -24    2    3    3    0    0  0.28344190865E+02  0.37653844053E+02 -0.89022605559E+02  0.12930165740E+03  0.81072123306E+02 0.  0.
          6    2    1    2  501    0  0.44434425168E+02  0.46805430724E+00 -0.25078806438E+03  0.31633448018E+03  0.18761186769E+03 0.  0.
         24    2    5    5    0    0 -0.35059836185E+02 -0.46854638571E+02 -0.11321338533E+03  0.15048015504E+03  0.80015355867E+02 0.  0.
          5    1    5    5  501    0  0.79494261352E+02  0.47322692878E+02 -0.13757467906E+03  0.16585432514E+03  0.47000000000E+01 0. -1.
        -13    1    6    6    0    0 -0.14952704563E+02 -0.12333652860E+02  0.93859727093E+01  0.21535989652E+02  0.00000000000E+00 0.  1.
         14    1    6    6    0    0 -0.20107131622E+02 -0.34520985711E+02 -0.12259935803E+03  0.12894416539E+03  0.00000000000E+00 0. -1.
         -5    1    3    3    0  503 -0.72778616033E+02 -0.38121898361E+02 -0.11201026452E+03  0.13899063078E+03  0.47000000000E+01 0.  1.
         13    1    4    4    0    0 -0.87261237139E+01  0.30255875751E+01  0.12658158843E+02  0.15669345887E+02  0.00000000000E+00 0. -1.
        -14    1    4    4    0    0  0.37070314579E+02  0.34628256478E+02 -0.10168076440E+03  0.11363231151E+03  0.00000000000E+00 0.  1.
<mgrwt>
<rscale>  2 0.18890266E+03</rscale>
<asrwt>0</asrwt>
<pdfrwt beam="1">  1       21 0.10215833E-01 0.19280262E+03</pdfrwt>
<pdfrwt beam="2">  1       21 0.79726748E-01 0.19280262E+03</pdfrwt>
<totfact> 0.10830296E+05</totfact>
</mgrwt>
</event>
<event>
12    1  0.1050690E-001  0.2185352E+03  0.7546771E-02  0.1135010E+00
         21   -1    0    0  503  502  0.00000000000E+00  0.00000000000E+00  0.76271262583E+02  0.76271262583E+02  0.00000000000E+00 0.  1.
         21   -1    0    0  501  503 -0.00000000000E+00 -0.00000000000E+00 -0.62720430102E+03  0.62720430102E+03  0.00000000000E+00 0.  1.
          6    2    1    2  501    0  0.18172649272E+02  0.13217259619E+03 -0.25831276887E+03  0.33835351987E+03  0.17308315192E+03 0.  0.
         24    2    3    3    0    0 -0.39943511566E+02  0.19080665427E+02 -0.10238012825E+03  0.13709659113E+03  0.79713416240E+02 0.  0.
         -6    2    1    2    0  502 -0.18172649272E+02 -0.13217259619E+03 -0.29262026956E+03  0.36512204373E+03  0.17288043352E+03 0.  0.
        -24    2    5    5    0    0 -0.27177893287E+02 -0.46789544781E+02 -0.46396327652E+02  0.10431621662E+03  0.76166622908E+02 0.  0.
          5    1    3    3  501    0  0.58116160838E+02  0.11309193077E+03 -0.15593264062E+03  0.20125692874E+03  0.47000000000E+01 0. -1.
        -13    1    4    4    0    0 -0.52825898033E+02  0.39920234559E+02 -0.80648768686E+02  0.10434761387E+03  0.00000000000E+00 0.  1.
         14    1    4    4    0    0  0.12882386467E+02 -0.20839569132E+02 -0.21731359563E+02  0.32748977253E+02  0.00000000000E+00 0. -1.
         -5    1    5    5    0  502  0.90052440158E+01 -0.85383051411E+02 -0.24622394191E+03  0.26080582712E+03  0.47000000000E+01 0.  1.
         13    1    6    6    0    0 -0.32076862713E+02 -0.19637512112E+01 -0.49609604496E+02  0.59109172711E+02  0.00000000000E+00 0. -1.
        -14    1    6    6    0    0  0.48989694251E+01 -0.44825793570E+02  0.32132768443E+01  0.45207043906E+02  0.00000000000E+00 0.  1.
<mgrwt>
<rscale>  2 0.21849502E+03</rscale>
<asrwt>0</asrwt>
<pdfrwt beam="1">  1       21 0.11734041E-01 0.21853516E+03</pdfrwt>
<pdfrwt beam="2">  1       21 0.96492968E-01 0.21853516E+03</pdfrwt>
<totfact> 0.53864285E+04</totfact>
</mgrwt>
</event>
<event>
11    1  0.1050690E-001  0.2121045E+03  0.7546771E-02  0.1140133E+00
         21   -1    0    0  501  502  0.00000000000E+00  0.00000000000E+00  0.12280991358E+03  0.12280991358E+03  0.00000000000E+00 0.  1.
         21   -1    0    0  502  503 -0.00000000000E+00 -0.00000000000E+00 -0.44698753880E+03  0.44698753880E+03  0.00000000000E+00 0. -1.
         -6    2    1    2    0  503  0.10190072559E+03 -0.65642972159E+02 -0.28492955844E+03  0.35520865805E+03  0.17405625473E+03 0.  0.
        -24    2    3    3    0    0  0.13046682309E+03 -0.85788433444E+02 -0.25442209620E+03  0.30857544253E+03  0.78146999042E+02 0.  0.
          6    2    1    2  501    0 -0.10190072559E+03  0.65642972159E+02 -0.39248066773E+02  0.21458879433E+03  0.17267073359E+03 0.  0.
          5    1    5    5  501    0  0.25878176218E+02  0.59093595354E+02 -0.48216479898E+02  0.80676216755E+02  0.47000000000E+01 0. -1.
        -13    1    5    5    0    0 -0.35627367724E+01 -0.76599243574E+01 -0.90944150377E+00  0.84967416296E+01  0.00000000000E+00 0.  1.
         14    1    5    5    0    0 -0.12421616503E+03  0.14209301163E+02  0.98778546288E+01  0.12541583595E+03  0.00000000000E+00 0. -1.
         -5    1    3    3    0  503 -0.28566097502E+02  0.20145461285E+02 -0.30507462239E+02  0.46633215513E+02  0.47000000000E+01 0.  1.
         13    1    4    4    0    0  0.52401115885E+02 -0.77643125193E+02 -0.16376318964E+03  0.18866031410E+03  0.00000000000E+00 0. -1.
        -14    1    4    4    0    0  0.78065707204E+02 -0.81453082509E+01 -0.90658906559E+02  0.11991512843E+03  0.00000000000E+00 0.  1.
<mgrwt>
<rscale>  2 0.21182010E+03</rscale>
<asrwt>0</asrwt>
<pdfrwt beam="1">  1       21 0.18893833E-01 0.21210454E+03</pdfrwt>
<pdfrwt beam="2">  1       21 0.68767312E-01 0.21210454E+03</pdfrwt>
<totfact> 0.48981042E+04</totfact>
</mgrwt>
</event>
<event>
12    1  0.1050690E-001  0.2010683E+03  0.7546771E-02  0.1151239E+00
         21   -1    0    0  501  502  0.00000000000E+00  0.00000000000E+00  0.38183730835E+03  0.38183730835E+03  0.00000000000E+00 0. -1.
         21   -1    0    0  502  503 -0.00000000000E+00 -0.00000000000E+00 -0.19419816441E+03  0.19419816441E+03  0.00000000000E+00 0. -1.
         -6    2    1    2    0  503  0.49556312224E+02 -0.62522768294E+02 -0.10523997929E+03  0.22694470425E+03  0.18456305402E+03 0.  0.
        -24    2    3    3    0    0 -0.20876686623E+02  0.12288874056E+02 -0.91076201716E+02  0.12311652044E+03  0.79220897597E+02 0.  0.
          6    2    1    2  501    0 -0.49556312224E+02  0.62522768294E+02  0.29287912323E+03  0.34909076852E+03  0.17239854757E+03 0.  0.
         24    2    5    5    0    0 -0.43323915693E+01  0.78945466706E+02  0.10156172144E+03  0.15176021780E+03  0.80406617346E+02 0.  0.
          5    1    5    5  501    0 -0.45223920655E+02 -0.16422698412E+02  0.19131740179E+03  0.19733055072E+03  0.47000000000E+01 0. -1.
        -11    1    6    6    0    0 -0.10974429574E+02  0.39728084944E+02  0.10404065351E+03  0.11190717770E+03  0.00000000000E+00 0.  1.
         12    1    6    6    0    0  0.66420380044E+01  0.39217381762E+02 -0.24789320628E+01  0.39853040101E+02  0.00000000000E+00 0. -1.
         -5    1    3    3    0  503  0.70432998847E+02 -0.74811642350E+02 -0.14163777573E+02  0.10382818381E+03  0.47000000000E+01 0.  1.
         13    1    4    4    0    0 -0.25210302030E+02 -0.21263344631E+02 -0.81555403140E+02  0.87971432492E+02  0.00000000000E+00 0. -1.
        -14    1    4    4    0    0  0.43336154067E+01  0.33552218687E+02 -0.95207985762E+01  0.35145087947E+02  0.00000000000E+00 0.  1.
<mgrwt>
<rscale>  2 0.19823268E+03</rscale>
<asrwt>0</asrwt>
<pdfrwt beam="1">  1       21 0.58744201E-01 0.20106826E+03</pdfrwt>
<pdfrwt beam="2">  1       21 0.29876641E-01 0.20106826E+03</pdfrwt>
<totfact> 0.28989656E+04</totfact>
</mgrwt>
</event>
<event>
12    1  0.1050690E-001  0.1762751E+03  0.7546771E-02  0.1171554E+00
         21   -1    0    0  503  502  0.00000000000E+00  0.00000000000E+00  0.57366000867E+02  0.57366000867E+02  0.00000000000E+00 0. -1.
         21   -1    0    0  501  503 -0.00000000000E+00 -0.00000000000E+00 -0.34592361988E+04  0.34592361988E+04  0.00000000000E+00 0. -1.
          6    2    1    2  501    0  0.36995782425E+02 -0.79316516193E+01 -0.33163415012E+04  0.33210230148E+04  0.17216652811E+03 0.  0.
         24    2    3    3    0    0 -0.34094932937E+02 -0.40777083321E+02 -0.16436997318E+04  0.16465424115E+04  0.80795232217E+02 0.  0.
         -6    2    1    2    0  502 -0.36995782425E+02  0.79316516193E+01 -0.85528696784E+02  0.19557918489E+03  0.17176862512E+03 0.  0.
        -24    2    5    5    0    0 -0.71287681545E+02  0.37878420615E+02 -0.95328652610E+02  0.14877242841E+03  0.80802073967E+02 0.  0.
          5    1    3    3  501    0  0.71090715362E+02  0.32845431701E+02 -0.16726417693E+04  0.16744806033E+04  0.47000000000E+01 0. -1.
        -11    1    4    4    0    0 -0.42685396557E+02  0.24354467079E+01 -0.44911636035E+03  0.45114684928E+03  0.00000000000E+00 0.  1.
         12    1    4    4    0    0  0.85904636200E+01 -0.43212530029E+02 -0.11945833715E+04  0.11953955622E+04  0.00000000000E+00 0. -1.
         -5    1    5    5    0  502  0.34291899120E+02 -0.29946768995E+02  0.97999558257E+01  0.46806756486E+02  0.47000000000E+01 0.  1.
         13    1    6    6    0    0 -0.27345202631E+02  0.55859372096E+02 -0.74162960501E+02  0.96789329310E+02  0.00000000000E+00 0. -1.
        -14    1    6    6    0    0 -0.43942478914E+02 -0.17980951482E+02 -0.21165692109E+02  0.51983099097E+02  0.00000000000E+00 0.  1.
<mgrwt>
<rscale>  2 0.17617787E+03</rscale>
<asrwt>0</asrwt>
<pdfrwt beam="1">  1       21 0.88255398E-02 0.17627510E+03</pdfrwt>
<pdfrwt beam="2">  1       21 0.53219011E+00 0.17627510E+03</pdfrwt>
<totfact> 0.11602649E+02</totfact>
</mgrwt>
</event>
<event>
12    1  0.1050690E-001  0.2072445E+03  0.7546771E-02  0.1143863E+00
         21   -1    0    0  501  502  0.00000000000E+00  0.00000000000E+00  0.68564320107E+03  0.68564320107E+03  0.00000000000E+00 0. -1.
         21   -1    0    0  502  503 -0.00000000000E+00 -0.00000000000E+00 -0.25083669613E+03  0.25083669613E+03  0.00000000000E+00 0. -1.
         -6    2    1    2    0  503 -0.70708660226E+02  0.89125692267E+02 -0.18826912217E+03  0.27999203080E+03  0.17322578126E+03 0.  0.
        -24    2    3    3    0    0  0.10705858033E+02  0.84468438165E+02 -0.71552499904E+02  0.13753195319E+03  0.80905781388E+02 0.  0.
          6    2    1    2  501    0  0.70708660226E+02 -0.89125692267E+02  0.62307562711E+03  0.65648786641E+03  0.17265566306E+03 0.  0.
         24    2    5    5    0    0  0.47827897929E+02 -0.12787505078E+03  0.43191956200E+03  0.46005015797E+03  0.80324985986E+02 0.  0.
          5    1    5    5  501    0  0.22880762297E+02  0.38749358517E+02  0.19115606511E+03  0.19643770844E+03  0.47000000000E+01 0. -1.
        -11    1    6    6    0    0 -0.14200846284E+01 -0.92436592250E+02  0.31554620545E+03  0.32880989645E+03  0.00000000000E+00 0.  1.
         12    1    6    6    0    0  0.49247982558E+02 -0.35438458533E+02  0.11637335655E+03  0.13124026152E+03  0.00000000000E+00 0. -1.
         -5    1    3    3    0  503 -0.81414518260E+02  0.46572541011E+01 -0.11671662227E+03  0.14246007761E+03  0.47000000000E+01 0.  1.
         13    1    4    4    0    0 -0.13873584168E+02  0.57247020312E+02 -0.20427050037E+01  0.58939547980E+02  0.00000000000E+00 0. -1.
        -14    1    4    4    0    0  0.24579442202E+02  0.27221417853E+02 -0.69509794901E+02  0.78592405206E+02  0.00000000000E+00 0.  1.
<mgrwt>
<rscale>  2 0.20712530E+03</rscale>
<asrwt>0</asrwt>
<pdfrwt beam="1">  1       21 0.10548357E+00 0.20724448E+03</pdfrwt>
<pdfrwt beam="2">  1       21 0.38590261E-01 0.20724448E+03</pdfrwt>
<totfact> 0.46247473E+03</totfact>
</mgrwt>
</event>
<event>
12    1  0.1050690E-001  0.2028887E+03  0.7546771E-02  0.1149424E+00
         21   -1    0    0  503  502  0.00000000000E+00  0.00000000000E+00  0.32987916463E+02  0.32987916463E+02  0.00000000000E+00 0. -1.
         21   -1    0    0  501  503 -0.00000000000E+00 -0.00000000000E+00 -0.19645882174E+04  0.19645882174E+04  0.00000000000E+00 0.  1.
          6    2    1    2  501    0  0.10228698886E+02 -0.78289706991E+02 -0.16082593736E+04  0.16210064882E+04  0.18689547256E+03 0.  0.
         24    2    3    3    0    0 -0.63549428588E+02 -0.50188460590E+02 -0.11851739873E+04  0.11905924710E+04  0.79471003354E+02 0.  0.
         -6    2    1    2    0  502 -0.10228698886E+02  0.78289706991E+02 -0.32334092731E+03  0.37656964559E+03  0.17612903851E+03 0.  0.
        -24    2    5    5    0    0 -0.33645386822E+01  0.12191687081E+03 -0.21673966019E+03  0.26108645950E+03  0.79467071957E+02 0.  0.
          5    1    3    3  501    0  0.73778127474E+02 -0.28101246401E+02 -0.42308538629E+03  0.43041401724E+03  0.47000000000E+01 0. -1.
        -13    1    4    4    0    0 -0.51852184723E+01 -0.44229426048E+02 -0.77087684776E+03  0.77216205749E+03  0.00000000000E+00 0.  1.
         14    1    4    4    0    0 -0.58364210116E+02 -0.59590345425E+01 -0.41429713956E+03  0.41843041352E+03  0.00000000000E+00 0. -1.
         -5    1    5    5    0  502 -0.68641602041E+01 -0.43627163820E+02 -0.10660126712E+03  0.11548318609E+03  0.47000000000E+01 0.  1.
         11    1    6    6    0    0 -0.12193750020E+02  0.36004343812E+02 -0.13639263862E+02  0.40386010345E+02  0.00000000000E+00 0. -1.
        -12    1    6    6    0    0  0.88292113375E+01  0.85912527000E+02 -0.20310039633E+03  0.22070044915E+03  0.00000000000E+00 0.  1.
<mgrwt>
<rscale>  2 0.20037427E+03</rscale>
<asrwt>0</asrwt>
<pdfrwt beam="1">  1       21 0.50750636E-02 0.20288869E+03</pdfrwt>
<pdfrwt beam="2">  1       21 0.30224437E+00 0.20288869E+03</pdfrwt>
<totfact> 0.85953895E+03</totfact>
</mgrwt>
</event>
<event>
12    1  0.1050690E-001  0.2367811E+03  0.7546771E-02  0.1122083E+00
         21   -1    0    0  503  502  0.00000000000E+00  0.00000000000E+00  0.58532378881E+03  0.58532378881E+03  0.00000000000E+00 0. -1.
         21   -1    0    0  501  503 -0.00000000000E+00 -0.00000000000E+00 -0.99962278390E+02  0.99962278390E+02  0.00000000000E+00 0.  1.
          6    2    1    2  501    0  0.16135557499E+03 -0.61070302224E+01  0.31485448841E+03  0.39350199513E+03  0.17215560955E+03 0.  0.
         24    2    3    3    0    0  0.58905354483E+02  0.48029495868E+02  0.17385342155E+03  0.21093638502E+03  0.92154615077E+02 0.  0.
         -6    2    1    2    0  502 -0.16135557499E+03  0.61070302224E+01  0.17050702201E+03  0.29178407207E+03  0.17318309029E+03 0.  0.
        -24    2    5    5    0    0 -0.12805229139E+03  0.88781856265E+00  0.19706973390E+03  0.24860981433E+03  0.81068996573E+02 0.  0.
          5    1    3    3  501    0  0.10245022051E+03 -0.54136526090E+02  0.14100106686E+03  0.18256561011E+03  0.47000000000E+01 0. -1.
        -11    1    4    4    0    0 -0.10168350480E+02  0.67109564994E+01 -0.62303008163E+01  0.13683893338E+02  0.00000000000E+00 0.  1.
         12    1    4    4    0    0  0.69073704963E+02  0.41318539368E+02  0.18008372237E+03  0.19725249168E+03  0.00000000000E+00 0. -1.
         -5    1    5    5    0  502 -0.33303283597E+02  0.52192116597E+01 -0.26562711894E+02  0.43174257745E+02  0.47000000000E+01 0.  1.
         13    1    6    6    0    0 -0.94448127499E+02  0.28356317620E+02  0.17260087180E+03  0.19878528739E+03  0.00000000000E+00 0. -1.
        -14    1    6    6    0    0 -0.33604163895E+02 -0.27468499058E+02  0.24468862101E+02  0.49824526933E+02  0.00000000000E+00 0.  1.
<mgrwt>
<rscale>  2 0.23659328E+03</rscale>
<asrwt>0</asrwt>
<pdfrwt beam="1">  1       21 0.90049811E-01 0.23678112E+03</pdfrwt>
<pdfrwt beam="2">  1       21 0.15378813E-01 0.23678112E+03</pdfrwt>
<totfact> 0.38467367E+04</totfact>
</mgrwt>
</event>
<event>
12    1  0.1050690E-001  0.2006779E+03  0.7546771E-02  0.1149208E+00
         21   -1    0    0  501  502  0.00000000000E+00  0.00000000000E+00  0.57955195818E+02  0.57955195818E+02  0.00000000000E+00 0. -1.
         21   -1    0    0  502  503 -0.00000000000E+00 -0.00000000000E+00 -0.75612260465E+03  0.75612260465E+03  0.00000000000E+00 0.  1.
         -6    2    1    2    0  503  0.10564679734E+02  0.10151448824E+03 -0.46569801357E+03  0.50709590103E+03  0.17278544273E+03 0.  0.
        -24    2    3    3    0    0 -0.62626309553E+02  0.71222889416E+02 -0.29405792784E+03  0.31800092251E+03  0.75231424065E+02 0.  0.
          6    2    1    2  501    0 -0.10564679734E+02 -0.10151448824E+03 -0.23246939526E+03  0.30698189943E+03  0.17256611216E+03 0.  0.
         24    2    5    5    0    0 -0.59232569449E+01 -0.48286077123E+02 -0.32413989931E+02  0.99861012615E+02  0.80962490578E+02 0.  0.
          5    1    5    5  501    0 -0.46414227895E+01 -0.53228411122E+02 -0.20005540533E+03  0.20712088682E+03  0.47000000000E+01 0. -1.
        -13    1    6    6    0    0 -0.28174292366E+02 -0.15638216646E+02 -0.47644045295E+02  0.57517820041E+02  0.00000000000E+00 0.  1.
         14    1    6    6    0    0  0.22251035421E+02 -0.32647860477E+02  0.15230055364E+02  0.42343192575E+02  0.00000000000E+00 0. -1.
         -5    1    3    3    0  503  0.73190989287E+02  0.30291598828E+02 -0.17164008573E+03  0.18909497852E+03  0.47000000000E+01 0.  1.
         13    1    4    4    0    0 -0.47186268167E+02  0.11095792240E+02 -0.67563881084E+02  0.83153704284E+02  0.00000000000E+00 0. -1.
        -14    1    4    4    0    0 -0.15440041386E+02  0.60127097177E+02 -0.22649404676E+03  0.23484721823E+03  0.00000000000E+00 0.  1.
<mgrwt>
<rscale>  2 0.20063066E+03</rscale>
<asrwt>0</asrwt>
<pdfrwt beam="1">  1       21 0.89161846E-02 0.20067788E+03</pdfrwt>
<pdfrwt beam="2">  1       21 0.11632655E+00 0.20067788E+03</pdfrwt>
<totfact> 0.56374657E+04</totfact>
</mgrwt>
</event>
<event>
12    1  0.1050690E-001  0.2148702E+03  0.7546771E-02  0.1138771E+00
         21   -1    0    0  503  502  0.00000000000E+00  0.00000000000E+00  0.14547571855E+03  0.14547571855E+03  0.00000000000E+00 0.  1.
         21   -1    0    0  501  503 -0.00000000000E+00 -0.00000000000E+00 -0.31351551248E+03  0.31351551248E+03  0.00000000000E+00 0. -1.
          6    2    1    2  501    0  0.11162944894E+03  0.61131846999E+02 -0.58001288053E+02  0.21758355176E+03  0.16667398114E+03 0.  0.
         24    2    3    3    0    0  0.57202155735E+02 -0.23848841325E+02 -0.46642754814E+02  0.11592159274E+03  0.86147636261E+02 0.  0.
         -6    2    1    2    0  502 -0.11162944894E+03 -0.61131846999E+02 -0.11003850587E+03  0.24140767928E+03  0.17312122415E+03 0.  0.
        -24    2    5    5    0    0 -0.89611032939E+02 -0.93763769867E+02 -0.34879858940E+02  0.15643377009E+03  0.80206845725E+02 0.  0.
          5    1    3    3  501    0  0.54427293205E+02  0.84980688323E+02 -0.11358533240E+02  0.10166195902E+03  0.47000000000E+01 0. -1.
        -11    1    4    4    0    0  0.58904531601E+02 -0.35179626722E+02 -0.74386416956E+00  0.68614162629E+02  0.00000000000E+00 0.  1.
         12    1    4    4    0    0 -0.17023758660E+01  0.11330785397E+02 -0.45898890644E+02  0.47307430110E+02  0.00000000000E+00 0. -1.
         -5    1    5    5    0  502 -0.22018416002E+02  0.32631922869E+02 -0.75158646932E+02  0.84973909184E+02  0.47000000000E+01 0.  1.
         11    1    6    6    0    0  0.11007290273E+02  0.36404351361E+01  0.16391774538E+01  0.11708975611E+02  0.00000000000E+00 0. -1.
        -12    1    6    6    0    0 -0.10061832321E+03 -0.97404205004E+02 -0.36519036394E+02  0.14472479448E+03  0.00000000000E+00 0.  1.
<mgrwt>
<rscale>  2 0.21356845E+03</rscale>
<asrwt>0</asrwt>
<pdfrwt beam="1">  1       21 0.22380880E-01 0.21487018E+03</pdfrwt>
<pdfrwt beam="2">  1       21 0.48233156E-01 0.21487018E+03</pdfrwt>
<totfact> 0.76011910E+04</totfact>
</mgrwt>
</event>
<event>
12    1  0.1050690E-001  0.2052813E+03  0.7546771E-02  0.1145845E+00
         21   -1    0    0  501  502  0.00000000000E+00  0.00000000000E+00  0.17480180174E+03  0.17480180174E+03  0.00000000000E+00 0.  1.
         21   -1    0    0  502  503 -0.00000000000E+00 -0.00000000000E+00 -0.11054230543E+04  0.11054230543E+04  0.00000000000E+00 0.  1.
         -6    2    1    2    0  503 -0.61188780388E+02  0.89728253852E+02 -0.10316601072E+04  0.10514252026E+04  0.17139764774E+03 0.  0.
        -24    2    3    3    0    0 -0.15044120730E+02 -0.83816356914E+01 -0.63203557654E+03  0.63732770745E+03  0.80131512500E+02 0.  0.
          6    2    1    2  501    0  0.61188780388E+02 -0.89728253852E+02  0.10103885456E+03  0.22879965345E+03  0.17419875115E+03 0.  0.
         24    2    5    5    0    0  0.34077837572E+02 -0.96174195328E+02  0.13138533862E+03  0.18733216647E+03  0.86142083378E+02 0.  0.
          5    1    5    5  501    0  0.27110942816E+02  0.64459414761E+01 -0.30346484055E+02  0.41467486979E+02  0.47000000000E+01 0. -1.
        -11    1    6    6    0    0  0.60145121246E+02 -0.84644521918E+02  0.11273845771E+03  0.15327129721E+03  0.00000000000E+00 0.  1.
         12    1    6    6    0    0 -0.26067283674E+02 -0.11529673410E+02  0.18646880903E+02  0.34060869257E+02  0.00000000000E+00 0. -1.
         -5    1    3    3    0  503 -0.46144659657E+02  0.98109889543E+02 -0.39962453063E+03  0.41409749519E+03  0.47000000000E+01 0.  1.
         11    1    4    4    0    0  0.22438991571E+02  0.33150853180E+01 -0.63353138840E+02  0.67291294640E+02  0.00000000000E+00 0. -1.
        -12    1    4    4    0    0 -0.37483112301E+02 -0.11696721009E+02 -0.56868243770E+03  0.57003641281E+03  0.00000000000E+00 0.  1.
<mgrwt>
<rscale>  2 0.20468587E+03</rscale>
<asrwt>0</asrwt>
<pdfrwt beam="1">  1       21 0.26892585E-01 0.20528135E+03</pdfrwt>
<pdfrwt beam="2">  1       21 0.17006509E+00 0.20528135E+03</pdfrwt>
<totfact> 0.27743398E+03</totfact>
</mgrwt>
</event>
<event>
12    1  0.1050690E-001  0.1785823E+03  0.7546771E-02  0.1169384E+00
         21   -1    0    0  503  502  0.00000000000E+00  0.00000000000E+00  0.54174923629E+02  0.54174923629E+02  0.00000000000E+00 0.  1.
         21   -1    0    0  501  503 -0.00000000000E+00 -0.00000000000E+00 -0.68816502693E+03  0.68816502693E+03  0.00000000000E+00 0.  1.
          6    2    1    2  501    0 -0.44069549810E+01 -0.42158264061E+02 -0.46065123324E+03  0.49405586022E+03  0.17347879941E+03 0.  0.
         24    2    3    3    0    0 -0.56147015977E+02 -0.92800462113E+01 -0.16498753044E+03  0.19206724077E+03  0.80189357867E+02 0.  0.
         -6    2    1    2    0  502  0.44069549810E+01  0.42158264061E+02 -0.17333887006E+03  0.24828409034E+03  0.17263222516E+03 0.  0.
        -24    2    5    5    0    0 -0.39170106294E+00  0.41213356846E+02 -0.16668155805E+02  0.91466608363E+02  0.79935091264E+02 0.  0.
          5    1    3    3  501    0  0.51740060996E+02 -0.32878217850E+02 -0.29566370280E+03  0.30198861945E+03  0.47000000000E+01 0. -1.
        -11    1    4    4    0    0 -0.10401339370E+02 -0.40715630235E+02 -0.59150166907E+02  0.72558201819E+02  0.00000000000E+00 0.  1.
         12    1    4    4    0    0 -0.45745676608E+02  0.31435584023E+02 -0.10583736353E+03  0.11950903895E+03  0.00000000000E+00 0. -1.
         -5    1    5    5    0  502  0.47986560439E+01  0.94490721502E+00 -0.15667071425E+03  0.15681748198E+03  0.47000000000E+01 0.  1.
         13    1    6    6    0    0 -0.28041461232E+02 -0.10699326275E+02 -0.12467549585E+02  0.32499829590E+02  0.00000000000E+00 0. -1.
        -14    1    6    6    0    0  0.27649760169E+02  0.51912683122E+02 -0.42006062205E+01  0.58966778773E+02  0.00000000000E+00 0.  1.
<mgrwt>
<rscale>  2 0.17837637E+03</rscale>
<asrwt>0</asrwt>
<pdfrwt beam="1">  1       21 0.83346038E-02 0.17858229E+03</pdfrwt>
<pdfrwt beam="2">  1       21 0.10587154E+00 0.17858229E+03</pdfrwt>
<totfact> 0.80530079E+04</totfact>
</mgrwt>
</event>
<event>
12    1  0.1050690E-001  0.2093224E+03  0.7546771E-02  0.1142108E+00
         21   -1    0    0  501  502  0.00000000000E+00  0.00000000000E+00  0.48276416742E+03  0.48276416742E+03  0.00000000000E+00 0. -1.
         21   -1    0    0  502  503 -0.00000000000E+00 -0.00000000000E+00 -0.91049105940E+02  0.91049105940E+02  0.00000000000E+00 0.  1.
         -6    2    1    2    0  503  0.11915743328E+03  0.16938324230E+02  0.17942869725E+03  0.27570008045E+03  0.17126142657E+03 0.  0.
        -24    2    3    3    0    0  0.95936665133E+02 -0.26605533287E+02  0.18599174888E+03  0.22569572817E+03  0.80211800513E+02 0.  0.
          6    2    1    2  501    0 -0.11915743328E+03 -0.16938324230E+02  0.21228636423E+03  0.29811319291E+03  0.17123251622E+03 0.  0.
         24    2    5    5    0    0 -0.61168771707E+02  0.99319851583E+01  0.31116197653E+02  0.10594290994E+03  0.80096313575E+02 0.  0.
          5    1    5    5  501    0 -0.57988661578E+02 -0.26870309388E+02  0.18117016658E+03  0.19217028297E+03  0.47000000000E+01 0. -1.
        -13    1    6    6    0    0 -0.73144147651E+02 -0.13442286461E+02  0.17678503025E+02  0.76441421167E+02  0.00000000000E+00 0.  1.
         14    1    6    6    0    0  0.11975375944E+02  0.23374271619E+02  0.13437694628E+02  0.29501488770E+02  0.00000000000E+00 0. -1.
         -5    1    3    3    0  503  0.23220768152E+02  0.43543857517E+02 -0.65630516351E+01  0.50004352288E+02  0.47000000000E+01 0.  1.
         13    1    4    4    0    0  0.86395816727E+02 -0.45193445340E+02  0.11050300306E+03  0.14736891916E+03  0.00000000000E+00 0. -1.
        -14    1    4    4    0    0  0.95408484056E+01  0.18587912052E+02  0.75488745826E+02  0.78326809006E+02  0.00000000000E+00 0.  1.
<mgrwt>
<rscale>  2 0.20931651E+03</rscale>
<asrwt>0</asrwt>
<pdfrwt beam="1">  1       21 0.74271409E-01 0.20932242E+03</pdfrwt>
<pdfrwt beam="2">  1       21 0.14007555E-01 0.20932242E+03</pdfrwt>
<totfact> 0.71640023E+04</totfact>
</mgrwt>
</event>
<event>
12    1  0.1050690E-001  0.1835593E+03  0.7546771E-02  0.1164409E+00
         21   -1    0    0  501  502  0.00000000000E+00  0.00000000000E+00  0.60428568660E+03  0.60428568660E+03  0.00000000000E+00 0. -1.
         21   -1    0    0  502  503 -0.00000000000E+00 -0.00000000000E+00 -0.11599648828E+03  0.11599648828E+03  0.00000000000E+00 0. -1.
         -6    2    1    2    0  503  0.33858113710E+02  0.50562858781E+02 -0.15394670390E+02  0.18420377246E+03  0.17317926943E+03 0.  0.
        -24    2    3    3    0    0  0.88136330644E+02  0.41337951877E+02 -0.20188745284E+02  0.12873939745E+03  0.81788801040E+02 0.  0.
          6    2    1    2  501    0 -0.33858113710E+02 -0.50562858781E+02  0.50368386871E+03  0.53607840242E+03  0.17314629475E+03 0.  0.
         24    2    5    5    0    0  0.43261329006E+02 -0.47589179927E+02  0.21853900166E+03  0.24063646833E+03  0.77526395575E+02 0.  0.
          5    1    5    5  501    0 -0.77119442716E+02 -0.29736788534E+01  0.28514486705E+03  0.29544193408E+03  0.47000000000E+01 0. -1.
        -11    1    6    6    0    0  0.64710856504E+01  0.19349129624E+02  0.23201584980E+02  0.30896234597E+02  0.00000000000E+00 0.  1.
         12    1    6    6    0    0  0.36790243355E+02 -0.66938309551E+02  0.19533741668E+03  0.20974023373E+03  0.00000000000E+00 0. -1.
         -5    1    3    3    0  503 -0.54278216934E+02  0.92249069040E+01  0.47940748948E+01  0.55464375008E+02  0.47000000000E+01 0.  1.
         13    1    4    4    0    0 -0.24233655885E+01 -0.17508076927E+02 -0.98799284687E+01  0.20248912193E+02  0.00000000000E+00 0. -1.
        -14    1    4    4    0    0  0.90559696232E+02  0.58846028804E+02 -0.10308816816E+02  0.10849048526E+03  0.00000000000E+00 0.  1.
<mgrwt>
<rscale>  2 0.18355157E+03</rscale>
<asrwt>0</asrwt>
<pdfrwt beam="1">  1       21 0.92967027E-01 0.18355935E+03</pdfrwt>
<pdfrwt beam="2">  1       21 0.17845614E-01 0.18355935E+03</pdfrwt>
<totfact> 0.27938150E+04</totfact>
</mgrwt>
</event>
<event>
12    1  0.1050690E-001  0.2626446E+03  0.7546771E-02  0.1105820E+00
         21   -1    0    0  501  502  0.00000000000E+00  0.00000000000E+00  0.77155589754E+03  0.77155589754E+03  0.00000000000E+00 0.  1.
         21   -1    0    0  502  503 -0.00000000000E+00 -0.00000000000E+00 -0.11504328176E+03  0.11504328176E+03  0.00000000000E+00 0.  1.
         -6    2    1    2    0  503  0.18280140419E+03 -0.71172812378E+02  0.11579887653E+03  0.28547230114E+03  0.17205560821E+03 0.  0.
        -24    2    3    3    0    0  0.42522540725E+02 -0.61593996088E+02  0.12683969702E+02  0.11104556217E+03  0.81044722020E+02 0.  0.
          6    2    1    2  501    0 -0.18280140419E+03  0.71172812378E+02  0.54071373926E+03  0.60112687816E+03  0.17464321698E+03 0.  0.
         24    2    5    5    0    0 -0.11571925393E+03 -0.22118951750E+02  0.35930411048E+03  0.38633648836E+03  0.79222753535E+02 0.  0.
          5    1    5    5  501    0 -0.67082150258E+02  0.93291764127E+02  0.18140962878E+03  0.21479038980E+03  0.47000000000E+01 0. -1.
        -13    1    6    6    0    0 -0.88702908012E+02  0.14974556534E+02  0.28636930867E+03  0.30016632753E+03  0.00000000000E+00 0.  1.
         14    1    6    6    0    0 -0.27016345916E+02 -0.37093508284E+02  0.72934801804E+02  0.86170160831E+02  0.00000000000E+00 0. -1.
         -5    1    3    3    0  503  0.14027886346E+03 -0.95788162903E+01  0.10311490683E+03  0.17442673896E+03  0.47000000000E+01 0.  1.
         11    1    4    4    0    0 -0.15842429211E+02 -0.90076065105E+01 -0.19008267852E+02  0.26333130940E+02  0.00000000000E+00 0. -1.
        -12    1    4    4    0    0  0.58364969936E+02 -0.52586389577E+02  0.31692237555E+02  0.84712431234E+02  0.00000000000E+00 0.  1.
<mgrwt>
<rscale>  2 0.26221517E+03</rscale>
<asrwt>0</asrwt>
<pdfrwt beam="1">  1       21 0.11870090E+00 0.26264458E+03</pdfrwt>
<pdfrwt beam="2">  1       21 0.17698967E-01 0.26264458E+03</pdfrwt>
<totfact> 0.15076771E+04</totfact>
</mgrwt>
</event>
<event>
12    1  0.1050690E-001  0.3071856E+03  0.7546771E-02  0.1082354E+00
         21   -1    0    0  503  502  0.00000000000E+00  0.00000000000E+00  0.12196858133E+04  0.12196858133E+04  0.00000000000E+00 0. -1.
         21   -1    0    0  501  503 -0.00000000000E+00 -0.00000000000E+00 -0.11473558249E+03  0.11473558249E+03  0.00000000000E+00 0.  1.
          6    2    1    2  501    0  0.13057499234E+03 -0.21254455761E+03  0.16176840457E+03  0.34247637475E+03  0.16998833181E+03 0.  0.
         24    2    3    3    0    0 -0.57847897908E+00 -0.61082283046E+02  0.48744497379E+02  0.11239259164E+03  0.80775545128E+02 0.  0.
         -6    2    1    2    0  502 -0.13057499234E+03  0.21254455761E+03  0.94318182629E+03  0.99194502108E+03  0.17927060498E+03 0.  0.
        -24    2    5    5    0    0 -0.86967403395E+02  0.11540190398E+03  0.77783196749E+03  0.79521936751E+03  0.80438449240E+02 0.  0.
          5    1    3    3  501    0  0.13115347132E+03 -0.15146227457E+03  0.11302390719E+03  0.23008378311E+03  0.47000000000E+01 0. -1.
        -11    1    4    4    0    0  0.36544732665E+02 -0.41450289887E+02  0.11901066522E+02  0.56526802507E+02  0.00000000000E+00 0.  1.
         12    1    4    4    0    0 -0.37123211644E+02 -0.19631993159E+02  0.36843430857E+02  0.55865789133E+02  0.00000000000E+00 0. -1.
         -5    1    5    5    0  502 -0.43607588942E+02  0.97142653635E+02  0.16534985881E+03  0.19672565358E+03  0.47000000000E+01 0.  1.
         13    1    6    6    0    0 -0.87995090891E+00  0.43930790069E+02  0.35977656756E+03  0.36244981334E+03  0.00000000000E+00 0. -1.
        -14    1    6    6    0    0 -0.86087452486E+02  0.71471113910E+02  0.41805539993E+03  0.43276955417E+03  0.00000000000E+00 0.  1.
<mgrwt>
<rscale>  2 0.30584609E+03</rscale>
<asrwt>0</asrwt>
<pdfrwt beam="1">  1       21 0.18764396E+00 0.30718556E+03</pdfrwt>
<pdfrwt beam="2">  1       21 0.17651629E-01 0.30718556E+03</pdfrwt>
<totfact> 0.43270940E+03</totfact>
</mgrwt>
</event>
<event>
12    1  0.1050690E-001  0.2404550E+03  0.7546771E-02  0.1119646E+00
         21   -1    0    0  503  502  0.00000000000E+00  0.00000000000E+00  0.64515527023E+03  0.64515527023E+03  0.00000000000E+00 0. -1.
         21   -1    0    0  501  503 -0.00000000000E+00 -0.00000000000E+00 -0.16703346402E+03  0.16703346402E+03  0.00000000000E+00 0. -1.
          6    2    1    2  501    0 -0.16396030044E+03  0.27411323480E+02 -0.37772310383E+02  0.24340371457E+03  0.17373617948E+03 0.  0.
         24    2    3    3    0    0 -0.34937275959E+02  0.12740180142E+02  0.33599770463E+02  0.95153091583E+02  0.80884119709E+02 0.  0.
         -6    2    1    2    0  502  0.16396030044E+03 -0.27411323480E+02  0.51589411659E+03  0.56878501967E+03  0.17243925972E+03 0.  0.
        -24    2    5    5    0    0  0.40033235501E+02 -0.41047965895E+02  0.10470365559E+03  0.13908330841E+03  0.71370272076E+02 0.  0.
          5    1    3    3  501    0 -0.12902302448E+03  0.14671143338E+02 -0.71372080846E+02  0.14825062299E+03  0.47000000000E+01 0. -1.
        -11    1    4    4    0    0 -0.11139623515E+02 -0.30254593968E+02 -0.50503836651E+01  0.32633388475E+02  0.00000000000E+00 0.  1.
         12    1    4    4    0    0 -0.23797652444E+02  0.42994774110E+02  0.38650154128E+02  0.62519703108E+02  0.00000000000E+00 0. -1.
         -5    1    5    5    0  502  0.12392706494E+03  0.13636642415E+02  0.41119046100E+03  0.42970171126E+03  0.47000000000E+01 0.  1.
         13    1    6    6    0    0  0.28158497592E+02 -0.23911729970E+02  0.11125655831E+03  0.11722923520E+03  0.00000000000E+00 0. -1.
        -14    1    6    6    0    0  0.11874737909E+02 -0.17136235925E+02 -0.65529027222E+01  0.21854073217E+02  0.00000000000E+00 0.  1.
<mgrwt>
<rscale>  2 0.24022084E+03</rscale>
<asrwt>0</asrwt>
<pdfrwt beam="1">  1       21 0.99254656E-01 0.24045503E+03</pdfrwt>
<pdfrwt beam="2">  1       21 0.25697456E-01 0.24045503E+03</pdfrwt>
<totfact> 0.11649590E+04</totfact>
</mgrwt>
</event>
<event>
12    1  0.1050690E-001  0.1922946E+03  0.7546771E-02  0.1156634E+00
         21   -1    0    0  501  502  0.00000000000E+00  0.00000000000E+00  0.52713325739E+02  0.52713325739E+02  0.00000000000E+00 0.  1.
         21   -1    0    0  502  503 -0.00000000000E+00 -0.00000000000E+00 -0.15980806643E+04  0.15980806643E+04  0.00000000000E+00 0.  1.
         -6    2    1    2    0  503  0.16571107574E+02  0.81312668405E+02 -0.13913131128E+04  0.14044001852E+04  0.17234079849E+03 0.  0.
        -24    2    3    3    0    0  0.55636808717E+02  0.18376956622E+01 -0.88832404698E+03  0.89365319247E+03  0.79984900794E+02 0.  0.
          6    2    1    2  501    0 -0.16571107574E+02 -0.81312668405E+02 -0.15405422577E+03  0.24639380480E+03  0.17346714651E+03 0.  0.
         24    2    5    5    0    0  0.25243889038E+02 -0.15371455702E+02 -0.14279580871E+02  0.86219590799E+02  0.79726882690E+02 0.  0.
          5    1    5    5  501    0 -0.41814996612E+02 -0.65941212703E+02 -0.13977464490E+03  0.16017421400E+03  0.47000000000E+01 0. -1.
        -13    1    6    6    0    0  0.24065594041E+01  0.31682759451E+02 -0.11676170148E+02  0.33851465610E+02  0.00000000000E+00 0.  1.
         14    1    6    6    0    0  0.22837329634E+02 -0.47054215152E+02 -0.26034107229E+01  0.52368125189E+02  0.00000000000E+00 0. -1.
         -5    1    3    3    0  503 -0.39065701143E+02  0.79474972742E+02 -0.50298906577E+03  0.51074699273E+03  0.47000000000E+01 0.  1.
         13    1    4    4    0    0  0.35014885956E+02 -0.14100527147E+02 -0.14376008430E+03  0.14863320270E+03  0.00000000000E+00 0. -1.
        -14    1    4    4    0    0  0.20621922761E+02  0.15938222809E+02 -0.74456396268E+03  0.74501998978E+03  0.00000000000E+00 0.  1.
<mgrwt>
<rscale>  2 0.19204021E+03</rscale>
<asrwt>0</asrwt>
<pdfrwt beam="1">  1       21 0.81097422E-02 0.19229457E+03</pdfrwt>
<pdfrwt beam="2">  1       21 0.24585857E+00 0.19229457E+03</pdfrwt>
<totfact> 0.82456771E+03</totfact>
</mgrwt>
</event>
<event>
12    1  0.1050690E-001  0.2863995E+03  0.7546771E-02  0.1092283E+00
         21   -1    0    0  501  502  0.00000000000E+00  0.00000000000E+00  0.62311480748E+02  0.62311480748E+02  0.00000000000E+00 0.  1.
         21   -1    0    0  502  503 -0.00000000000E+00 -0.00000000000E+00 -0.18286871081E+04  0.18286871081E+04  0.00000000000E+00 0.  1.
         -6    2    1    2    0  503 -0.11853570999E+03  0.19499621224E+03 -0.13839705988E+04  0.14132347819E+04  0.17257952668E+03 0.  0.
        -24    2    3    3    0    0 -0.95846842462E+02  0.14648074062E+03 -0.12995996273E+04  0.13131893596E+04  0.69741509615E+02 0.  0.
          6    2    1    2  501    0  0.11853570999E+03 -0.19499621224E+03 -0.38240502860E+03  0.47776380702E+03  0.17306187352E+03 0.  0.
         24    2    5    5    0    0  0.52334866229E+02 -0.38108297581E+02 -0.80419976553E+02  0.13104572104E+03  0.80712005350E+02 0.  0.
          5    1    5    5  501    0  0.66200843761E+02 -0.15688791466E+03 -0.30198505204E+03  0.34671808597E+03  0.47000000000E+01 0. -1.
        -13    1    6    6    0    0  0.39234818687E+02 -0.36716585640E+02 -0.96382109236E+02  0.11034939800E+03  0.00000000000E+00 0.  1.
         14    1    6    6    0    0  0.13100047543E+02 -0.13917119416E+01  0.15962132683E+02  0.20696323044E+02  0.00000000000E+00 0. -1.
         -5    1    3    3    0  503 -0.22688867529E+02  0.48515471626E+02 -0.84370971475E+02  0.10004542231E+03  0.47000000000E+01 0.  1.
         11    1    4    4    0    0 -0.99237886981E+01  0.67907062591E+02 -0.60751542561E+03  0.61137945916E+03  0.00000000000E+00 0. -1.
        -12    1    4    4    0    0 -0.85923053764E+02  0.78573678027E+02 -0.69208420172E+03  0.70180990041E+03  0.00000000000E+00 0.  1.
<mgrwt>
<rscale>  2 0.28632663E+03</rscale>
<asrwt>0</asrwt>
<pdfrwt beam="1">  1       21 0.95863820E-02 0.28639946E+03</pdfrwt>
<pdfrwt beam="2">  1       21 0.28133647E+00 0.28639946E+03</pdfrwt>
<totfact> 0.34976848E+03</totfact>
</mgrwt>
</event>
<event>
12    1  0.1050690E-001  0.2636208E+03  0.7546771E-02  0.1105019E+00
         21   -1    0    0  503  502  0.00000000000E+00  0.00000000000E+00  0.11468879067E+03  0.11468879067E+03  0.00000000000E+00 0.  1.
         21   -1    0    0  501  503 -0.00000000000E+00 -0.00000000000E+00 -0.77917524908E+03  0.77917524908E+03  0.00000000000E+00 0.  1.
          6    2    1    2  501    0 -0.16045570253E+03 -0.11747849299E+03 -0.54337595451E+03  0.60394812116E+03  0.17305685864E+03 0.  0.
         24    2    3    3    0    0 -0.15882184502E+03 -0.14187807892E+03 -0.41553173804E+03  0.47370126720E+03  0.79827924242E+02 0.  0.
         -6    2    1    2    0  502  0.16045570253E+03  0.11747849299E+03 -0.12111050389E+03  0.28991591858E+03  0.17273174839E+03 0.  0.
        -24    2    5    5    0    0  0.12008595370E+03  0.14896138295E+03 -0.75606783951E+02  0.22126049265E+03  0.81422907963E+02 0.  0.
          5    1    3    3  501    0 -0.16338575156E+01  0.24399585926E+02 -0.12784421647E+03  0.13024685397E+03  0.47000000000E+01 0. -1.
        -11    1    4    4    0    0 -0.10209283835E+03 -0.61535706075E+02 -0.15723276807E+03  0.19731126202E+03  0.00000000000E+00 0.  1.
         12    1    4    4    0    0 -0.56729006663E+02 -0.80342372843E+02 -0.25829896997E+03  0.27639000517E+03  0.00000000000E+00 0. -1.
         -5    1    5    5    0  502  0.40369748839E+02 -0.31482889963E+02 -0.45503719940E+02  0.68655425933E+02  0.47000000000E+01 0.  1.
         11    1    6    6    0    0  0.53063429498E+02  0.35647531197E+02 -0.61754558282E+02  0.88882503898E+02  0.00000000000E+00 0. -1.
        -12    1    6    6    0    0  0.67022524197E+02  0.11331385176E+03 -0.13852225670E+02  0.13237798875E+03  0.00000000000E+00 0.  1.
<mgrwt>
<rscale>  2 0.26356742E+03</rscale>
<asrwt>0</asrwt>
<pdfrwt beam="1">  1       21 0.17644429E-01 0.26362076E+03</pdfrwt>
<pdfrwt beam="2">  1       21 0.11987312E+00 0.26362076E+03</pdfrwt>
<totfact> 0.14787824E+04</totfact>
</mgrwt>
</event>
<event>
12    1  0.1050690E-001  0.1842419E+03  0.7546771E-02  0.1165532E+00
         21   -1    0    0  501  502  0.00000000000E+00  0.00000000000E+00  0.31371894872E+03  0.31371894872E+03  0.00000000000E+00 0. -1.
         21   -1    0    0  502  503 -0.00000000000E+00 -0.00000000000E+00 -0.14992542557E+03  0.14992542557E+03  0.00000000000E+00 0. -1.
         -6    2    1    2    0  503 -0.13647645649E+02  0.36094664765E+02 -0.47679884399E+02  0.18316963370E+03  0.17259391727E+03 0.  0.
        -24    2    3    3    0    0 -0.57662970579E+02  0.34511510430E+02 -0.78153309599E+02  0.12940556717E+03  0.78241922815E+02 0.  0.
          6    2    1    2  501    0  0.13647645649E+02 -0.36094664765E+02  0.21147340755E+03  0.28047474058E+03  0.18015547438E+03 0.  0.
         24    2    5    5    0    0  0.25174806383E+02 -0.81562555757E+02  0.83281759131E+02  0.14388999301E+03  0.80512466775E+02 0.  0.
          5    1    5    5  501    0 -0.11527160734E+02  0.45467890992E+02  0.12819164842E+03  0.13658474757E+03  0.47000000000E+01 0. -1.
        -11    1    6    6    0    0  0.34336508179E+02 -0.77852656431E+02  0.30808931548E+02  0.90494321206E+02  0.00000000000E+00 0.  1.
         12    1    6    6    0    0 -0.91617017963E+01 -0.37098993260E+01  0.52472827583E+02  0.53395671804E+02  0.00000000000E+00 0. -1.
         -5    1    3    3    0  503  0.44015324930E+02  0.15831543355E+01  0.30473425200E+02  0.53764066529E+02  0.47000000000E+01 0.  1.
         13    1    4    4    0    0 -0.21021244260E+02 -0.20350325506E+02 -0.49453747746E+02  0.57460435298E+02  0.00000000000E+00 0. -1.
        -14    1    4    4    0    0 -0.36641726319E+02  0.54861835936E+02 -0.28699561853E+02  0.71945131874E+02  0.00000000000E+00 0.  1.
<mgrwt>
<rscale>  2 0.18236678E+03</rscale>
<asrwt>0</asrwt>
<pdfrwt beam="1">  1       21 0.48264454E-01 0.18424190E+03</pdfrwt>
<pdfrwt beam="2">  1       21 0.23065450E-01 0.18424190E+03</pdfrwt>
<totfact> 0.72649834E+04</totfact>
</mgrwt>
</event>
<event>
12    1  0.1050690E-001  0.1787531E+03  0.7546771E-02  0.1169545E+00
         21   -1    0    0  503  502  0.00000000000E+00  0.00000000000E+00  0.40574932133E+03  0.40574932133E+03  0.00000000000E+00 0. -1.
         21   -1    0    0  501  503 -0.00000000000E+00 -0.00000000000E+00 -0.78586179314E+02  0.78586179314E+02  0.00000000000E+00 0. -1.
          6    2    1    2  501    0  0.22654155823E+02 -0.43808771555E+01  0.18677272757E+03  0.25704240281E+03  0.17508381484E+03 0.  0.
         24    2    3    3    0    0  0.17999708725E+02  0.20332289629E+02  0.19389135511E+02  0.87715023512E+02  0.81120868203E+02 0.  0.
         -6    2    1    2    0  502 -0.22654155823E+02  0.43808771555E+01  0.14039041445E+03  0.22729309784E+03  0.17725766837E+03 0.  0.
        -24    2    5    5    0    0  0.44763337843E+01  0.53972252501E+02  0.14048383242E+03  0.17057038015E+03  0.80159252802E+02 0.  0.
          5    1    3    3  501    0  0.46544470978E+01 -0.24713166785E+02  0.16738359206E+03  0.16932737930E+03  0.47000000000E+01 0. -1.
        -13    1    4    4    0    0  0.40887182841E+02 -0.14908539355E+02  0.94424473652E+01  0.44532977428E+02  0.00000000000E+00 0.  1.
         14    1    4    4    0    0 -0.22887474116E+02  0.35240828984E+02  0.99466881455E+01  0.43182046084E+02  0.00000000000E+00 0. -1.
         -5    1    5    5    0  502 -0.27130489607E+02 -0.49591375346E+02 -0.93417964992E-01  0.56722717688E+02  0.47000000000E+01 0.  1.
         13    1    6    6    0    0  0.42115702043E+02  0.25561958771E+02  0.64885730733E+02  0.81469651696E+02  0.00000000000E+00 0. -1.
        -14    1    6    6    0    0 -0.37639368259E+02  0.28410293731E+02  0.75598101686E+02  0.89100728456E+02  0.00000000000E+00 0.  1.
<mgrwt>
<rscale>  2 0.17821182E+03</rscale>
<asrwt>0</asrwt>
<pdfrwt beam="1">  1       21 0.62422971E-01 0.17875314E+03</pdfrwt>
<pdfrwt beam="2">  1       21 0.12090182E-01 0.17875314E+03</pdfrwt>
<totfact> 0.13842493E+05</totfact>
</mgrwt>
</event>
<event>
12    1  0.1050690E-001  0.2287875E+03  0.7546771E-02  0.1127639E+00
         21   -1    0    0  501  502  0.00000000000E+00  0.00000000000E+00  0.47974418299E+03  0.47974418299E+03  0.00000000000E+00 0. -1.
         21   -1    0    0  502  503 -0.00000000000E+00 -0.00000000000E+00 -0.11196135375E+03  0.11196135375E+03  0.00000000000E+00 0.  1.
         -6    2    1    2    0  503 -0.39848783794E+02 -0.14439788930E+03  0.23451965220E+03  0.32763268600E+03  0.17293071926E+03 0.  0.
        -24    2    3    3    0    0 -0.47938687957E+02 -0.69318240960E+02  0.22252955069E+03  0.25102816473E+03  0.79953750534E+02 0.  0.
          6    2    1    2  501    0  0.39848783794E+02  0.14439788930E+03  0.13326317704E+03  0.26407285074E+03  0.17186250359E+03 0.  0.
         24    2    5    5    0    0 -0.22565173091E+02  0.13268182070E+03  0.62792573214E+02  0.16909409374E+03  0.80847094614E+02 0.  0.
          5    1    5    5  501    0  0.62413956885E+02  0.11716068599E+02  0.70470603825E+02  0.94978756998E+02  0.47000000000E+01 0. -1.
        -11    1    6    6    0    0 -0.44139333769E+02  0.76332633904E+02  0.63652199349E+02  0.10874996214E+03  0.00000000000E+00 0.  1.
         12    1    6    6    0    0  0.21574160678E+02  0.56349186795E+02 -0.85962613488E+00  0.60344131600E+02  0.00000000000E+00 0. -1.
         -5    1    3    3    0  503  0.80899041632E+01 -0.75079648338E+02  0.11990101503E+02  0.76604521264E+02  0.47000000000E+01 0.  1.
         13    1    4    4    0    0 -0.20400106082E+02  0.14293768861E+02  0.27811476016E+02  0.37335698127E+02  0.00000000000E+00 0. -1.
        -14    1    4    4    0    0 -0.27538581875E+02 -0.83612009821E+02  0.19471807468E+03  0.21369246661E+03  0.00000000000E+00 0.  1.
<mgrwt>
<rscale>  2 0.22858562E+03</rscale>
<asrwt>0</asrwt>
<pdfrwt beam="1">  1       21 0.73806796E-01 0.22878748E+03</pdfrwt>
<pdfrwt beam="2">  1       21 0.17224824E-01 0.22878748E+03</pdfrwt>
<totfact> 0.49323724E+04</totfact>
</mgrwt>
</event>
<event>
12    1  0.1050690E-001  0.2398912E+03  0.7546771E-02  0.1119967E+00
         21   -1    0    0  503  502  0.00000000000E+00  0.00000000000E+00  0.50232590314E+03  0.50232590314E+03  0.00000000000E+00 0. -1.
         21   -1    0    0  501  503 -0.00000000000E+00 -0.00000000000E+00 -0.57208911650E+03  0.57208911650E+03  0.00000000000E+00 0. -1.
          6    2    1    2  501    0 -0.13231333118E+03  0.99944041961E+02 -0.51544204746E+03  0.56827529017E+03  0.17251281689E+03 0.  0.
         24    2    3    3    0    0 -0.34184136288E+02 -0.11061254923E+02 -0.15781998721E+03  0.18114851145E+03  0.81343274468E+02 0.  0.
         -6    2    1    2    0  502  0.13231333118E+03 -0.99944041961E+02  0.44567883411E+03  0.50613972947E+03  0.17335562710E+03 0.  0.
        -24    2    5    5    0    0  0.75422690450E+02  0.13421483116E+02  0.25737296820E+03  0.27905059188E+03  0.75892487264E+02 0.  0.
          5    1    3    3  501    0 -0.98129194889E+02  0.11100529688E+03 -0.35762206025E+03  0.38712677872E+03  0.47000000000E+01 0. -1.
        -13    1    4    4    0    0 -0.45499841413E+02 -0.38228762904E+02 -0.10219772943E+03  0.11822034420E+03  0.00000000000E+00 0.  1.
         14    1    4    4    0    0  0.11315705124E+02  0.27167507981E+02 -0.55622257782E+02  0.62928167247E+02  0.00000000000E+00 0. -1.
         -5    1    5    5    0  502  0.56890640728E+02 -0.11336552508E+03  0.18830586590E+03  0.22708913759E+03  0.47000000000E+01 0.  1.
         13    1    6    6    0    0  0.50722937008E+02  0.21388192136E+02  0.66078776582E+02  0.86003929074E+02  0.00000000000E+00 0. -1.
        -14    1    6    6    0    0  0.24699753442E+02 -0.79667090201E+01  0.19129419162E+03  0.19304666281E+03  0.00000000000E+00 0.  1.
<mgrwt>
<rscale>  2 0.23973900E+03</rscale>
<asrwt>0</asrwt>
<pdfrwt beam="1">  1       21 0.77280908E-01 0.23989123E+03</pdfrwt>
<pdfrwt beam="2">  1       21 0.88013710E-01 0.23989123E+03</pdfrwt>
<totfact> 0.15790580E+03</totfact>
</mgrwt>
</event>
<event>
12    1  0.1050690E-001  0.3332495E+03  0.7546771E-02  0.1069760E+00
         21   -1    0    0  503  502  0.00000000000E+00  0.00000000000E+00  0.95185524094E+02  0.95185524094E+02  0.00000000000E+00 0. -1.
         21   -1    0    0  501  503 -0.00000000000E+00 -0.00000000000E+00 -0.12050367874E+04  0.12050367874E+04  0.00000000000E+00 0. -1.
          6    2    1    2  501    0 -0.27204501910E+03  0.81629772035E+02 -0.67295768381E+03  0.75073964536E+03  0.17339567126E+03 0.  0.
         24    2    3    3    0    0 -0.59910334862E+02  0.60187791510E+02 -0.27515399580E+03  0.29937422025E+03  0.81874195429E+02 0.  0.
         -6    2    1    2    0  502  0.27204501910E+03 -0.81629772035E+02 -0.43689357952E+03  0.54948266616E+03  0.17430802761E+03 0.  0.
        -24    2    5    5    0    0  0.18583030939E+03 -0.38967677373E+02 -0.17649368357E+03  0.27184400476E+03  0.81839836375E+02 0.  0.
          5    1    3    3  501    0 -0.21213468424E+03  0.21441980525E+02 -0.39780368801E+03  0.45136542511E+03  0.47000000000E+01 0. -1.
        -11    1    4    4    0    0 -0.44897503472E+02  0.31248155916E+02 -0.25553519337E+03  0.26132444990E+03  0.00000000000E+00 0.  1.
         12    1    4    4    0    0 -0.15012831391E+02  0.28939635594E+02 -0.19618802423E+02  0.38049770344E+02  0.00000000000E+00 0. -1.
         -5    1    5    5    0  502  0.86214709706E+02 -0.42662094662E+02 -0.26039989596E+03  0.27763866140E+03  0.47000000000E+01 0.  1.
         11    1    6    6    0    0  0.93457259551E+02  0.21999873542E+02 -0.85465805689E+02  0.12854049067E+03  0.00000000000E+00 0. -1.
        -12    1    6    6    0    0  0.92373049841E+02 -0.60967550915E+02 -0.91027877876E+02  0.14330351410E+03  0.00000000000E+00 0.  1.
<mgrwt>
<rscale>  2 0.33313032E+03</rscale>
<asrwt>0</asrwt>
<pdfrwt beam="1">  1       21 0.14643927E-01 0.33324946E+03</pdfrwt>
<pdfrwt beam="2">  1       21 0.18539028E+00 0.33324946E+03</pdfrwt>
<totfact> 0.62470151E+03</totfact>
</mgrwt>
</event>
<event>
12    1  0.1050690E-001  0.1740657E+03  0.7546771E-02  0.1173921E+00
         21   -1    0    0  501  502  0.00000000000E+00  0.00000000000E+00  0.38580205221E+03  0.38580205221E+03  0.00000000000E+00 0. -1.
         21   -1    0    0  502  503 -0.00000000000E+00 -0.00000000000E+00 -0.80100459696E+02  0.80100459696E+02  0.00000000000E+00 0. -1.
         -6    2    1    2    0  503  0.16813504011E+01 -0.24247025204E+02  0.11640711882E+03  0.20940272402E+03  0.17236048951E+03 0.  0.
        -24    2    3    3    0    0 -0.89574864944E+01  0.53874456850E+02  0.57468438511E+02  0.11085319918E+03  0.77479782391E+02 0.  0.
          6    2    1    2  501    0 -0.16813504011E+01  0.24247025204E+02  0.18929447370E+03  0.25649978788E+03  0.17137385519E+03 0.  0.
         24    2    5    5    0    0 -0.45108253172E+02 -0.86730354952E+01  0.52140445452E+02  0.10884158884E+03  0.83772843817E+02 0.  0.
          5    1    5    5  501    0  0.43426902770E+02  0.32920060699E+02  0.13715402824E+03  0.14765819904E+03  0.47000000000E+01 0. -1.
        -13    1    6    6    0    0 -0.99341583956E+01  0.54773393583E+01 -0.22458493448E+02  0.25160935543E+02  0.00000000000E+00 0.  1.
         14    1    6    6    0    0 -0.35174094776E+02 -0.14150374854E+02  0.74598938900E+02  0.83680653300E+02  0.00000000000E+00 0. -1.
         -5    1    3    3    0  503  0.10638836895E+02 -0.78121482054E+02  0.58938680307E+02  0.98549524835E+02  0.47000000000E+01 0.  1.
         11    1    4    4    0    0 -0.42252499513E+01  0.10617158473E+02 -0.19404076477E+02  0.22518769396E+02  0.00000000000E+00 0. -1.
        -12    1    4    4    0    0 -0.47322365430E+01  0.43257298378E+02  0.76872514987E+02  0.88334429789E+02  0.00000000000E+00 0.  1.
<mgrwt>
<rscale>  2 0.17382100E+03</rscale>
<asrwt>0</asrwt>
<pdfrwt beam="1">  1       21 0.59354161E-01 0.17406574E+03</pdfrwt>
<pdfrwt beam="2">  1       21 0.12323148E-01 0.17406574E+03</pdfrwt>
<totfact> 0.14932055E+05</totfact>
</mgrwt>
</event>
<event>
12    1  0.1050690E-001  0.1864685E+03  0.7546771E-02  0.1163885E+00
         21   -1    0    0  501  502  0.00000000000E+00  0.00000000000E+00  0.46837322292E+03  0.46837322292E+03  0.00000000000E+00 0. -1.
         21   -1    0    0  502  503 -0.00000000000E+00 -0.00000000000E+00 -0.73104766064E+02  0.73104766064E+02  0.00000000000E+00 0. -1.
         -6    2    1    2    0  503 -0.70684958001E+00 -0.72783124016E+02  0.15234266626E+03  0.24078787454E+03  0.17167594410E+03 0.  0.
        -24    2    3    3    0    0  0.28171648933E+02 -0.73938453771E+02  0.17189034749E+03  0.20558127992E+03  0.80354429536E+02 0.  0.
          6    2    1    2  501    0  0.70684958001E+00  0.72783124016E+02  0.24292579059E+03  0.30069011444E+03  0.16156646438E+03 0.  0.
         24    2    5    5    0    0  0.25699727966E+02 -0.63183524680E+01  0.10520150445E+03  0.13984311713E+03  0.88251590773E+02 0.  0.
          5    1    5    5  501    0 -0.24992878386E+02  0.79101476484E+02  0.13772428614E+03  0.16084699731E+03  0.47000000000E+01 0. -1.
        -13    1    6    6    0    0  0.35293751542E+02 -0.41876471295E+02  0.70188056300E+02  0.89026125341E+02  0.00000000000E+00 0.  1.
         14    1    6    6    0    0 -0.95940235759E+01  0.35558118827E+02  0.35013448153E+02  0.50816991789E+02  0.00000000000E+00 0. -1.
         -5    1    3    3    0  503 -0.28878498513E+02  0.11553297552E+01 -0.19547681225E+02  0.35206594617E+02  0.47000000000E+01 0.  1.
         13    1    4    4    0    0 -0.17455852458E+01 -0.88906483567E+01  0.11163656799E+03  0.11200363391E+03  0.00000000000E+00 0. -1.
        -14    1    4    4    0    0  0.29917234179E+02 -0.65047805414E+02  0.60253779498E+02  0.93577646016E+02  0.00000000000E+00 0.  1.
<mgrwt>
<rscale>  2 0.18410820E+03</rscale>
<asrwt>0</asrwt>
<pdfrwt beam="1">  1       21 0.72057417E-01 0.18646853E+03</pdfrwt>
<pdfrwt beam="2">  1       21 0.11246887E-01 0.18646853E+03</pdfrwt>
<totfact> 0.11475887E+05</totfact>
</mgrwt>
</event>
<event>
12    1  0.1050690E-001  0.1754049E+03  0.7546771E-02  0.1172864E+00
         21   -1    0    0  501  502  0.00000000000E+00  0.00000000000E+00  0.68383596990E+02  0.68383596990E+02  0.00000000000E+00 0. -1.
         21   -1    0    0  502  503 -0.00000000000E+00 -0.00000000000E+00 -0.44701630305E+03  0.44701630305E+03  0.00000000000E+00 0. -1.
         -6    2    1    2    0  503  0.38727461979E+00  0.17412447031E+02 -0.20999615191E+03  0.27361516599E+03  0.17453805302E+03 0.  0.
        -24    2    3    3    0    0  0.16460973802E+02  0.49502399718E+02 -0.45777961137E+02  0.10545502491E+03  0.79395776444E+02 0.  0.
          6    2    1    2  501    0 -0.38727461979E+00 -0.17412447031E+02 -0.16863655416E+03  0.24178473405E+03  0.17238975297E+03 0.  0.
         24    2    5    5    0    0  0.43036298782E+00 -0.26832912404E+02 -0.12109685798E+02  0.84902089319E+02  0.79633723260E+02 0.  0.
          5    1    5    5  501    0 -0.81763760760E+00  0.94204653729E+01 -0.15652686836E+03  0.15688264473E+03  0.47000000000E+01 0. -1.
        -11    1    6    6    0    0 -0.23676547086E+02  0.18592408640E+02  0.53852253795E+01  0.30581974975E+02  0.00000000000E+00 0.  1.
         12    1    6    6    0    0  0.24106910074E+02 -0.45425321044E+02 -0.17494911177E+02  0.54320114344E+02  0.00000000000E+00 0. -1.
         -5    1    3    3    0  503 -0.16073699182E+02 -0.32089952687E+02 -0.16421819077E+03  0.16816014108E+03  0.47000000000E+01 0.  1.
         11    1    4    4    0    0  0.21768265396E+02  0.35533984548E+02  0.13904703595E+02  0.43930197112E+02  0.00000000000E+00 0. -1.
        -12    1    4    4    0    0 -0.53072915938E+01  0.13968415169E+02 -0.59682664732E+02  0.61524827801E+02  0.00000000000E+00 0.  1.
<mgrwt>
<rscale>  2 0.17486804E+03</rscale>
<asrwt>0</asrwt>
<pdfrwt beam="1">  1       21 0.10520554E-01 0.17540489E+03</pdfrwt>
<pdfrwt beam="2">  1       21 0.68771736E-01 0.17540489E+03</pdfrwt>
<totfact> 0.14375167E+05</totfact>
</mgrwt>
</event>
<event>
12    1  0.1050690E-001  0.1810782E+03  0.7546771E-02  0.1169165E+00
         21   -1    0    0  503  502  0.00000000000E+00  0.00000000000E+00  0.20814806955E+03  0.20814806955E+03  0.00000000000E+00 0. -1.
         21   -1    0    0  501  503 -0.00000000000E+00 -0.00000000000E+00 -0.30475044230E+03  0.30475044230E+03  0.00000000000E+00 0. -1.
          6    2    1    2  501    0 -0.37488500936E+02  0.37743422758E+02 -0.23213960555E+03  0.29441145711E+03  0.17308771173E+03 0.  0.
         24    2    3    3    0    0 -0.58763476495E+02 -0.19677068877E+02 -0.20129248849E+03  0.22568466412E+03  0.81083712823E+02 0.  0.
         -6    2    1    2    0  502  0.37488500936E+02 -0.37743422758E+02  0.13553723280E+03  0.21848705474E+03  0.16289965608E+03 0.  0.
        -24    2    5    5    0    0  0.64872637966E+02 -0.70078756775E+02  0.76053637357E+02  0.14530336180E+03  0.78799872374E+02 0.  0.
          5    1    3    3  501    0  0.21274975559E+02  0.57420491635E+02 -0.30847117056E+02  0.68726792994E+02  0.47000000000E+01 0. -1.
        -13    1    4    4    0    0 -0.55064087715E+02  0.13118189592E+02 -0.68546138454E+02  0.88897208904E+02  0.00000000000E+00 0.  1.
         14    1    4    4    0    0 -0.36993887804E+01 -0.32795258469E+02 -0.13274635004E+03  0.13678745521E+03  0.00000000000E+00 0. -1.
         -5    1    5    5    0  502 -0.27384137030E+02  0.32335334017E+02  0.59483595443E+02  0.73183692949E+02  0.47000000000E+01 0.  1.
         11    1    6    6    0    0  0.23124603473E+02 -0.51621058524E+02 -0.45601170671E-01  0.56563973060E+02  0.00000000000E+00 0. -1.
        -12    1    6    6    0    0  0.41748034493E+02 -0.18457698251E+02  0.76099238527E+02  0.88739388736E+02  0.00000000000E+00 0.  1.
<mgrwt>
<rscale>  2 0.17859968E+03</rscale>
<asrwt>0</asrwt>
<pdfrwt beam="1">  1       21 0.32022780E-01 0.18107819E+03</pdfrwt>
<pdfrwt beam="2">  1       21 0.46884684E-01 0.18107819E+03</pdfrwt>
<totfact> 0.41078508E+04</totfact>
</mgrwt>
</event>
<event>
12    1  0.1050690E-001  0.2082246E+03  0.7546771E-02  0.1143057E+00
         21   -1    0    0  501  502  0.00000000000E+00  0.00000000000E+00  0.36518383993E+03  0.36518383993E+03  0.00000000000E+00 0.  1.
         21   -1    0    0  502  503 -0.00000000000E+00 -0.00000000000E+00 -0.22930697477E+03  0.22930697477E+03  0.00000000000E+00 0.  1.
         -6    2    1    2    0  503 -0.11557435319E+03 -0.12545236496E+02 -0.13871653814E+03  0.24987650080E+03  0.17228224988E+03 0.  0.
        -24    2    3    3    0    0 -0.50416086155E+02 -0.49159238796E+02 -0.13809760441E+03  0.17498552667E+03  0.81182348442E+02 0.  0.
          6    2    1    2  501    0  0.11557435319E+03  0.12545236496E+02  0.27459340330E+03  0.34461431390E+03  0.17275032311E+03 0.  0.
         24    2    5    5    0    0  0.31599360230E+02 -0.45437852939E+02  0.86417575585E+02  0.13049735932E+03  0.80612935518E+02 0.  0.
          5    1    5    5  501    0  0.83974992958E+02  0.57983089435E+02  0.18817582771E+03  0.21411695458E+03  0.47000000000E+01 0. -1.
        -13    1    6    6    0    0  0.22511288150E+02 -0.43173063989E+02  0.10159666899E+03  0.11266123867E+03  0.00000000000E+00 0.  1.
         14    1    6    6    0    0  0.90880720795E+01 -0.22647889497E+01 -0.15179093408E+02  0.17836120649E+02  0.00000000000E+00 0. -1.
         -5    1    3    3    0  503 -0.65158267033E+02  0.36614002300E+02 -0.61893373206E+00  0.74890974129E+02  0.47000000000E+01 0.  1.
         11    1    4    4    0    0 -0.64583163063E+02 -0.37122239949E+02 -0.62813603360E+02  0.97440209447E+02  0.00000000000E+00 0. -1.
        -12    1    4    4    0    0  0.14167076907E+02 -0.12036998847E+02 -0.75284001052E+02  0.77545317227E+02  0.00000000000E+00 0.  1.
<mgrwt>
<rscale>  2 0.20812750E+03</rscale>
<asrwt>0</asrwt>
<pdfrwt beam="1">  1       21 0.56182129E-01 0.20822461E+03</pdfrwt>
<pdfrwt beam="2">  1       21 0.35277996E-01 0.20822461E+03</pdfrwt>
<totfact> 0.22890772E+04</totfact>
</mgrwt>
</event>
<event>
12    1  0.1050690E-001  0.1879410E+03  0.7546771E-02  0.1163554E+00
         21   -1    0    0  501  502  0.00000000000E+00  0.00000000000E+00  0.87696473511E+02  0.87696473511E+02  0.00000000000E+00 0.  1.
         21   -1    0    0  502  503 -0.00000000000E+00 -0.00000000000E+00 -0.37489836932E+03  0.37489836932E+03  0.00000000000E+00 0.  1.
         -6    2    1    2    0  503 -0.90368974312E+00 -0.54482886930E+02 -0.15830539261E+03  0.24572833765E+03  0.17986833233E+03 0.  0.
        -24    2    3    3    0    0 -0.73525015075E+02 -0.49613201658E+02 -0.89455823552E+02  0.14542916574E+03  0.72662922178E+02 0.  0.
          6    2    1    2  501    0  0.90368974312E+00  0.54482886930E+02 -0.12889650320E+03  0.21686650518E+03  0.16567308444E+03 0.  0.
         24    2    5    5    0    0  0.27659690304E+02 -0.14426060678E+02 -0.26524018391E+02  0.90507721262E+02  0.80715267217E+02 0.  0.
          5    1    5    5  501    0 -0.26756000561E+02  0.68908947607E+02 -0.10237248481E+03  0.12635878392E+03  0.47000000000E+01 0. -1.
        -11    1    6    6    0    0 -0.18753558305E+02  0.13711618145E+02 -0.27784002888E+02  0.36216781162E+02  0.00000000000E+00 0.  1.
         12    1    6    6    0    0  0.46413248609E+02 -0.28137678823E+02  0.12599844969E+01  0.54290940100E+02  0.00000000000E+00 0. -1.
         -5    1    3    3    0  503  0.72621325332E+02 -0.48696852713E+01 -0.68849569056E+02  0.10029917191E+03  0.47000000000E+01 0.  1.
         13    1    4    4    0    0 -0.20444122421E+02  0.57770323486E+01 -0.59311278541E+02  0.63001301626E+02  0.00000000000E+00 0. -1.
        -14    1    4    4    0    0 -0.53080892654E+02 -0.55390234007E+02 -0.30144545010E+02  0.82427864113E+02  0.00000000000E+00 0.  1.
<mgrwt>
<rscale>  2 0.18446131E+03</rscale>
<asrwt>0</asrwt>
<pdfrwt beam="1">  1       21 0.13491765E-01 0.18794100E+03</pdfrwt>
<pdfrwt beam="2">  1       21 0.57676671E-01 0.18794100E+03</pdfrwt>
<totfact> 0.13426565E+05</totfact>
</mgrwt>
</event>
<event>
12    1  0.1050690E-001  0.1772613E+03  0.7546771E-02  0.1171103E+00
         21   -1    0    0  503  502  0.00000000000E+00  0.00000000000E+00  0.73316708779E+02  0.73316708779E+02  0.00000000000E+00 0. -1.
         21   -1    0    0  501  503 -0.00000000000E+00 -0.00000000000E+00 -0.46608204944E+03  0.46608204944E+03  0.00000000000E+00 0.  1.
          6    2    1    2  501    0  0.16505925614E+02 -0.30605047509E+02 -0.11521868397E+03  0.21141641967E+03  0.17381726858E+03 0.  0.
         24    2    3    3    0    0 -0.40568933135E+02  0.19373780338E+02 -0.26865891297E+02  0.94867165243E+02  0.79100070959E+02 0.  0.
         -6    2    1    2    0  502 -0.16505925614E+02  0.30605047509E+02 -0.27754665669E+03  0.32798233855E+03  0.17126340312E+03 0.  0.
        -24    2    5    5    0    0  0.16887080860E+02  0.28207296434E+02 -0.52309483402E+02  0.10022212183E+03  0.78913665340E+02 0.  0.
          5    1    3    3  501    0  0.57074858748E+02 -0.49978827847E+02 -0.88352792676E+02  0.11654925443E+03  0.47000000000E+01 0. -1.
        -13    1    4    4    0    0 -0.44948773500E+02  0.26606394517E+02 -0.48724069187E+02  0.71430577391E+02  0.00000000000E+00 0.  1.
         14    1    4    4    0    0  0.43798403654E+01 -0.72326141792E+01  0.21858177889E+02  0.23436587852E+02  0.00000000000E+00 0. -1.
         -5    1    5    5    0  502 -0.33393006474E+02  0.23977510746E+01 -0.22523717329E+03  0.22776021672E+03  0.47000000000E+01 0.  1.
         13    1    6    6    0    0  0.25596790329E-01  0.25216293497E+01  0.20782356865E+02  0.20934794640E+02  0.00000000000E+00 0. -1.
        -14    1    6    6    0    0  0.16861484070E+02  0.25685667085E+02 -0.73091840267E+02  0.79287327186E+02  0.00000000000E+00 0.  1.
<mgrwt>
<rscale>  2 0.17663204E+03</rscale>
<asrwt>0</asrwt>
<pdfrwt beam="1">  1       21 0.11279494E-01 0.17726127E+03</pdfrwt>
<pdfrwt beam="2">  1       21 0.71704928E-01 0.17726127E+03</pdfrwt>
<totfact> 0.11581273E+05</totfact>
</mgrwt>
</event>
<event>
12    1  0.1050690E-001  0.1893355E+03  0.7546771E-02  0.1159399E+00
         21   -1    0    0  501  502  0.00000000000E+00  0.00000000000E+00  0.70622599547E+03  0.70622599547E+03  0.00000000000E+00 0. -1.
         21   -1    0    0  502  503 -0.00000000000E+00 -0.00000000000E+00 -0.78368456836E+02  0.78368456836E+02  0.00000000000E+00 0. -1.
         -6    2    1    2    0  503 -0.73629599476E+02 -0.11655320186E+02  0.78627810741E+02  0.20364590751E+03  0.17243015577E+03 0.  0.
        -24    2    3    3    0    0 -0.89044058076E+02 -0.71067171750E+01 -0.23477981054E+00  0.12302523081E+03  0.84591977087E+02 0.  0.
          6    2    1    2  501    0  0.73629599476E+02  0.11655320186E+02  0.54922972789E+03  0.58094854479E+03  0.17404238934E+03 0.  0.
         24    2    5    5    0    0  0.53968501104E+02 -0.31686109643E+02  0.50717668153E+03  0.51726505370E+03  0.80114548238E+02 0.  0.
          5    1    5    5  501    0  0.19661098372E+02  0.43341429829E+02  0.42053046366E+02  0.63683491091E+02  0.47000000000E+01 0. -1.
        -11    1    6    6    0    0 -0.16279813104E+02 -0.17685277227E+02  0.21918192438E+03  0.22049607098E+03  0.00000000000E+00 0.  1.
         12    1    6    6    0    0  0.70248314208E+02 -0.14000832416E+02  0.28799475715E+03  0.29676898272E+03  0.00000000000E+00 0. -1.
         -5    1    3    3    0  503  0.15414458601E+02 -0.45486030111E+01  0.78862590551E+02  0.80620676701E+02  0.47000000000E+01 0.  1.
         11    1    4    4    0    0 -0.28061120920E+02 -0.16061568263E+02  0.38462915957E+02  0.50247352032E+02  0.00000000000E+00 0. -1.
        -12    1    4    4    0    0 -0.60982937156E+02  0.89548510875E+01 -0.38697695768E+02  0.72777878781E+02  0.00000000000E+00 0.  1.
<mgrwt>
<rscale>  2 0.18896414E+03</rscale>
<asrwt>0</asrwt>
<pdfrwt beam="1">  1       21 0.10865015E+00 0.18933546E+03</pdfrwt>
<pdfrwt beam="2">  1       21 0.12056686E-01 0.18933546E+03</pdfrwt>
<totfact> 0.39225292E+04</totfact>
</mgrwt>
</event>
<event>
12    1  0.1050690E-001  0.1965871E+03  0.7546771E-02  0.1152655E+00
         21   -1    0    0  503  502  0.00000000000E+00  0.00000000000E+00  0.66338470853E+03  0.66338470853E+03  0.00000000000E+00 0.  1.
         21   -1    0    0  501  503 -0.00000000000E+00 -0.00000000000E+00 -0.62540559686E+02  0.62540559686E+02  0.00000000000E+00 0. -1.
          6    2    1    2  501    0  0.78810172915E+02 -0.49170521612E+02  0.20534830397E+03  0.28426537054E+03  0.17323420965E+03 0.  0.
         24    2    3    3    0    0  0.59222872369E+02 -0.68113993600E+02  0.58408726270E+02  0.13474665275E+03  0.81229405930E+02 0.  0.
         -6    2    1    2    0  502 -0.78810172915E+02  0.49170521612E+02  0.39549584488E+03  0.44165989768E+03  0.17325622169E+03 0.  0.
        -24    2    5    5    0    0  0.68402227821E+00 -0.28183280678E+02  0.16926271866E+03  0.18965502631E+03  0.80773732605E+02 0.  0.
          5    1    3    3  501    0  0.19587300545E+02  0.18943471988E+02  0.14693957770E+03  0.14951871778E+03  0.47000000000E+01 0. -1.
        -13    1    4    4    0    0  0.36540940122E+02 -0.48401850007E+02  0.78053239315E+02  0.98844764944E+02  0.00000000000E+00 0.  1.
         14    1    4    4    0    0  0.22681932248E+02 -0.19712143593E+02 -0.19644513045E+02  0.35901887810E+02  0.00000000000E+00 0. -1.
         -5    1    5    5    0  502 -0.79494195193E+02  0.77353802290E+02  0.22623312621E+03  0.25200487137E+03  0.47000000000E+01 0.  1.
         13    1    6    6    0    0 -0.13523595592E+02 -0.73395678736E+01 -0.28968541135E+01  0.15657223830E+02  0.00000000000E+00 0. -1.
        -14    1    6    6    0    0  0.14207617870E+02 -0.20843712804E+02  0.17215957278E+03  0.17399780248E+03  0.00000000000E+00 0.  1.
<mgrwt>
<rscale>  2 0.19658229E+03</rscale>
<asrwt>0</asrwt>
<pdfrwt beam="1">  1       21 0.10205918E+00 0.19658714E+03</pdfrwt>
<pdfrwt beam="2">  1       21 0.96216250E-02 0.19658714E+03</pdfrwt>
<totfact> 0.67801181E+04</totfact>
</mgrwt>
</event>
<event>
12    1  0.1050690E-001  0.1897879E+03  0.7546771E-02  0.1158897E+00
         21   -1    0    0  503  502  0.00000000000E+00  0.00000000000E+00  0.38030905037E+02  0.38030905037E+02  0.00000000000E+00 0.  1.
         21   -1    0    0  501  503 -0.00000000000E+00 -0.00000000000E+00 -0.10117611958E+04  0.10117611958E+04  0.00000000000E+00 0. -1.
          6    2    1    2  501    0  0.38681409134E+02  0.67438738615E+02 -0.62625360785E+03  0.65437989507E+03  0.17313356360E+03 0.  0.
         24    2    3    3    0    0 -0.17255941675E+02  0.91999235991E+02 -0.48432598654E+03  0.49979094029E+03  0.80359789806E+02 0.  0.
         -6    2    1    2    0  502 -0.38681409134E+02 -0.67438738615E+02 -0.34747668292E+03  0.39541220578E+03  0.17194921467E+03 0.  0.
        -24    2    5    5    0    0 -0.50667806244E+02 -0.10866264706E+03 -0.24573822738E+03  0.28488669886E+03  0.79989732688E+02 0.  0.
          5    1    3    3  501    0  0.55937350808E+02 -0.24560497376E+02 -0.14192762131E+03  0.15458895478E+03  0.47000000000E+01 0. -1.
        -13    1    4    4    0    0 -0.12708243759E+02  0.28408821734E+02 -0.38860273384E+02  0.49786358164E+02  0.00000000000E+00 0.  1.
         14    1    4    4    0    0 -0.45476979155E+01  0.63590414257E+02 -0.44546571315E+03  0.45000458213E+03  0.00000000000E+00 0. -1.
         -5    1    5    5    0  502  0.11986397111E+02  0.41223908448E+02 -0.10173845554E+03  0.11052550691E+03  0.47000000000E+01 0.  1.
         11    1    6    6    0    0 -0.24762007336E+02 -0.35568171454E+02 -0.17375354956E+03  0.17907693267E+03  0.00000000000E+00 0. -1.
        -12    1    6    6    0    0 -0.25905798908E+02 -0.73094475610E+02 -0.71984677822E+02  0.10580976620E+03  0.00000000000E+00 0.  1.
<mgrwt>
<rscale>  2 0.18951742E+03</rscale>
<asrwt>0</asrwt>
<pdfrwt beam="1">  1       21 0.58509083E-02 0.18978795E+03</pdfrwt>
<pdfrwt beam="2">  1       21 0.15565557E+00 0.18978795E+03</pdfrwt>
<totfact> 0.55875633E+04</totfact>
</mgrwt>
</event>
<event>
12    1  0.1050690E-001  0.2004968E+03  0.7546771E-02  0.1150042E+00
         21   -1    0    0  501  502  0.00000000000E+00  0.00000000000E+00  0.33498385481E+03  0.33498385481E+03  0.00000000000E+00 0. -1.
         21   -1    0    0  502  503 -0.00000000000E+00 -0.00000000000E+00 -0.18065303026E+03  0.18065303026E+03  0.00000000000E+00 0. -1.
         -6    2    1    2    0  503 -0.83146247725E+02 -0.51907322477E+02 -0.74260714273E+02  0.21380747216E+03  0.17490372446E+03 0.  0.
        -24    2    3    3    0    0 -0.29754963668E+02 -0.62202654714E+02 -0.10647854425E+03  0.15043001838E+03  0.80851604368E+02 0.  0.
          6    2    1    2  501    0  0.83146247725E+02  0.51907322477E+02  0.22859153882E+03  0.30182941292E+03  0.17099483689E+03 0.  0.
         24    2    5    5    0    0  0.65905821062E+02  0.64189654339E+02  0.24544252727E+03  0.27436791625E+03  0.81066826131E+02 0.  0.
          5    1    5    5  501    0  0.17240426662E+02 -0.12282331862E+02 -0.16850988451E+02  0.27461496668E+02  0.47000000000E+01 0. -1.
        -11    1    6    6    0    0  0.28312120257E+02 -0.17062829633E+02  0.63268290845E+02  0.71383421989E+02  0.00000000000E+00 0.  1.
         12    1    6    6    0    0  0.37593700806E+02  0.81252483972E+02  0.18217423643E+03  0.20298449426E+03  0.00000000000E+00 0. -1.
         -5    1    3    3    0  503 -0.53391284057E+02  0.10295332237E+02  0.32217829975E+02  0.63377453778E+02  0.47000000000E+01 0.  1.
         13    1    4    4    0    0 -0.15380329201E+02 -0.27416269366E+02  0.58390361634E+01  0.31973437344E+02  0.00000000000E+00 0. -1.
        -14    1    4    4    0    0 -0.14374634467E+02 -0.34786385348E+02 -0.11231758041E+03  0.11845658104E+03  0.00000000000E+00 0.  1.
<mgrwt>
<rscale>  2 0.19964121E+03</rscale>
<asrwt>0</asrwt>
<pdfrwt beam="1">  1       21 0.51535978E-01 0.20049684E+03</pdfrwt>
<pdfrwt beam="2">  1       21 0.27792774E-01 0.20049684E+03</pdfrwt>
<totfact> 0.44035260E+04</totfact>
</mgrwt>
</event>
<event>
12    1  0.1050690E-001  0.1906385E+03  0.7546771E-02  0.1158796E+00
         21   -1    0    0  501  502  0.00000000000E+00  0.00000000000E+00  0.61229055357E+02  0.61229055357E+02  0.00000000000E+00 0.  1.
         21   -1    0    0  502  503 -0.00000000000E+00 -0.00000000000E+00 -0.58116072339E+03  0.58116072339E+03  0.00000000000E+00 0.  1.
         -6    2    1    2    0  503 -0.54832637991E+02 -0.36789998364E+02 -0.25724797121E+03  0.31781964256E+03  0.17456426993E+03 0.  0.
        -24    2    3    3    0    0 -0.37808602216E+02  0.27668001105E+02 -0.60306984928E+02  0.10984730409E+03  0.78958781014E+02 0.  0.
          6    2    1    2  501    0  0.54832637991E+02  0.36789998364E+02 -0.26268369682E+03  0.32457013618E+03  0.17883771011E+03 0.  0.
         24    2    5    5    0    0 -0.11448429844E+02  0.66788704092E+02 -0.21171009091E+03  0.23561227651E+03  0.78103679210E+02 0.  0.
          5    1    5    5  501    0  0.66281067835E+02 -0.29998705728E+02 -0.50973605906E+02  0.88957859674E+02  0.47000000000E+01 0. -1.
        -13    1    6    6    0    0 -0.17931189678E+02  0.80050660860E+02 -0.13885904990E+03  0.16128072299E+03  0.00000000000E+00 0.  1.
         14    1    6    6    0    0  0.64827598348E+01 -0.13261956767E+02 -0.72851041011E+02  0.74331553521E+02  0.00000000000E+00 0. -1.
         -5    1    3    3    0  503 -0.17024035775E+02 -0.64457999469E+02 -0.19694098628E+03  0.20797233847E+03  0.47000000000E+01 0.  1.
         11    1    4    4    0    0  0.21877574399E+02  0.17143080376E+02 -0.59248203525E+01  0.28418602404E+02  0.00000000000E+00 0. -1.
        -12    1    4    4    0    0 -0.59686176615E+02  0.10524920729E+02 -0.54382164575E+02  0.81428701691E+02  0.00000000000E+00 0.  1.
<mgrwt>
<rscale>  2 0.18962979E+03</rscale>
<asrwt>0</asrwt>
<pdfrwt beam="1">  1       21 0.94198549E-02 0.19063853E+03</pdfrwt>
<pdfrwt beam="2">  1       21 0.89409340E-01 0.19063853E+03</pdfrwt>
<totfact> 0.96257942E+04</totfact>
</mgrwt>
</event>
<event>
12    1  0.1050690E-001  0.2309557E+03  0.7546771E-02  0.1126624E+00
         21   -1    0    0  503  502  0.00000000000E+00  0.00000000000E+00  0.10418614984E+03  0.10418614984E+03  0.00000000000E+00 0. -1.
         21   -1    0    0  501  503 -0.00000000000E+00 -0.00000000000E+00 -0.51002055189E+03  0.51002055189E+03  0.00000000000E+00 0. -1.
          6    2    1    2  501    0  0.42924717023E+02 -0.14560259329E+03 -0.16732000640E+03  0.28219818914E+03  0.16910702797E+03 0.  0.
         24    2    3    3    0    0  0.62544397944E+02 -0.25263716549E+02 -0.69825594495E+02  0.12601359487E+03  0.80335268450E+02 0.  0.
         -6    2    1    2    0  502 -0.42924717023E+02  0.14560259329E+03 -0.23851439566E+03  0.33200851259E+03  0.17406288804E+03 0.  0.
        -24    2    5    5    0    0 -0.22491015384E+02  0.14563156883E+03 -0.10799497199E+03  0.19981567255E+03  0.80925826591E+02 0.  0.
          5    1    3    3  501    0 -0.19619680921E+02 -0.12033887674E+03 -0.97494411903E+02  0.15618459427E+03  0.47000000000E+01 0. -1.
        -13    1    4    4    0    0  0.39081814847E+02  0.25717534813E+02 -0.19687717599E+02  0.50758113369E+02  0.00000000000E+00 0.  1.
         14    1    4    4    0    0  0.23462583098E+02 -0.50981251362E+02 -0.50137876896E+02  0.75255481499E+02  0.00000000000E+00 0. -1.
         -5    1    5    5    0  502 -0.20433701640E+02 -0.28975539250E-01 -0.13051942367E+03  0.13219284004E+03  0.47000000000E+01 0.  1.
         13    1    6    6    0    0 -0.31657757308E+02  0.13783102588E+03 -0.11798458415E+03  0.18417374240E+03  0.00000000000E+00 0. -1.
        -14    1    6    6    0    0  0.91667419245E+01  0.78005429527E+01  0.99896121589E+01  0.15641930154E+02  0.00000000000E+00 0.  1.
<mgrwt>
<rscale>  2 0.23002213E+03</rscale>
<asrwt>0</asrwt>
<pdfrwt beam="1">  1       21 0.16028638E-01 0.23095570E+03</pdfrwt>
<pdfrwt beam="2">  1       21 0.78464701E-01 0.23095570E+03</pdfrwt>
<totfact> 0.49033136E+04</totfact>
</mgrwt>
</event>
<event>
12    1  0.1050690E-001  0.1959278E+03  0.7546771E-02  0.1156824E+00
         21   -1    0    0  503  502  0.00000000000E+00  0.00000000000E+00  0.64588584537E+03  0.64588584537E+03  0.00000000000E+00 0.  1.
         21   -1    0    0  501  503 -0.00000000000E+00 -0.00000000000E+00 -0.55062023902E+02  0.55062023902E+02  0.00000000000E+00 0. -1.
          6    2    1    2  501    0 -0.24697808376E+01 -0.92055166242E+02  0.27982528934E+03  0.34159900477E+03  0.17293765945E+03 0.  0.
         24    2    3    3    0    0  0.13486625187E+02 -0.57465080116E+02  0.28352967011E+03  0.30303874818E+03  0.89214822613E+02 0.  0.
         -6    2    1    2    0  502  0.24697808376E+01  0.92055166242E+02  0.31099853213E+03  0.35934886451E+03  0.15469733671E+03 0.  0.
        -24    2    5    5    0    0  0.39582868019E+01  0.89638472103E+02  0.12649933683E+03  0.17476799029E+03  0.80567018654E+02 0.  0.
          5    1    3    3  501    0 -0.15956406024E+02 -0.34590086126E+02 -0.37043807709E+01  0.38560256591E+02  0.47000000000E+01 0. -1.
        -13    1    4    4    0    0  0.41679550711E+02 -0.60948773218E+02  0.23964496705E+03  0.25076213458E+03  0.00000000000E+00 0.  1.
         14    1    4    4    0    0 -0.28192925524E+02  0.34836931027E+01  0.43884703057E+02  0.52276613601E+02  0.00000000000E+00 0. -1.
         -5    1    5    5    0  502 -0.14885059643E+01  0.24166941390E+01  0.18449919530E+03  0.18458087422E+03  0.47000000000E+01 0.  1.
         13    1    6    6    0    0 -0.21609407364E+02  0.49208383898E+02  0.11289513906E+03  0.12503497093E+03  0.00000000000E+00 0. -1.
        -14    1    6    6    0    0  0.25567694166E+02  0.40430088205E+02  0.13604197771E+02  0.49733019356E+02  0.00000000000E+00 0.  1.
<mgrwt>
<rscale>  2 0.19182685E+03</rscale>
<asrwt>0</asrwt>
<pdfrwt beam="1">  1       21 0.99367048E-01 0.19592776E+03</pdfrwt>
<pdfrwt beam="2">  1       21 0.84710811E-02 0.19592776E+03</pdfrwt>
<totfact> 0.90383942E+04</totfact>
</mgrwt>
</event>
<event>
12    1  0.1050690E-001  0.1930840E+03  0.7546771E-02  0.1155883E+00
         21   -1    0    0  501  502  0.00000000000E+00  0.00000000000E+00  0.10946845729E+03  0.10946845729E+03  0.00000000000E+00 0. -1.
         21   -1    0    0  502  503 -0.00000000000E+00 -0.00000000000E+00 -0.36006586931E+03  0.36006586931E+03  0.00000000000E+00 0. -1.
         -6    2    1    2    0  503 -0.26715925891E+02 -0.81151827693E+02 -0.18159643396E+03  0.26449152140E+03  0.17227634845E+03 0.  0.
        -24    2    3    3    0    0 -0.75280406424E+02 -0.91307905709E+02 -0.15929488250E+03  0.20989203525E+03  0.68377873890E+02 0.  0.
          6    2    1    2  501    0  0.26715925891E+02  0.81151827693E+02 -0.69000978066E+02  0.20504280519E+03  0.17315327647E+03 0.  0.
         24    2    5    5    0    0 -0.93431783192E+01  0.98995629830E+02 -0.93545801319E+02  0.15768038739E+03  0.78897768774E+02 0.  0.
          5    1    5    5  501    0  0.36059104211E+02 -0.17843802138E+02  0.24544823253E+02  0.47362417798E+02  0.47000000000E+01 0. -1.
        -13    1    6    6    0    0 -0.45596756696E+01  0.83174820519E+02 -0.24709021088E+02  0.86887151718E+02  0.00000000000E+00 0.  1.
         14    1    6    6    0    0 -0.47835026496E+01  0.15820809312E+02 -0.68836780231E+02  0.70793235676E+02  0.00000000000E+00 0. -1.
         -5    1    3    3    0  503  0.48564480533E+02  0.10156078016E+02 -0.22301551460E+02  0.54599486148E+02  0.47000000000E+01 0.  1.
         13    1    4    4    0    0  0.17746263716E+01 -0.24228000649E+02 -0.70383153825E+02  0.74457596366E+02  0.00000000000E+00 0. -1.
        -14    1    4    4    0    0 -0.77055032796E+02 -0.67079905060E+02 -0.88911728671E+02  0.13543443889E+03  0.00000000000E+00 0.  1.
<mgrwt>
<rscale>  2 0.19288716E+03</rscale>
<asrwt>0</asrwt>
<pdfrwt beam="1">  1       21 0.16841301E-01 0.19308396E+03</pdfrwt>
<pdfrwt beam="2">  1       21 0.55394750E-01 0.19308396E+03</pdfrwt>
<totfact> 0.97505225E+04</totfact>
</mgrwt>
</event>
<event>
12    1  0.1050690E-001  0.2265154E+03  0.7546771E-02  0.1131708E+00
         21   -1    0    0  501  502  0.00000000000E+00  0.00000000000E+00  0.35360068177E+03  0.35360068177E+03  0.00000000000E+00 0. -1.
         21   -1    0    0  502  503 -0.00000000000E+00 -0.00000000000E+00 -0.13681547839E+03  0.13681547839E+03  0.00000000000E+00 0.  1.
         -6    2    1    2    0  503  0.10676665923E+03 -0.99703662886E+02  0.96815138469E+02  0.24633801357E+03  0.17311645207E+03 0.  0.
        -24    2    3    3    0    0  0.30755063039E+02 -0.57945895562E+01  0.86584295972E+02  0.12499784319E+03  0.84546846912E+02 0.  0.
          6    2    1    2  501    0 -0.10676665923E+03  0.99703662886E+02  0.11997006491E+03  0.24407814659E+03  0.15440655831E+03 0.  0.
         24    2    5    5    0    0 -0.24386451971E+02  0.92390467510E+02  0.96129694300E+02  0.15787817764E+03  0.80956181504E+02 0.  0.
          5    1    5    5  501    0 -0.82380207259E+02  0.73131953758E+01  0.23840370614E+02  0.86199968943E+02  0.47000000000E+01 0. -1.
        -11    1    6    6    0    0 -0.51887444438E+01 -0.14594817948E+02  0.19422714150E+02  0.24842978984E+02  0.00000000000E+00 0.  1.
         12    1    6    6    0    0 -0.19197707527E+02  0.10698528546E+03  0.76706980150E+02  0.13303519866E+03  0.00000000000E+00 0. -1.
         -5    1    3    3    0  503  0.76011596191E+02 -0.93909073330E+02  0.10230842497E+02  0.12134017038E+03  0.47000000000E+01 0.  1.
         13    1    4    4    0    0  0.53472201748E+02  0.12157117031E+02  0.32752151164E+02  0.63873118447E+02  0.00000000000E+00 0. -1.
        -14    1    4    4    0    0 -0.22717138708E+02 -0.17951706587E+02  0.53832144808E+02  0.61124724744E+02  0.00000000000E+00 0.  1.
<mgrwt>
<rscale>  2 0.22294269E+03</rscale>
<asrwt>0</asrwt>
<pdfrwt beam="1">  1       21 0.54400105E-01 0.22651544E+03</pdfrwt>
<pdfrwt beam="2">  1       21 0.21048535E-01 0.22651544E+03</pdfrwt>
<totfact> 0.65980656E+04</totfact>
</mgrwt>
</event>
<event>
12    1  0.1050690E-001  0.1892798E+03  0.7546771E-02  0.1159257E+00
         21   -1    0    0  501  502  0.00000000000E+00  0.00000000000E+00  0.13987634712E+03  0.13987634712E+03  0.00000000000E+00 0. -1.
         21   -1    0    0  502  503 -0.00000000000E+00 -0.00000000000E+00 -0.25820310931E+03  0.25820310931E+03  0.00000000000E+00 0. -1.
         -6    2    1    2    0  503 -0.70004326003E+02 -0.30967211807E+02 -0.37849108478E+02  0.19240132569E+03  0.17241270617E+03 0.  0.
        -24    2    3    3    0    0 -0.29674581604E+02 -0.42620966496E+02  0.40040001183E+02  0.10379488300E+03  0.80455257533E+02 0.  0.
          6    2    1    2  501    0  0.70004326003E+02  0.30967211807E+02 -0.80477653712E+02  0.20567813074E+03  0.17311056251E+03 0.  0.
         24    2    5    5    0    0  0.10120002948E+03 -0.78568776995E+01 -0.29431480592E+02  0.13420587297E+03  0.82715341957E+02 0.  0.
          5    1    5    5  501    0 -0.31195703477E+02  0.38824089507E+02 -0.51046173120E+02  0.71472257777E+02  0.47000000000E+01 0. -1.
        -11    1    6    6    0    0  0.49573883704E+02  0.31540098970E+02 -0.36039947884E+02  0.68929134856E+02  0.00000000000E+00 0.  1.
         12    1    6    6    0    0  0.51626145777E+02 -0.39396976670E+02  0.66084672924E+01  0.65276738111E+02  0.00000000000E+00 0. -1.
         -5    1    3    3    0  503 -0.40329744400E+02  0.11653754689E+02 -0.77889109661E+02  0.88606442686E+02  0.47000000000E+01 0.  1.
         13    1    4    4    0    0 -0.21381248581E+02 -0.79192727069E+01 -0.22347134895E+02  0.31925962931E+02  0.00000000000E+00 0. -1.
        -14    1    4    4    0    0 -0.82933330229E+01 -0.34701693790E+02  0.62387136078E+02  0.71868920074E+02  0.00000000000E+00 0.  1.
<mgrwt>
<rscale>  2 0.18912009E+03</rscale>
<asrwt>0</asrwt>
<pdfrwt beam="1">  1       21 0.21519438E-01 0.18927979E+03</pdfrwt>
<pdfrwt beam="2">  1       21 0.39723555E-01 0.18927979E+03</pdfrwt>
<totfact> 0.12306649E+05</totfact>
</mgrwt>
</event>
<event>
12    1  0.1050690E-001  0.2036916E+03  0.7546771E-02  0.1147338E+00
         21   -1    0    0  503  502  0.00000000000E+00  0.00000000000E+00  0.60041213181E+03  0.60041213181E+03  0.00000000000E+00 0. -1.
         21   -1    0    0  501  503 -0.00000000000E+00 -0.00000000000E+00 -0.25582871623E+03  0.25582871623E+03  0.00000000000E+00 0.  1.
          6    2    1    2  501    0 -0.76136778049E+02 -0.76339570153E+02 -0.19490830026E+03  0.27957667622E+03  0.16896548000E+03 0.  0.
         24    2    3    3    0    0 -0.76456052615E+02  0.28932009106E+01 -0.15502677091E+03  0.19074785021E+03  0.80607344998E+02 0.  0.
         -6    2    1    2    0  502  0.76136778049E+02  0.76339570153E+02  0.53949171584E+03  0.57666417183E+03  0.17281700341E+03 0.  0.
        -24    2    5    5    0    0  0.11988014568E+03  0.70031130988E+02  0.42208454996E+03  0.45112608511E+03  0.77998517424E+02 0.  0.
          5    1    3    3  501    0  0.31927456541E+00 -0.79232771064E+02 -0.39881529351E+02  0.88828826009E+02  0.47000000000E+01 0. -1.
        -11    1    4    4    0    0  0.60338723188E+01 -0.41090633452E+01 -0.75828726271E+02  0.76179313102E+02  0.00000000000E+00 0.  1.
         12    1    4    4    0    0 -0.82489924934E+02  0.70022642557E+01 -0.79198044639E+02  0.11456853711E+03  0.00000000000E+00 0. -1.
         -5    1    5    5    0  502 -0.43743367627E+02  0.63084391653E+01  0.11740716588E+03  0.12553808672E+03  0.47000000000E+01 0.  1.
         11    1    6    6    0    0  0.78148712499E+02  0.20250040876E+02  0.32078927652E+03  0.33079154365E+03  0.00000000000E+00 0. -1.
        -12    1    6    6    0    0  0.41731433178E+02  0.49781090112E+02  0.10129527344E+03  0.12033454146E+03  0.00000000000E+00 0.  1.
<mgrwt>
<rscale>  2 0.20287230E+03</rscale>
<asrwt>0</asrwt>
<pdfrwt beam="1">  1       21 0.92371097E-01 0.20369157E+03</pdfrwt>
<pdfrwt beam="2">  1       21 0.39358264E-01 0.20369157E+03</pdfrwt>
<totfact> 0.61038669E+03</totfact>
</mgrwt>
</event>
<event>
12    1  0.1050690E-001  0.1863045E+03  0.7546771E-02  0.1162070E+00
         21   -1    0    0  501  502  0.00000000000E+00  0.00000000000E+00  0.19805372943E+03  0.19805372943E+03  0.00000000000E+00 0.  1.
         21   -1    0    0  502  503 -0.00000000000E+00 -0.00000000000E+00 -0.17912012689E+03  0.17912012689E+03  0.00000000000E+00 0. -1.
         -6    2    1    2    0  503 -0.54936787132E+02  0.40349641411E+02 -0.21412540196E+02  0.18753099943E+03  0.17338752760E+03 0.  0.
        -24    2    3    3    0    0 -0.60519701910E+02  0.82149114440E+02  0.16461491918E+02  0.13065484282E+03  0.79928692674E+02 0.  0.
          6    2    1    2  501    0  0.54936787132E+02 -0.40349641411E+02  0.40346142735E+02  0.18964285688E+03  0.17230919241E+03 0.  0.
         24    2    5    5    0    0  0.35833404939E+02 -0.24252215161E+02  0.94532126288E+02  0.12979072946E+03  0.77698826915E+02 0.  0.
          5    1    5    5  501    0  0.19103382193E+02 -0.16097426250E+02 -0.54185983554E+02  0.59852127421E+02  0.47000000000E+01 0. -1.
        -13    1    6    6    0    0  0.93973729735E+01  0.27599250955E+02  0.20601700278E+02  0.35699570395E+02  0.00000000000E+00 0.  1.
         14    1    6    6    0    0  0.26436031965E+02 -0.51851466115E+02  0.73930426011E+02  0.94091159067E+02  0.00000000000E+00 0. -1.
         -5    1    3    3    0  503  0.55829147781E+01 -0.41799473029E+02 -0.37874032113E+02  0.56876156616E+02  0.47000000000E+01 0.  1.
         13    1    4    4    0    0  0.28037584240E+01  0.21597654511E+02 -0.25479419926E+02  0.33518958538E+02  0.00000000000E+00 0. -1.
        -14    1    4    4    0    0 -0.63323460334E+02  0.60551459929E+02  0.41940911844E+02  0.97135884278E+02  0.00000000000E+00 0.  1.
<mgrwt>
<rscale>  2 0.18605324E+03</rscale>
<asrwt>0</asrwt>
<pdfrwt beam="1">  1       21 0.30469805E-01 0.18630453E+03</pdfrwt>
<pdfrwt beam="2">  1       21 0.27556943E-01 0.18630453E+03</pdfrwt>
<totfact> 0.13017551E+05</totfact>
</mgrwt>
</event>
<event>
12    1  0.1050690E-001  0.1788720E+03  0.7546771E-02  0.1169031E+00
         21   -1    0    0  501  502  0.00000000000E+00  0.00000000000E+00  0.47385144131E+03  0.47385144131E+03  0.00000000000E+00 0.  1.
         21   -1    0    0  502  503 -0.00000000000E+00 -0.00000000000E+00 -0.18008102339E+03  0.18008102339E+03  0.00000000000E+00 0.  1.
         -6    2    1    2    0  503 -0.34000823919E+02 -0.30619973762E+02 -0.11193124082E+03  0.21054886464E+03  0.17236177914E+03 0.  0.
        -24    2    3    3    0    0 -0.86997804582E+02 -0.37949325251E+02 -0.98443368339E+02  0.15517367112E+03  0.73341680851E+02 0.  0.
          6    2    1    2  501    0  0.34000823919E+02  0.30619973762E+02  0.40570165874E+03  0.44338360007E+03  0.17292062365E+03 0.  0.
         24    2    5    5    0    0 -0.37859301233E+02 -0.14162444696E+02  0.14356866036E+03  0.16787472284E+03  0.77045835721E+02 0.  0.
          5    1    5    5  501    0  0.71860125152E+02  0.44782418458E+02  0.26213299838E+03  0.27550887723E+03  0.47000000000E+01 0. -1.
        -11    1    6    6    0    0 -0.30435982789E+02  0.26915633161E+02  0.97934890644E+02  0.10602850165E+03  0.00000000000E+00 0.  1.
         12    1    6    6    0    0 -0.74233184441E+01 -0.41078077857E+02  0.45633769714E+02  0.61846221190E+02  0.00000000000E+00 0. -1.
         -5    1    3    3    0  503  0.52996980664E+02  0.73293514895E+01 -0.13487872485E+02  0.55375193516E+02  0.47000000000E+01 0.  1.
         11    1    4    4    0    0 -0.77380019210E+02 -0.54393829865E+02 -0.97882055238E+02  0.13611485164E+03  0.00000000000E+00 0. -1.
        -12    1    4    4    0    0 -0.96177853724E+01  0.16444504614E+02 -0.56131310086E+00  0.19058819477E+02  0.00000000000E+00 0.  1.
<mgrwt>
<rscale>  2 0.17873677E+03</rscale>
<asrwt>0</asrwt>
<pdfrwt beam="1">  1       21 0.72900221E-01 0.17887197E+03</pdfrwt>
<pdfrwt beam="2">  1       21 0.27704773E-01 0.17887197E+03</pdfrwt>
<totfact> 0.21235996E+04</totfact>
</mgrwt>
</event>
<event>
12    1  0.1050690E-001  0.1817955E+03  0.7546771E-02  0.1166089E+00
         21   -1    0    0  501  502  0.00000000000E+00  0.00000000000E+00  0.35158568115E+02  0.35158568115E+02  0.00000000000E+00 0. -1.
         21   -1    0    0  502  503 -0.00000000000E+00 -0.00000000000E+00 -0.94263618517E+03  0.94263618517E+03  0.00000000000E+00 0. -1.
         -6    2    1    2    0  503 -0.52106569041E+02  0.17129265712E+02 -0.48076804748E+03  0.51397294876E+03  0.17326791478E+03 0.  0.
        -24    2    3    3    0    0  0.36388347458E+02  0.12759013410E+02 -0.27760018902E+03  0.29227559184E+03  0.82923171602E+02 0.  0.
          6    2    1    2  501    0  0.52106569041E+02 -0.17129265712E+02 -0.42670956957E+03  0.46382180452E+03  0.17332369517E+03 0.  0.
         24    2    5    5    0    0  0.55789354207E+02 -0.56218879846E+02 -0.16821855491E+03  0.20232370607E+03  0.79777097746E+02 0.  0.
          5    1    5    5  501    0 -0.36827851658E+01  0.39089614133E+02 -0.25849101465E+03  0.26149809846E+03  0.47000000000E+01 0. -1.
        -11    1    6    6    0    0 -0.89725437033E+01  0.88033446741E+01 -0.55825018889E+02  0.57222706611E+02  0.00000000000E+00 0.  1.
         12    1    6    6    0    0  0.64761897911E+02 -0.65022224520E+02 -0.11239353603E+03  0.14510099946E+03  0.00000000000E+00 0. -1.
         -5    1    3    3    0  503 -0.88494916500E+02  0.43702523023E+01 -0.20316785846E+03  0.22169735692E+03  0.47000000000E+01 0.  1.
         11    1    4    4    0    0 -0.24150956993E+02  0.12980777705E+02 -0.12773260538E+03  0.13064221290E+03  0.00000000000E+00 0. -1.
        -12    1    4    4    0    0  0.60539304451E+02 -0.22176429446E+00 -0.14986758363E+03  0.16163337894E+03  0.00000000000E+00 0.  1.
<mgrwt>
<rscale>  2 0.18178222E+03</rscale>
<asrwt>0</asrwt>
<pdfrwt beam="1">  1       21 0.54090114E-02 0.18179552E+03</pdfrwt>
<pdfrwt beam="2">  1       21 0.14502093E+00 0.18179552E+03</pdfrwt>
<totfact> 0.77271602E+04</totfact>
</mgrwt>
</event>
<event>
12    1  0.1050690E-001  0.3094201E+03  0.7546771E-02  0.1080739E+00
         21   -1    0    0  503  502  0.00000000000E+00  0.00000000000E+00  0.36763195213E+03  0.36763195213E+03  0.00000000000E+00 0.  1.
         21   -1    0    0  501  503 -0.00000000000E+00 -0.00000000000E+00 -0.37529947912E+03  0.37529947912E+03  0.00000000000E+00 0. -1.
          6    2    1    2  501    0  0.17174058691E+03 -0.18973829676E+03 -0.21006088868E+03  0.37319655381E+03  0.17220522750E+03 0.  0.
         24    2    3    3    0    0  0.11285039371E+03 -0.19398832050E+03 -0.12392751710E+03  0.26866347170E+03  0.80345203214E+02 0.  0.
         -6    2    1    2    0  502 -0.17174058691E+03  0.18973829676E+03  0.20239336169E+03  0.36973487744E+03  0.17391192106E+03 0.  0.
        -24    2    5    5    0    0 -0.40398713472E+02  0.12463885045E+03  0.59112677485E+02  0.16469812440E+03  0.80400649567E+02 0.  0.
          5    1    3    3  501    0  0.58890193201E+02  0.42500237452E+01 -0.86133371580E+02  0.10453308212E+03  0.47000000000E+01 0. -1.
        -11    1    4    4    0    0  0.89852688498E+01 -0.37752197254E+02  0.75959559964E+01  0.39543166304E+02  0.00000000000E+00 0.  1.
         12    1    4    4    0    0  0.10386512486E+03 -0.15623612325E+03 -0.13152347309E+03  0.22912030539E+03  0.00000000000E+00 0. -1.
         -5    1    5    5    0  502 -0.13134187344E+03  0.65099446306E+02  0.14328068421E+03  0.20503675303E+03  0.47000000000E+01 0.  1.
         13    1    6    6    0    0 -0.62948215444E+01 -0.50282381933E+01  0.25118352056E+02  0.26378771154E+02  0.00000000000E+00 0. -1.
        -14    1    6    6    0    0 -0.34103891928E+02  0.12966708864E+03  0.33994325429E+02  0.13831935325E+03  0.00000000000E+00 0.  1.
<mgrwt>
<rscale>  2 0.30918083E+03</rscale>
<asrwt>0</asrwt>
<pdfrwt beam="1">  1       21 0.56558762E-01 0.30942011E+03</pdfrwt>
<pdfrwt beam="2">  1       21 0.57738381E-01 0.30942011E+03</pdfrwt>
<totfact> 0.77311687E+03</totfact>
</mgrwt>
</event>
<event>
12    1  0.1050690E-001  0.1875247E+03  0.7546771E-02  0.1161781E+00
         21   -1    0    0  501  502  0.00000000000E+00  0.00000000000E+00  0.62719190245E+02  0.62719190245E+02  0.00000000000E+00 0.  1.
         21   -1    0    0  502  503 -0.00000000000E+00 -0.00000000000E+00 -0.54801303971E+03  0.54801303971E+03  0.00000000000E+00 0.  1.
         -6    2    1    2    0  503 -0.57595713068E+02 -0.92676352221E+01 -0.25858711810E+03  0.31942572679E+03  0.17821992611E+03 0.  0.
        -24    2    3    3    0    0 -0.53923930234E+02 -0.10668445004E+02 -0.47134539307E+02  0.10788441325E+03  0.79973594739E+02 0.  0.
          6    2    1    2  501    0  0.57595713068E+02  0.92676352221E+01 -0.22670673136E+03  0.29130650316E+03  0.17337929955E+03 0.  0.
         24    2    5    5    0    0  0.74527327998E+02 -0.34810064718E+02 -0.86843526456E+02  0.14361314074E+03  0.79478757429E+02 0.  0.
          5    1    5    5  501    0 -0.16931614930E+02  0.44077699940E+02 -0.13986320490E+03  0.14769336242E+03  0.47000000000E+01 0. -1.
        -11    1    6    6    0    0 -0.13733103253E+02  0.62860903832E+01 -0.36196589388E+01  0.15531097453E+02  0.00000000000E+00 0.  1.
         12    1    6    6    0    0  0.88260431251E+02 -0.41096155101E+02 -0.83223867517E+02  0.12808204329E+03  0.00000000000E+00 0. -1.
         -5    1    3    3    0  503 -0.36717828337E+01  0.14008097823E+01 -0.21145257880E+03  0.21154131355E+03  0.47000000000E+01 0.  1.
         13    1    4    4    0    0 -0.65775964106E+02 -0.30595880088E+02 -0.27775094385E+02  0.77679091141E+02  0.00000000000E+00 0. -1.
        -14    1    4    4    0    0  0.11852033872E+02  0.19927435083E+02 -0.19359444923E+02  0.30205322107E+02  0.00000000000E+00 0.  1.
<mgrwt>
<rscale>  2 0.18636539E+03</rscale>
<asrwt>0</asrwt>
<pdfrwt beam="1">  1       21 0.96491059E-02 0.18752466E+03</pdfrwt>
<pdfrwt beam="2">  1       21 0.84309701E-01 0.18752466E+03</pdfrwt>
<totfact> 0.10571739E+05</totfact>
</mgrwt>
</event>
<event>
12    1  0.1050690E-001  0.1761645E+03  0.7546771E-02  0.1171601E+00
         21   -1    0    0  501  502  0.00000000000E+00  0.00000000000E+00  0.12204337354E+03  0.12204337354E+03  0.00000000000E+00 0. -1.
         21   -1    0    0  502  503 -0.00000000000E+00 -0.00000000000E+00 -0.25658034008E+03  0.25658034008E+03  0.00000000000E+00 0. -1.
         -6    2    1    2    0  503  0.24987354548E+02 -0.16296468711E+02 -0.85881484446E+02  0.19586349150E+03  0.17348468276E+03 0.  0.
        -24    2    3    3    0    0 -0.49890318509E+02 -0.44521735869E+01 -0.71058591802E+02  0.11847640346E+03  0.80488936980E+02 0.  0.
          6    2    1    2  501    0 -0.24987354548E+02  0.16296468711E+02 -0.48655482101E+02  0.18276022212E+03  0.17362027552E+03 0.  0.
         24    2    5    5    0    0 -0.44960918695E+02  0.51551877441E+00  0.33095512699E+02  0.97008855972E+02  0.79332560822E+02 0.  0.
          5    1    5    5  501    0  0.19973564148E+02  0.15780949937E+02 -0.81750994800E+02  0.85751366149E+02  0.47000000000E+01 0. -1.
        -13    1    6    6    0    0 -0.36117934738E+01 -0.19191272502E+02 -0.19271271483E+02  0.27435959923E+02  0.00000000000E+00 0.  1.
         14    1    6    6    0    0 -0.41349125221E+02  0.19706791276E+02  0.52366784182E+02  0.69572896048E+02  0.00000000000E+00 0. -1.
         -5    1    3    3    0  503  0.74877673057E+02 -0.11844295124E+02 -0.14822892644E+02  0.77387088043E+02  0.47000000000E+01 0.  1.
         13    1    4    4    0    0 -0.52647768525E+02 -0.86034458050E+00 -0.87116091036E+02  0.10179263746E+03  0.00000000000E+00 0. -1.
        -14    1    4    4    0    0  0.27574500161E+01 -0.35918290064E+01  0.16057499233E+02  0.16683765997E+02  0.00000000000E+00 0.  1.
<mgrwt>
<rscale>  2 0.17613112E+03</rscale>
<asrwt>0</asrwt>
<pdfrwt beam="1">  1       21 0.18775904E-01 0.17616453E+03</pdfrwt>
<pdfrwt beam="2">  1       21 0.39473898E-01 0.17616453E+03</pdfrwt>
<totfact> 0.16146906E+05</totfact>
</mgrwt>
</event>
<event>
12    1  0.1050690E-001  0.1930668E+03  0.7546771E-02  0.1156410E+00
         21   -1    0    0  503  502  0.00000000000E+00  0.00000000000E+00  0.17450539567E+03  0.17450539567E+03  0.00000000000E+00 0.  1.
         21   -1    0    0  501  503 -0.00000000000E+00 -0.00000000000E+00 -0.64695073561E+03  0.64695073561E+03  0.00000000000E+00 0.  1.
          6    2    1    2  501    0 -0.65457798321E+02  0.46705225526E+02 -0.57306886999E+03  0.60374099675E+03  0.17213122890E+03 0.  0.
         24    2    3    3    0    0 -0.66341707103E+01  0.79497186305E+02 -0.44103068242E+03  0.45544499265E+03  0.80983107153E+02 0.  0.
         -6    2    1    2    0  502  0.65457798321E+02 -0.46705225526E+02  0.10062353005E+03  0.21771513452E+03  0.17552402556E+03 0.  0.
        -24    2    5    5    0    0  0.55115191369E+02 -0.51035408347E+02  0.13882156964E+03  0.17762897444E+03  0.81475929803E+02 0.  0.
          5    1    3    3  501    0 -0.58823627611E+02 -0.32791960779E+02 -0.13203818756E+03  0.14829600410E+03  0.47000000000E+01 0. -1.
        -11    1    4    4    0    0  0.54641306280E+01  0.75888461589E+02 -0.19844155798E+03  0.21252756824E+03  0.00000000000E+00 0.  1.
         12    1    4    4    0    0 -0.12098301338E+02  0.36087247163E+01 -0.24258912444E+03  0.24291742442E+03  0.00000000000E+00 0. -1.
         -5    1    5    5    0  502  0.10342606953E+02  0.43301828208E+01 -0.38198039593E+02  0.40086160088E+02  0.47000000000E+01 0.  1.
         13    1    6    6    0    0 -0.13459156323E+02  0.59186071501E+01  0.27491623373E+01  0.14957830493E+02  0.00000000000E+00 0. -1.
        -14    1    6    6    0    0  0.68574347691E+02 -0.56954015497E+02  0.13607240730E+03  0.16267114394E+03  0.00000000000E+00 0.  1.
<mgrwt>
<rscale>  2 0.19229233E+03</rscale>
<asrwt>0</asrwt>
<pdfrwt beam="1">  1       21 0.26846985E-01 0.19306679E+03</pdfrwt>
<pdfrwt beam="2">  1       21 0.99530879E-01 0.19306679E+03</pdfrwt>
<totfact> 0.10966488E+04</totfact>
</mgrwt>
</event>
<event>
12    1  0.1050690E-001  0.1822628E+03  0.7546771E-02  0.1165971E+00
         21   -1    0    0  503  502  0.00000000000E+00  0.00000000000E+00  0.69043406959E+03  0.69043406959E+03  0.00000000000E+00 0. -1.
         21   -1    0    0  501  503 -0.00000000000E+00 -0.00000000000E+00 -0.49699275841E+02  0.49699275841E+02  0.00000000000E+00 0. -1.
          6    2    1    2  501    0 -0.27369715531E+02  0.49863215755E+02  0.39505695110E+03  0.43507439118E+03  0.17315972288E+03 0.  0.
         24    2    3    3    0    0 -0.12286363622E+02  0.96961245244E+02  0.23816333535E+03  0.27050395473E+03  0.83055267215E+02 0.  0.
         -6    2    1    2    0  502  0.27369715531E+02 -0.49863215755E+02  0.24567784265E+03  0.30505895426E+03  0.17166223111E+03 0.  0.
        -24    2    5    5    0    0  0.29542192746E+02 -0.71616589391E+02  0.25671215438E+03  0.28012353854E+03  0.81033262336E+02 0.  0.
          5    1    3    3  501    0 -0.15083351909E+02 -0.47098029489E+02  0.15689361575E+03  0.16457043644E+03  0.47000000000E+01 0. -1.
        -13    1    4    4    0    0 -0.59488003486E+01  0.53683774421E+02  0.39067815848E+02  0.66660558779E+02  0.00000000000E+00 0.  1.
         14    1    4    4    0    0 -0.63375632733E+01  0.43277470823E+02  0.19909551950E+03  0.20384339596E+03  0.00000000000E+00 0. -1.
         -5    1    5    5    0  502 -0.21724772154E+01  0.21753373636E+02 -0.11034311735E+02  0.24935415723E+02  0.47000000000E+01 0.  1.
         11    1    6    6    0    0 -0.13717520513E+02  0.36774130680E+01  0.71801982578E+01  0.15913798507E+02  0.00000000000E+00 0. -1.
        -12    1    6    6    0    0  0.43259713259E+02 -0.75294002459E+02  0.24953195613E+03  0.26420974003E+03  0.00000000000E+00 0.  1.
<mgrwt>
<rscale>  2 0.18190624E+03</rscale>
<asrwt>0</asrwt>
<pdfrwt beam="1">  1       21 0.10622062E+00 0.18226281E+03</pdfrwt>
<pdfrwt beam="2">  1       21 0.76460429E-02 0.18226281E+03</pdfrwt>
<totfact> 0.92661383E+04</totfact>
</mgrwt>
</event>
<event>
12    1  0.1050690E-001  0.1731955E+03  0.7546771E-02  0.1175339E+00
         21   -1    0    0  503  502  0.00000000000E+00  0.00000000000E+00  0.83924323034E+03  0.83924323034E+03  0.00000000000E+00 0. -1.
         21   -1    0    0  501  503 -0.00000000000E+00 -0.00000000000E+00 -0.37650428437E+02  0.37650428437E+02  0.00000000000E+00 0. -1.
          6    2    1    2  501    0 -0.74344308433E+01  0.81333675858E+01  0.51122620876E+03  0.53879687789E+03  0.16978933027E+03 0.  0.
         24    2    3    3    0    0 -0.32921019546E+02 -0.52985796625E+02  0.26336300535E+03  0.28219723634E+03  0.79899433302E+02 0.  0.
         -6    2    1    2    0  502  0.74344308433E+01 -0.81333675858E+01  0.29036659314E+03  0.33809678088E+03  0.17284459031E+03 0.  0.
        -24    2    5    5    0    0  0.55906455228E+01 -0.26668614769E+02  0.30332947259E+03  0.31492176899E+03  0.80152862170E+02 0.  0.
          5    1    3    3  501    0  0.25486588703E+02  0.61119164210E+02  0.24786320341E+03  0.25659964155E+03  0.47000000000E+01 0. -1.
        -13    1    4    4    0    0 -0.55965769417E+01 -0.47586198326E+02  0.59281223340E+02  0.76223561877E+02  0.00000000000E+00 0.  1.
         14    1    4    4    0    0 -0.27324442604E+02 -0.53995982986E+01  0.20408178201E+03  0.20597367446E+03  0.00000000000E+00 0. -1.
         -5    1    5    5    0  502  0.18437853205E+01  0.18535247183E+02 -0.12962879448E+02  0.23175011888E+02  0.47000000000E+01 0.  1.
         13    1    6    6    0    0  0.17257672599E+02 -0.21801249657E+02  0.28553112531E+02  0.39854761138E+02  0.00000000000E+00 0. -1.
        -14    1    6    6    0    0 -0.11667027077E+02 -0.48673651111E+01  0.27477636006E+03  0.27506700785E+03  0.00000000000E+00 0.  1.
<mgrwt>
<rscale>  2 0.17242816E+03</rscale>
<asrwt>0</asrwt>
<pdfrwt beam="1">  1       21 0.12911433E+00 0.17319548E+03</pdfrwt>
<pdfrwt beam="2">  1       21 0.57923742E-02 0.17319548E+03</pdfrwt>
<totfact> 0.92923227E+04</totfact>
</mgrwt>
</event>
<event>
12    1  0.1050690E-001  0.2066798E+03  0.7546771E-02  0.1144257E+00
         21   -1    0    0  503  502  0.00000000000E+00  0.00000000000E+00  0.10595149433E+03  0.10595149433E+03  0.00000000000E+00 0.  1.
         21   -1    0    0  501  503 -0.00000000000E+00 -0.00000000000E+00 -0.40326463922E+03  0.40326463922E+03  0.00000000000E+00 0. -1.
          6    2    1    2  501    0 -0.74773963901E+02 -0.84794639082E+02 -0.14029978171E+03  0.24965936381E+03  0.17281346214E+03 0.  0.
         24    2    3    3    0    0 -0.74250144607E+02 -0.12178883631E+03 -0.13528059905E+03  0.21202789813E+03  0.79431634009E+02 0.  0.
         -6    2    1    2    0  502  0.74773963901E+02  0.84794639082E+02 -0.15701336317E+03  0.25955676974E+03  0.17301804533E+03 0.  0.
        -24    2    5    5    0    0 -0.76213995066E+01 -0.38958014682E+01 -0.90743702380E+02  0.12146713184E+03  0.80290607142E+02 0.  0.
          5    1    3    3  501    0 -0.52381929417E+00  0.36994197224E+02 -0.50191826592E+01  0.37631465683E+02  0.47000000000E+01 0. -1.
        -11    1    4    4    0    0 -0.21147333278E+02 -0.59263323635E+02 -0.12168891366E+02  0.64089259241E+02  0.00000000000E+00 0.  1.
         12    1    4    4    0    0 -0.53102811329E+02 -0.62525512671E+02 -0.12311170769E+03  0.14793863889E+03  0.00000000000E+00 0. -1.
         -5    1    5    5    0  502  0.82395363408E+02  0.88690440550E+02 -0.66269660793E+02  0.13808963791E+03  0.47000000000E+01 0.  1.
         13    1    6    6    0    0 -0.25823338756E+01  0.33508846930E+02 -0.71714109211E+02  0.79198640966E+02  0.00000000000E+00 0. -1.
        -14    1    6    6    0    0 -0.50390656310E+01 -0.37404648398E+02 -0.19029593169E+02  0.42268490870E+02  0.00000000000E+00 0.  1.
<mgrwt>
<rscale>  2 0.20663693E+03</rscale>
<asrwt>0</asrwt>
<pdfrwt beam="1">  1       21 0.16300230E-01 0.20667975E+03</pdfrwt>
<pdfrwt beam="2">  1       21 0.62040713E-01 0.20667975E+03</pdfrwt>
<totfact> 0.80765147E+04</totfact>
</mgrwt>
</event>
<event>
12    1  0.1050690E-001  0.1985167E+03  0.7546771E-02  0.1151225E+00
         21   -1    0    0  501  502  0.00000000000E+00  0.00000000000E+00  0.20445460970E+03  0.20445460970E+03  0.00000000000E+00 0. -1.
         21   -1    0    0  502  503 -0.00000000000E+00 -0.00000000000E+00 -0.22194128292E+03  0.22194128292E+03  0.00000000000E+00 0. -1.
         -6    2    1    2    0  503  0.35076080440E+02  0.90829776540E+02 -0.87404070653E+02  0.21592664554E+03  0.17176863789E+03 0.  0.
        -24    2    3    3    0    0  0.82152465768E+02  0.94813822718E+02 -0.84240152641E+02  0.16834346515E+03  0.74191848137E+02 0.  0.
          6    2    1    2  501    0 -0.35076080440E+02 -0.90829776540E+02  0.69917397435E+02  0.21046924708E+03  0.17299850223E+03 0.  0.
         24    2    5    5    0    0 -0.67167609934E+01 -0.10315118147E+03  0.10208247265E+03  0.16560556374E+03  0.79492706598E+02 0.  0.
          5    1    5    5  501    0 -0.28359319447E+02  0.12321404925E+02 -0.32165075218E+02  0.44863683338E+02  0.47000000000E+01 0. -1.
        -11    1    6    6    0    0 -0.20025982677E+02 -0.49385151920E+02  0.46038255802E+01  0.53489516939E+02  0.00000000000E+00 0.  1.
         12    1    6    6    0    0  0.13309221684E+02 -0.53766029545E+02  0.97478647073E+02  0.11211604680E+03  0.00000000000E+00 0. -1.
         -5    1    3    3    0  503 -0.47076385328E+02 -0.39840461780E+01 -0.31639180123E+01  0.47583180397E+02  0.47000000000E+01 0.  1.
         11    1    4    4    0    0  0.53908394754E+02  0.67551163180E+02 -0.94205021644E+02  0.12784311000E+03  0.00000000000E+00 0. -1.
        -12    1    4    4    0    0  0.28244071015E+02  0.27262659538E+02  0.99648690030E+01  0.40500355144E+02  0.00000000000E+00 0.  1.
<mgrwt>
<rscale>  2 0.19824840E+03</rscale>
<asrwt>0</asrwt>
<pdfrwt beam="1">  1       21 0.31454555E-01 0.19851665E+03</pdfrwt>
<pdfrwt beam="2">  1       21 0.34144813E-01 0.19851665E+03</pdfrwt>
<totfact> 0.80086751E+04</totfact>
</mgrwt>
</event>
<event>
12    1  0.1050690E-001  0.2249486E+03  0.7546771E-02  0.1130423E+00
         21   -1    0    0  503  502  0.00000000000E+00  0.00000000000E+00  0.36493415629E+03  0.36493415629E+03  0.00000000000E+00 0.  1.
         21   -1    0    0  501  503 -0.00000000000E+00 -0.00000000000E+00 -0.19481895910E+03  0.19481895910E+03  0.00000000000E+00 0. -1.
          6    2    1    2  501    0 -0.39781976500E+02 -0.13850479184E+03 -0.65876898198E+02  0.23439629720E+03  0.17273006516E+03 0.  0.
         24    2    3    3    0    0 -0.91576556392E+02 -0.90961397855E+02 -0.60816679660E+02  0.16375106644E+03  0.80346136527E+02 0.  0.
         -6    2    1    2    0  502  0.39781976500E+02  0.13850479184E+03  0.23599209539E+03  0.32535681819E+03  0.17146022000E+03 0.  0.
        -24    2    5    5    0    0  0.16372993489E+02  0.30094074295E+01  0.11481325156E+03  0.14201729198E+03  0.81912740390E+02 0.  0.
          5    1    3    3  501    0  0.51794579892E+02 -0.47543393981E+02 -0.50602185381E+01  0.70645230760E+02  0.47000000000E+01 0. -1.
        -11    1    4    4    0    0 -0.16412830790E+02 -0.10193126103E+02  0.19369937805E+02  0.27358277081E+02  0.00000000000E+00 0.  1.
         12    1    4    4    0    0 -0.75163725602E+02 -0.80768271752E+02 -0.80186617466E+02  0.13639278936E+03  0.00000000000E+00 0. -1.
         -5    1    5    5    0  502  0.23408983011E+02  0.13549538441E+03  0.12117884383E+03  0.18333952621E+03  0.47000000000E+01 0.  1.
         11    1    6    6    0    0  0.40331679334E+02  0.16536223711E+02  0.10343327401E+03  0.11224318787E+03  0.00000000000E+00 0. -1.
        -12    1    6    6    0    0 -0.23958685845E+02 -0.13526816281E+02  0.11379977555E+02  0.29774104105E+02  0.00000000000E+00 0.  1.
<mgrwt>
<rscale>  2 0.22470477E+03</rscale>
<asrwt>0</asrwt>
<pdfrwt beam="1">  1       21 0.56143716E-01 0.22494857E+03</pdfrwt>
<pdfrwt beam="2">  1       21 0.29972148E-01 0.22494857E+03</pdfrwt>
<totfact> 0.31342166E+04</totfact>
</mgrwt>
</event>
<event>
12    1  0.1050690E-001  0.1885979E+03  0.7546771E-02  0.1160404E+00
         21   -1    0    0  503  502  0.00000000000E+00  0.00000000000E+00  0.64501587142E+03  0.64501587142E+03  0.00000000000E+00 0. -1.
         21   -1    0    0  501  503 -0.00000000000E+00 -0.00000000000E+00 -0.19189898323E+03  0.19189898323E+03  0.00000000000E+00 0. -1.
          6    2    1    2  501    0 -0.10539591830E+02 -0.69739296544E+02 -0.12728937822E+03  0.22753406564E+03  0.17491287186E+03 0.  0.
         24    2    3    3    0    0 -0.51974817231E+02 -0.19579128033E+01 -0.23049383365E+02  0.96388114838E+02  0.77808608519E+02 0.  0.
         -6    2    1    2    0  502  0.10539591830E+02  0.69739296544E+02  0.58040626641E+03  0.60938078901E+03  0.17175232006E+03 0.  0.
        -24    2    5    5    0    0 -0.11065841814E+02  0.31848908766E+02  0.54793254680E+03  0.55479957691E+03  0.80222745222E+02 0.  0.
          5    1    3    3  501    0  0.41435225400E+02 -0.67781383741E+02 -0.10423999485E+03  0.13114595081E+03  0.47000000000E+01 0. -1.
        -11    1    4    4    0    0 -0.38603257319E+02  0.24640188196E+02 -0.41132108260E+02  0.61556483655E+02  0.00000000000E+00 0.  1.
         12    1    4    4    0    0 -0.13371559911E+02 -0.26598101000E+02  0.18082724894E+02  0.34831631183E+02  0.00000000000E+00 0. -1.
         -5    1    5    5    0  502  0.21605433644E+02  0.37890387779E+02  0.32473719612E+02  0.54581212101E+02  0.47000000000E+01 0.  1.
         13    1    6    6    0    0  0.85459757444E+00  0.56604110711E+02  0.42989946306E+03  0.43361077481E+03  0.00000000000E+00 0. -1.
        -14    1    6    6    0    0 -0.11920439389E+02 -0.24755201945E+02  0.11803308374E+03  0.12118880210E+03  0.00000000000E+00 0.  1.
<mgrwt>
<rscale>  2 0.18786173E+03</rscale>
<asrwt>0</asrwt>
<pdfrwt beam="1">  1       21 0.99233210E-01 0.18859789E+03</pdfrwt>
<pdfrwt beam="2">  1       21 0.29522921E-01 0.18859789E+03</pdfrwt>
<totfact> 0.92184441E+03</totfact>
</mgrwt>
</event>
<event>
12    1  0.1050690E-001  0.1799937E+03  0.7546771E-02  0.1167913E+00
         21   -1    0    0  503  502  0.00000000000E+00  0.00000000000E+00  0.12966116439E+03  0.12966116439E+03  0.00000000000E+00 0.  1.
         21   -1    0    0  501  503 -0.00000000000E+00 -0.00000000000E+00 -0.15576004839E+04  0.15576004839E+04  0.00000000000E+00 0.  1.
          6    2    1    2  501    0 -0.26565529374E+02 -0.42112533850E+02 -0.14870177683E+04  0.14978203622E+04  0.17252478526E+03 0.  0.
         24    2    3    3    0    0 -0.40572542779E+02  0.37830100920E+02 -0.73459302191E+03  0.74101648394E+03  0.80007961255E+02 0.  0.
         -6    2    1    2    0  502  0.26565529374E+02  0.42112533850E+02  0.59078448715E+02  0.18944128610E+03  0.17296978036E+03 0.  0.
        -24    2    5    5    0    0 -0.36643340775E+02  0.67282295814E+02  0.28022331902E+02  0.11450497598E+03  0.80352328435E+02 0.  0.
          5    1    3    3  501    0  0.14007013405E+02 -0.79942634770E+02 -0.75242474636E+03  0.75680387830E+03  0.47000000000E+01 0. -1.
        -13    1    4    4    0    0  0.17506824501E+02 -0.29307139589E+01 -0.31228499863E+03  0.31278906368E+03  0.00000000000E+00 0.  1.
         14    1    4    4    0    0 -0.58079367280E+02  0.40760814879E+02 -0.42230802328E+03  0.42822742026E+03  0.00000000000E+00 0. -1.
         -5    1    5    5    0  502  0.63208870149E+02 -0.25169761964E+02  0.31056116813E+02  0.74936310120E+02  0.47000000000E+01 0.  1.
         11    1    6    6    0    0  0.93366248815E+01  0.47876818122E+01 -0.20475624165E+02  0.23007512822E+02  0.00000000000E+00 0. -1.
        -12    1    6    6    0    0 -0.45979965657E+02  0.62494614001E+02  0.48497956067E+02  0.91497463154E+02  0.00000000000E+00 0.  1.
<mgrwt>
<rscale>  2 0.17988672E+03</rscale>
<asrwt>0</asrwt>
<pdfrwt beam="1">  1       21 0.19947872E-01 0.17999372E+03</pdfrwt>
<pdfrwt beam="2">  1       21 0.23963084E+00 0.17999372E+03</pdfrwt>
<totfact> 0.18028210E+03</totfact>
</mgrwt>
</event>
<event>
12    1  0.1050690E-001  0.2309262E+03  0.7546771E-02  0.1126041E+00
         21   -1    0    0  503  502  0.00000000000E+00  0.00000000000E+00  0.22912813804E+03  0.22912813804E+03  0.00000000000E+00 0. -1.
         21   -1    0    0  501  503 -0.00000000000E+00 -0.00000000000E+00 -0.25533811033E+03  0.25533811033E+03  0.00000000000E+00 0.  1.
          6    2    1    2  501    0 -0.14282938121E+03  0.53556327017E+02  0.59437148537E+02  0.23816899893E+03  0.17298319318E+03 0.  0.
         24    2    3    3    0    0 -0.15993066812E+03  0.25473004000E+02  0.13228872249E+02  0.18126186542E+03  0.80337838265E+02 0.  0.
         -6    2    1    2    0  502  0.14282938121E+03 -0.53556327017E+02 -0.85647120823E+02  0.24629724944E+03  0.17337356626E+03 0.  0.
        -24    2    5    5    0    0  0.13116237536E+02 -0.47209142541E+02 -0.18006898202E+02  0.99794429983E+02  0.85052578129E+02 0.  0.
          5    1    3    3  501    0  0.17101286912E+02  0.28083323018E+02  0.46208276288E+02  0.56907133501E+02  0.47000000000E+01 0. -1.
        -13    1    4    4    0    0 -0.34786703273E+02  0.12966169529E+02 -0.30564778142E+02  0.48087856468E+02  0.00000000000E+00 0.  1.
         14    1    4    4    0    0 -0.12514396485E+03  0.12506834471E+02  0.43793650391E+02  0.13317400896E+03  0.00000000000E+00 0. -1.
         -5    1    5    5    0  502  0.12971314367E+03 -0.63471844766E+01 -0.67640222621E+02  0.14650281946E+03  0.47000000000E+01 0.  1.
         13    1    6    6    0    0  0.16800695126E+02  0.20549021841E+02 -0.17758489980E+02  0.31935710759E+02  0.00000000000E+00 0. -1.
        -14    1    6    6    0    0 -0.36844575899E+01 -0.67758164381E+02 -0.24840822181E+00  0.67858719224E+02  0.00000000000E+00 0.  1.
<mgrwt>
<rscale>  2 0.23085292E+03</rscale>
<asrwt>0</asrwt>
<pdfrwt beam="1">  1       21 0.35250483E-01 0.23092619E+03</pdfrwt>
<pdfrwt beam="2">  1       21 0.39282786E-01 0.23092619E+03</pdfrwt>
<totfact> 0.47612470E+04</totfact>
</mgrwt>
</event>
<event>
12    1  0.1050690E-001  0.2243712E+03  0.7546771E-02  0.1130688E+00
         21   -1    0    0  503  502  0.00000000000E+00  0.00000000000E+00  0.36018775964E+03  0.36018775964E+03  0.00000000000E+00 0. -1.
         21   -1    0    0  501  503 -0.00000000000E+00 -0.00000000000E+00 -0.14185794694E+03  0.14185794694E+03  0.00000000000E+00 0. -1.
          6    2    1    2  501    0  0.13107610778E+03 -0.55582722173E+02  0.78110340674E+02  0.23746311505E+03  0.17325449678E+03 0.  0.
         24    2    3    3    0    0  0.89768088108E+02  0.19266912444E+02  0.89952782400E+02  0.15102727921E+03  0.79298249958E+02 0.  0.
         -6    2    1    2    0  502 -0.13107610778E+03  0.55582722173E+02  0.14021947203E+03  0.26458259153E+03  0.17341298213E+03 0.  0.
        -24    2    5    5    0    0 -0.14191240702E+03  0.35998206061E+01  0.69151093230E+02  0.17574311888E+03  0.77147133222E+02 0.  0.
          5    1    3    3  501    0  0.41308019673E+02 -0.74849634617E+02 -0.11842441726E+02  0.86435835842E+02  0.47000000000E+01 0. -1.
        -11    1    4    4    0    0  0.91794034555E+01 -0.10026061273E+02  0.57917092545E+02  0.59490948566E+02  0.00000000000E+00 0.  1.
         12    1    4    4    0    0  0.80588684653E+02  0.29292973717E+02  0.32035689855E+02  0.91536330644E+02  0.00000000000E+00 0. -1.
         -5    1    5    5    0  502  0.10836299235E+02  0.51982901567E+02  0.71068378797E+02  0.88839472653E+02  0.47000000000E+01 0.  1.
         11    1    6    6    0    0 -0.87241255811E+02 -0.30429652661E+02  0.61272488725E+02  0.11086621826E+03  0.00000000000E+00 0. -1.
        -12    1    6    6    0    0 -0.54671151205E+02  0.34029473267E+02  0.78786045050E+01  0.64876900618E+02  0.00000000000E+00 0.  1.
<mgrwt>
<rscale>  2 0.22434060E+03</rscale>
<asrwt>0</asrwt>
<pdfrwt beam="1">  1       21 0.55413501E-01 0.22437123E+03</pdfrwt>
<pdfrwt beam="2">  1       21 0.21824300E-01 0.22437123E+03</pdfrwt>
<totfact> 0.59308784E+04</totfact>
</mgrwt>
</event>
<event>
12    1  0.1050690E-001  0.1993829E+03  0.7546771E-02  0.1150837E+00
         21   -1    0    0  503  502  0.00000000000E+00  0.00000000000E+00  0.20580479901E+03  0.20580479901E+03  0.00000000000E+00 0. -1.
         21   -1    0    0  501  503 -0.00000000000E+00 -0.00000000000E+00 -0.25221656281E+03  0.25221656281E+03  0.00000000000E+00 0. -1.
          6    2    1    2  501    0  0.17657544433E+02 -0.93983567848E+02 -0.13655791862E+03  0.24166423483E+03  0.17495381492E+03 0.  0.
         24    2    3    3    0    0 -0.83366350182E+01  0.28032688122E+01 -0.13131799274E+02  0.82606113204E+02  0.81080009787E+02 0.  0.
         -6    2    1    2    0  502 -0.17657544433E+02  0.93983567848E+02  0.90146154826E+02  0.21635712700E+03  0.17187023382E+03 0.  0.
        -24    2    5    5    0    0  0.45316090444E+02  0.88643747108E+02  0.32839778668E+02  0.13091531567E+03  0.78416241045E+02 0.  0.
          5    1    3    3  501    0  0.25994179451E+02 -0.96786836660E+02 -0.12342611935E+03  0.15905812162E+03  0.47000000000E+01 0. -1.
        -13    1    4    4    0    0  0.29011006175E+02 -0.21015507558E+02  0.17794402510E+01  0.35867205701E+02  0.00000000000E+00 0.  1.
         14    1    4    4    0    0 -0.37347641193E+02  0.23818776370E+02 -0.14911239525E+02  0.46738907503E+02  0.00000000000E+00 0. -1.
         -5    1    5    5    0  502 -0.62973634877E+02  0.53398207400E+01  0.57306376158E+02  0.85441811331E+02  0.47000000000E+01 0.  1.
         13    1    6    6    0    0  0.16787546441E+02 -0.12814116547E+02  0.26549799295E+01  0.21285493107E+02  0.00000000000E+00 0. -1.
        -14    1    6    6    0    0  0.28528544004E+02  0.10145786365E+03  0.30184798738E+02  0.10962982256E+03  0.00000000000E+00 0.  1.
<mgrwt>
<rscale>  2 0.19870438E+03</rscale>
<asrwt>0</asrwt>
<pdfrwt beam="1">  1       21 0.31662277E-01 0.19938289E+03</pdfrwt>
<pdfrwt beam="2">  1       21 0.38802548E-01 0.19938289E+03</pdfrwt>
<totfact> 0.61223783E+04</totfact>
</mgrwt>
</event>
<event>
12    1  0.1050690E-001  0.1896661E+03  0.7546771E-02  0.1158881E+00
         21   -1    0    0  501  502  0.00000000000E+00  0.00000000000E+00  0.12196161318E+03  0.12196161318E+03  0.00000000000E+00 0. -1.
         21   -1    0    0  502  503 -0.00000000000E+00 -0.00000000000E+00 -0.68423007820E+03  0.68423007820E+03  0.00000000000E+00 0. -1.
         -6    2    1    2    0  503 -0.22192880838E+01 -0.78384394181E+02 -0.58532722979E+03  0.61512901512E+03  0.17212408553E+03 0.  0.
        -24    2    3    3    0    0  0.34731631750E+02 -0.19027847840E+02 -0.18165499242E+03  0.20541944080E+03  0.87351388933E+02 0.  0.
          6    2    1    2  501    0  0.22192880838E+01  0.78384394181E+02  0.23058764769E+02  0.19106267626E+03  0.17269684750E+03 0.  0.
         24    2    5    5    0    0  0.39841477150E+02 -0.98360833703E+01  0.29341720242E+02  0.94834575902E+02  0.80302978788E+02 0.  0.
          5    1    5    5  501    0 -0.37622189066E+02  0.88220477552E+02 -0.62829554732E+01  0.96228100361E+02  0.47000000000E+01 0. -1.
        -11    1    6    6    0    0 -0.61198649932E+01 -0.26427225846E+02 -0.13088917980E+02  0.30119276009E+02  0.00000000000E+00 0.  1.
         12    1    6    6    0    0  0.45961342143E+02  0.16591142475E+02  0.42430638222E+02  0.64715299892E+02  0.00000000000E+00 0. -1.
         -5    1    3    3    0  503 -0.36950919834E+02 -0.59356546341E+02 -0.40367223737E+03  0.40970957432E+03  0.47000000000E+01 0.  1.
         11    1    4    4    0    0  0.28252826364E+02  0.23960940678E+02 -0.14139301069E+03  0.14616542802E+03  0.00000000000E+00 0. -1.
        -12    1    4    4    0    0  0.64788053856E+01 -0.42988788518E+02 -0.40261981729E+02  0.59254012777E+02  0.00000000000E+00 0.  1.
<mgrwt>
<rscale>  2 0.18953565E+03</rscale>
<asrwt>0</asrwt>
<pdfrwt beam="1">  1       21 0.18763325E-01 0.18966613E+03</pdfrwt>
<pdfrwt beam="2">  1       21 0.10526617E+00 0.18966613E+03</pdfrwt>
<totfact> 0.18914044E+04</totfact>
</mgrwt>
</event>
<event>
12    1  0.1050690E-001  0.2556903E+03  0.7546771E-02  0.1109779E+00
         21   -1    0    0  503  502  0.00000000000E+00  0.00000000000E+00  0.23428328693E+04  0.23428328693E+04  0.00000000000E+00 0. -1.
         21   -1    0    0  501  503 -0.00000000000E+00 -0.00000000000E+00 -0.68179217603E+02  0.68179217603E+02  0.00000000000E+00 0. -1.
          6    2    1    2  501    0 -0.15237650651E+03 -0.10959187856E+03  0.20638883746E+04  0.20796519782E+04  0.17345935564E+03 0.  0.
         24    2    3    3    0    0 -0.40993018453E+02  0.43830190084E+01  0.54142938114E+03  0.54886785382E+03  0.80065646710E+02 0.  0.
         -6    2    1    2    0  502  0.15237650651E+03  0.10959187856E+03  0.21076527714E+03  0.33136010874E+03  0.17363334943E+03 0.  0.
        -24    2    5    5    0    0  0.93851117759E+02  0.13512333149E+03  0.12188749545E+03  0.22182278042E+03  0.85337197916E+02 0.  0.
          5    1    3    3  501    0 -0.11138348806E+03 -0.11397489757E+03  0.15224589934E+04  0.15307841243E+04  0.47000000000E+01 0. -1.
        -11    1    4    4    0    0 -0.63302677776E+02  0.10111382595E+02  0.32851279225E+03  0.33470901354E+03  0.00000000000E+00 0.  1.
         12    1    4    4    0    0  0.22309659323E+02 -0.57283635865E+01  0.21291658889E+03  0.21415884028E+03  0.00000000000E+00 0. -1.
         -5    1    5    5    0  502  0.58525388756E+02 -0.25531452931E+02  0.88877781691E+02  0.10953732832E+03  0.47000000000E+01 0.  1.
         13    1    6    6    0    0 -0.12059990556E+02  0.21284824314E+02  0.34254694261E+00  0.24466394436E+02  0.00000000000E+00 0. -1.
        -14    1    6    6    0    0  0.10591110831E+03  0.11383850718E+03  0.12154494851E+03  0.19735638598E+03  0.00000000000E+00 0.  1.
<mgrwt>
<rscale>  2 0.25566074E+03</rscale>
<asrwt>0</asrwt>
<pdfrwt beam="1">  1       21 0.36043576E+00 0.25569028E+03</pdfrwt>
<pdfrwt beam="2">  1       21 0.10489112E-01 0.25569028E+03</pdfrwt>
<totfact> 0.10435424E+03</totfact>
</mgrwt>
</event>
<event>
12    1  0.1050690E-001  0.2366332E+03  0.7546771E-02  0.1122351E+00
         21   -1    0    0  501  502  0.00000000000E+00  0.00000000000E+00  0.11062817055E+03  0.11062817055E+03  0.00000000000E+00 0.  1.
         21   -1    0    0  502  503 -0.00000000000E+00 -0.00000000000E+00 -0.85840657130E+03  0.85840657130E+03  0.00000000000E+00 0. -1.
         -6    2    1    2    0  503  0.40564758268E+02 -0.15612594327E+03 -0.68508497241E+03  0.72423738415E+03  0.17075584734E+03 0.  0.
        -24    2    3    3    0    0 -0.42569074703E+02 -0.81030385384E+02 -0.35447120782E+03  0.37512690259E+03  0.81806518047E+02 0.  0.
          6    2    1    2  501    0 -0.40564758268E+02  0.15612594327E+03 -0.62693428339E+02  0.24479735770E+03  0.17313136805E+03 0.  0.
         24    2    5    5    0    0  0.26132210658E+01  0.64371745336E+02  0.26874490805E+02  0.10941762185E+03  0.84258098681E+02 0.  0.
          5    1    5    5  501    0 -0.43177979334E+02  0.91754197935E+02 -0.89567919144E+02  0.13537973585E+03  0.47000000000E+01 0. -1.
        -11    1    6    6    0    0  0.24504451752E+02  0.74614427551E+02  0.83734332187E+01  0.78980347798E+02  0.00000000000E+00 0.  1.
         12    1    6    6    0    0 -0.21891230686E+02 -0.10242682215E+02  0.18501057587E+02  0.30437274052E+02  0.00000000000E+00 0. -1.
         -5    1    3    3    0  503  0.83133832971E+02 -0.75095557887E+02 -0.33061376459E+03  0.34911048156E+03  0.47000000000E+01 0.  1.
         11    1    4    4    0    0  0.73851234391E+01 -0.53685204938E+02 -0.93991304842E+02  0.10849427019E+03  0.00000000000E+00 0. -1.
        -12    1    4    4    0    0 -0.49954198142E+02 -0.27345180446E+02 -0.26047990298E+03  0.26663263240E+03  0.00000000000E+00 0.  1.
<mgrwt>
<rscale>  2 0.23619891E+03</rscale>
<asrwt>0</asrwt>
<pdfrwt beam="1">  1       21 0.17019719E-01 0.23663322E+03</pdfrwt>
<pdfrwt beam="2">  1       21 0.13206255E+00 0.23663322E+03</pdfrwt>
<totfact> 0.12561536E+04</totfact>
</mgrwt>
</event>
<event>
12    1  0.1050690E-001  0.2083607E+03  0.7546771E-02  0.1143321E+00
         21   -1    0    0  501  502  0.00000000000E+00  0.00000000000E+00  0.80142375974E+03  0.80142375974E+03  0.00000000000E+00 0. -1.
         21   -1    0    0  502  503 -0.00000000000E+00 -0.00000000000E+00 -0.91471759438E+02  0.91471759438E+02  0.00000000000E+00 0. -1.
         -6    2    1    2    0  503 -0.29704000671E+02 -0.11077461603E+03  0.68800655845E+02  0.21942589970E+03  0.17395646582E+03 0.  0.
        -24    2    3    3    0    0  0.29504722856E+02 -0.10196905440E+02  0.59226770248E+02  0.10222821160E+03  0.77254717542E+02 0.  0.
          6    2    1    2  501    0  0.29704000671E+02  0.11077461603E+03  0.64115134446E+03  0.67346961948E+03  0.17126861547E+03 0.  0.
         24    2    5    5    0    0  0.55146953988E+02  0.62600237080E+02  0.57950461636E+03  0.59106498522E+03  0.81069354029E+02 0.  0.
          5    1    5    5  501    0 -0.25442953318E+02  0.48174378952E+02  0.61646728103E+02  0.82404634255E+02  0.47000000000E+01 0. -1.
        -11    1    6    6    0    0 -0.12111578414E+02 -0.87087795575E+01  0.39241754695E+02  0.41981525515E+02  0.00000000000E+00 0.  1.
         12    1    6    6    0    0  0.67258532402E+02  0.71309016638E+02  0.54026286166E+03  0.54908345971E+03  0.00000000000E+00 0. -1.
         -5    1    3    3    0  503 -0.59208723527E+02 -0.10057771059E+03  0.95738855971E+01  0.11719768810E+03  0.47000000000E+01 0.  1.
         11    1    4    4    0    0  0.21949462007E+02 -0.41859489424E+02  0.49064614712E+02  0.68127323109E+02  0.00000000000E+00 0. -1.
        -12    1    4    4    0    0  0.75552608494E+01  0.31662583984E+02  0.10162155535E+02  0.34100888495E+02  0.00000000000E+00 0.  1.
<mgrwt>
<rscale>  2 0.20779878E+03</rscale>
<asrwt>0</asrwt>
<pdfrwt beam="1">  1       21 0.12329596E+00 0.20836073E+03</pdfrwt>
<pdfrwt beam="2">  1       21 0.14072579E-01 0.20836073E+03</pdfrwt>
<totfact> 0.21532707E+04</totfact>
</mgrwt>
</event>
<event>
12    1  0.1050690E-001  0.2301352E+03  0.7546771E-02  0.1126769E+00
         21   -1    0    0  501  502  0.00000000000E+00  0.00000000000E+00  0.10785353540E+03  0.10785353540E+03  0.00000000000E+00 0.  1.
         21   -1    0    0  502  503 -0.00000000000E+00 -0.00000000000E+00 -0.65093403254E+03  0.65093403254E+03  0.00000000000E+00 0. -1.
         -6    2    1    2    0  503 -0.13944727609E+03 -0.55513629247E+02 -0.46058532373E+03  0.51431328967E+03  0.17277735282E+03 0.  0.
        -24    2    3    3    0    0 -0.10555609785E+03  0.55762494554E+01 -0.39995711535E+03  0.42169334098E+03  0.81770381906E+02 0.  0.
          6    2    1    2  501    0  0.13944727609E+03  0.55513629247E+02 -0.82495173410E+02  0.24447427828E+03  0.17445604966E+03 0.  0.
         24    2    5    5    0    0  0.31996151932E+02 -0.25608219288E+02 -0.55557268919E+01  0.89334770663E+02  0.79185229144E+02 0.  0.
          5    1    5    5  501    0  0.10745112415E+03  0.81121848536E+02 -0.76939446518E+02  0.15513950761E+03  0.47000000000E+01 0. -1.
        -13    1    6    6    0    0  0.36209325186E+02 -0.96088673974E-01 -0.34853463804E+02  0.50258217264E+02  0.00000000000E+00 0.  1.
         14    1    6    6    0    0 -0.42131732539E+01 -0.25512130614E+02  0.29297736912E+02  0.39076553399E+02  0.00000000000E+00 0. -1.
         -5    1    3    3    0  503 -0.33891178240E+02 -0.61089878703E+02 -0.60628208380E+02  0.92619948682E+02  0.47000000000E+01 0.  1.
         13    1    4    4    0    0 -0.60200808184E+01 -0.18872908390E+02 -0.15350505604E+03  0.15477800320E+03  0.00000000000E+00 0. -1.
        -14    1    4    4    0    0 -0.99536017027E+02  0.24449157845E+02 -0.24645205932E+03  0.26691533779E+03  0.00000000000E+00 0.  1.
<mgrwt>
<rscale>  2 0.22981708E+03</rscale>
<asrwt>0</asrwt>
<pdfrwt beam="1">  1       21 0.16592852E-01 0.23013522E+03</pdfrwt>
<pdfrwt beam="2">  1       21 0.10014369E+00 0.23013522E+03</pdfrwt>
<totfact> 0.26132936E+04</totfact>
</mgrwt>
</event>
<event>
12    1  0.1050690E-001  0.2565799E+03  0.7546771E-02  0.1109285E+00
         21   -1    0    0  503  502  0.00000000000E+00  0.00000000000E+00  0.65229743186E+03  0.65229743186E+03  0.00000000000E+00 0. -1.
         21   -1    0    0  501  503 -0.00000000000E+00 -0.00000000000E+00 -0.18465178045E+03  0.18465178045E+03  0.00000000000E+00 0.  1.
          6    2    1    2  501    0  0.13064568012E+02 -0.18937648663E+03 -0.48377845864E+02  0.26065630884E+03  0.17195103588E+03 0.  0.
         24    2    3    3    0    0 -0.42117457919E+02 -0.11655615587E+03  0.15800004125E+02  0.14890326420E+03  0.81014345800E+02 0.  0.
         -6    2    1    2    0  502 -0.13064568012E+02  0.18937648663E+03  0.51602349728E+03  0.57629290346E+03  0.17262422835E+03 0.  0.
        -24    2    5    5    0    0 -0.17523023185E+02  0.25214391077E+02  0.23957929984E+03  0.25471467700E+03  0.80861015995E+02 0.  0.
          5    1    3    3  501    0  0.55182025930E+02 -0.72820330758E+02 -0.64177849989E+02  0.11175304464E+03  0.47000000000E+01 0. -1.
        -13    1    4    4    0    0 -0.13855948690E+01 -0.16670341893E+02 -0.27888435769E+02  0.32520532308E+02  0.00000000000E+00 0.  1.
         14    1    4    4    0    0 -0.40731863050E+02 -0.99885813981E+02  0.43688439894E+02  0.11638273189E+03  0.00000000000E+00 0. -1.
         -5    1    5    5    0  502  0.44584551730E+01  0.16416209555E+03  0.27644419743E+03  0.32157822646E+03  0.47000000000E+01 0.  1.
         11    1    6    6    0    0  0.28978580199E+02  0.17469535951E+01  0.47242801549E+02  0.55449907623E+02  0.00000000000E+00 0. -1.
        -12    1    6    6    0    0 -0.46501603384E+02  0.23467437482E+02  0.19233649829E+03  0.19926476938E+03  0.00000000000E+00 0.  1.
<mgrwt>
<rscale>  2 0.25646675E+03</rscale>
<asrwt>0</asrwt>
<pdfrwt beam="1">  1       21 0.10035345E+00 0.25657993E+03</pdfrwt>
<pdfrwt beam="2">  1       21 0.28407967E-01 0.25657993E+03</pdfrwt>
<totfact> 0.92599157E+03</totfact>
</mgrwt>
</event>
<event>
12    1  0.1050690E-001  0.2630690E+03  0.7546771E-02  0.1105333E+00
         21   -1    0    0  503  502  0.00000000000E+00  0.00000000000E+00  0.11008405785E+04  0.11008405785E+04  0.00000000000E+00 0. -1.
         21   -1    0    0  501  503 -0.00000000000E+00 -0.00000000000E+00 -0.67307128364E+02  0.67307128364E+02  0.00000000000E+00 0.  1.
          6    2    1    2  501    0 -0.18641954737E+03 -0.66524800802E+02  0.36630830684E+03  0.45098455533E+03  0.17328443880E+03 0.  0.
         24    2    3    3    0    0 -0.12144548396E+03 -0.17037436296E+02  0.11501888574E+03  0.18671368801E+03  0.81199614548E+02 0.  0.
         -6    2    1    2    0  502  0.18641954737E+03  0.66524800802E+02  0.66722514326E+03  0.71716315149E+03  0.17307743151E+03 0.  0.
        -24    2    5    5    0    0  0.17322350173E+03  0.34093775244E+02  0.64919817159E+03  0.67750248147E+03  0.79891046673E+02 0.  0.
          5    1    3    3  501    0 -0.64974063407E+02 -0.49487364507E+02  0.25128942110E+03  0.26427086733E+03  0.47000000000E+01 0. -1.
        -13    1    4    4    0    0 -0.72563288606E+02 -0.48858763346E+02  0.56791483861E+02  0.10429708648E+03  0.00000000000E+00 0.  1.
         14    1    4    4    0    0 -0.48882195354E+02  0.31821327050E+02  0.58227401880E+02  0.82416601529E+02  0.00000000000E+00 0. -1.
         -5    1    5    5    0  502  0.13196045640E+02  0.32431025558E+02  0.18026971672E+02  0.39660670027E+02  0.47000000000E+01 0.  1.
         11    1    6    6    0    0  0.53061489197E+01  0.24354697147E+02  0.10417128897E+03  0.10711192247E+03  0.00000000000E+00 0. -1.
        -12    1    6    6    0    0  0.16791735281E+03  0.97390780977E+01  0.54502688262E+03  0.57039055899E+03  0.00000000000E+00 0.  1.
<mgrwt>
<rscale>  2 0.26303491E+03</rscale>
<asrwt>0</asrwt>
<pdfrwt beam="1">  1       21 0.16936008E+00 0.26306899E+03</pdfrwt>
<pdfrwt beam="2">  1       21 0.10354944E-01 0.26306899E+03</pdfrwt>
<totfact> 0.15719402E+04</totfact>
</mgrwt>
</event>
<event>
12    1  0.1050690E-001  0.1845956E+03  0.7546771E-02  0.1163514E+00
         21   -1    0    0  503  502  0.00000000000E+00  0.00000000000E+00  0.31522895707E+03  0.31522895707E+03  0.00000000000E+00 0.  1.
         21   -1    0    0  501  503 -0.00000000000E+00 -0.00000000000E+00 -0.11206395053E+03  0.11206395053E+03  0.00000000000E+00 0. -1.
          6    2    1    2  501    0 -0.51890561578E+02 -0.36029659459E+02  0.60409478110E+02  0.19422888137E+03  0.17344966581E+03 0.  0.
         24    2    3    3    0    0 -0.11105838822E+02  0.18122603127E+02  0.88744388853E+02  0.12060267462E+03  0.78852204610E+02 0.  0.
         -6    2    1    2    0  502  0.51890561578E+02  0.36029659459E+02  0.14275552842E+03  0.23306402624E+03  0.17305759934E+03 0.  0.
        -24    2    5    5    0    0  0.17173214108E+02  0.58027222109E+02  0.20660908655E+02  0.10415175702E+03  0.82210933309E+02 0.  0.
          5    1    3    3  501    0 -0.40784722756E+02 -0.54152262586E+02 -0.28334910743E+02  0.73626206749E+02  0.47000000000E+01 0. -1.
        -13    1    4    4    0    0  0.61651253872E+01 -0.26440614430E+02  0.57262138615E+02  0.63372449702E+02  0.00000000000E+00 0.  1.
         14    1    4    4    0    0 -0.17270964210E+02  0.44563217557E+02  0.31482250238E+02  0.57230224915E+02  0.00000000000E+00 0. -1.
         -5    1    5    5    0  502  0.34717347470E+02 -0.21997562650E+02  0.12209461977E+03  0.12891226922E+03  0.47000000000E+01 0.  1.
         11    1    6    6    0    0  0.46882174883E+02  0.32610152460E+02  0.29187604499E+02  0.64134831578E+02  0.00000000000E+00 0. -1.
        -12    1    6    6    0    0 -0.29708960775E+02  0.25417069649E+02 -0.85266958442E+01  0.40016925443E+02  0.00000000000E+00 0.  1.
<mgrwt>
<rscale>  2 0.18450349E+03</rscale>
<asrwt>0</asrwt>
<pdfrwt beam="1">  1       21 0.48496762E-01 0.18459565E+03</pdfrwt>
<pdfrwt beam="2">  1       21 0.17240608E-01 0.18459565E+03</pdfrwt>
<totfact> 0.12378030E+05</totfact>
</mgrwt>
</event>
<event>
12    1  0.1050690E-001  0.1879227E+03  0.7546771E-02  0.1160479E+00
         21   -1    0    0  501  502  0.00000000000E+00  0.00000000000E+00  0.44350421057E+02  0.44350421057E+02  0.00000000000E+00 0. -1.
         21   -1    0    0  502  503 -0.00000000000E+00 -0.00000000000E+00 -0.18497483586E+04  0.18497483586E+04  0.00000000000E+00 0. -1.
         -6    2    1    2    0  503  0.69581376352E+02 -0.18635943943E+02 -0.16176363550E+04  0.16284498587E+04  0.17295288085E+03 0.  0.
        -24    2    3    3    0    0  0.94610319192E+02  0.21611374867E+02 -0.77525425809E+03  0.78472242533E+03  0.73157064674E+02 0.  0.
          6    2    1    2  501    0 -0.69581376352E+02  0.18635943943E+02 -0.18776158260E+03  0.26564892100E+03  0.17356863480E+03 0.  0.
         24    2    5    5    0    0 -0.11121496539E+03  0.34256130908E+02 -0.15761614562E+03  0.21172134598E+03  0.80254769029E+02 0.  0.
          5    1    5    5  501    0  0.41633589036E+02 -0.15620186965E+02 -0.30145436985E+02  0.53927575023E+02  0.47000000000E+01 0. -1.
        -11    1    6    6    0    0 -0.38723338612E+02  0.45994954029E+02 -0.10632194184E+03  0.12214494695E+03  0.00000000000E+00 0.  1.
         12    1    6    6    0    0 -0.72491626776E+02 -0.11738823121E+02 -0.51294203776E+02  0.89576399023E+02  0.00000000000E+00 0. -1.
         -5    1    3    3    0  503 -0.25028942840E+02 -0.40247318809E+02 -0.84238209687E+03  0.84372743335E+03  0.47000000000E+01 0.  1.
         13    1    4    4    0    0  0.55471542459E+02  0.17996859549E+02 -0.66715703193E+03  0.66970104093E+03  0.00000000000E+00 0. -1.
        -14    1    4    4    0    0  0.39138776733E+02  0.36145153177E+01 -0.10809722616E+03  0.11502138440E+03  0.00000000000E+00 0.  1.
<mgrwt>
<rscale>  2 0.18778039E+03</rscale>
<asrwt>0</asrwt>
<pdfrwt beam="1">  1       21 0.68231424E-02 0.18792269E+03</pdfrwt>
<pdfrwt beam="2">  1       21 0.28457664E+00 0.18792269E+03</pdfrwt>
<totfact> 0.66555912E+03</totfact>
</mgrwt>
</event>
<event>
12    1  0.1050690E-001  0.2851569E+03  0.7546771E-02  0.1093729E+00
         21   -1    0    0  501  502  0.00000000000E+00  0.00000000000E+00  0.82274591463E+03  0.82274591463E+03  0.00000000000E+00 0. -1.
         21   -1    0    0  502  503 -0.00000000000E+00 -0.00000000000E+00 -0.11834322562E+03  0.11834322562E+03  0.00000000000E+00 0.  1.
         -6    2    1    2    0  503 -0.69448880383E+02  0.21069369970E+03  0.15422692940E+03  0.32419193693E+03  0.17916328902E+03 0.  0.
        -24    2    3    3    0    0 -0.82199093024E+02  0.22994429388E+03  0.15521671583E+03  0.30060755702E+03  0.81496044561E+02 0.  0.
          6    2    1    2  501    0  0.69448880383E+02 -0.21069369970E+03  0.55017575961E+03  0.61689720333E+03  0.16927436585E+03 0.  0.
         24    2    5    5    0    0  0.87114559175E+01 -0.20125981436E+03  0.43291320619E+03  0.48441841500E+03  0.81645295976E+02 0.  0.
          5    1    5    5  501    0  0.60737424465E+02 -0.94338853376E+01  0.11726255342E+03  0.13247878833E+03  0.47000000000E+01 0. -1.
        -13    1    6    6    0    0  0.29415082671E+01 -0.96075260524E+02  0.11708960988E+03  0.15148955376E+03  0.00000000000E+00 0.  1.
         14    1    6    6    0    0  0.57699476503E+01 -0.10518455384E+03  0.31582359631E+03  0.33292886124E+03  0.00000000000E+00 0. -1.
         -5    1    3    3    0  503  0.12750212641E+02 -0.19250594178E+02 -0.98978642781E+00  0.23584379911E+02  0.47000000000E+01 0.  1.
         13    1    4    4    0    0 -0.42884957744E+02  0.19310896999E+03  0.14621631530E+03  0.24598659466E+03  0.00000000000E+00 0. -1.
        -14    1    4    4    0    0 -0.39314135280E+02  0.36835323885E+02  0.90004005273E+01  0.54620962351E+02  0.00000000000E+00 0.  1.
<mgrwt>
<rscale>  2 0.28361772E+03</rscale>
<asrwt>0</asrwt>
<pdfrwt beam="1">  1       21 0.12657629E+00 0.28515692E+03</pdfrwt>
<pdfrwt beam="2">  1       21 0.18206651E-01 0.28515692E+03</pdfrwt>
<totfact> 0.12027662E+04</totfact>
</mgrwt>
</event>
<event>
12    1  0.1050690E-001  0.1961269E+03  0.7546771E-02  0.1153093E+00
         21   -1    0    0  501  502  0.00000000000E+00  0.00000000000E+00  0.52516551375E+02  0.52516551375E+02  0.00000000000E+00 0. -1.
         21   -1    0    0  502  503 -0.00000000000E+00 -0.00000000000E+00 -0.74430751906E+03  0.74430751906E+03  0.00000000000E+00 0.  1.
         -6    2    1    2    0  503 -0.44756808273E+02 -0.81045039050E+02 -0.29381747215E+03  0.35314778276E+03  0.17266493358E+03 0.  0.
        -24    2    3    3    0    0  0.45736452591E+01 -0.87031534592E+02 -0.10684977501E+03  0.15963204297E+03  0.80436984514E+02 0.  0.
          6    2    1    2  501    0  0.44756808273E+02  0.81045039050E+02 -0.39797349554E+03  0.44367628767E+03  0.17289960918E+03 0.  0.
         24    2    5    5    0    0 -0.37916449876E+02  0.13534555191E+02 -0.15661293270E+03  0.17972639785E+03  0.78441864085E+02 0.  0.
          5    1    5    5  501    0  0.82673258149E+02  0.67510483859E+02 -0.24136056284E+03  0.26394988982E+03  0.47000000000E+01 0. -1.
        -13    1    6    6    0    0 -0.34889466343E+02 -0.88806482676E+01 -0.15255632113E+03  0.15674684014E+03  0.00000000000E+00 0.  1.
         14    1    6    6    0    0 -0.30269835335E+01  0.22415203459E+02 -0.40566115663E+01  0.22979557716E+02  0.00000000000E+00 0. -1.
         -5    1    3    3    0  503 -0.49330453532E+02  0.59864955415E+01 -0.18696769714E+03  0.19351573979E+03  0.47000000000E+01 0.  1.
         11    1    4    4    0    0 -0.32166077567E+02 -0.71852671631E+02 -0.74386017094E+02  0.10830855232E+03  0.00000000000E+00 0. -1.
        -12    1    4    4    0    0  0.36739722826E+02 -0.15178862960E+02 -0.32463757920E+02  0.51323490649E+02  0.00000000000E+00 0.  1.
<mgrwt>
<rscale>  2 0.19607513E+03</rscale>
<asrwt>0</asrwt>
<pdfrwt beam="1">  1       21 0.80794688E-02 0.19612686E+03</pdfrwt>
<pdfrwt beam="2">  1       21 0.11450886E+00 0.19612686E+03</pdfrwt>
<totfact> 0.69760297E+04</totfact>
</mgrwt>
</event>
<event>
12    1  0.1050690E-001  0.2180805E+03  0.7546771E-02  0.1135547E+00
         21   -1    0    0  501  502  0.00000000000E+00  0.00000000000E+00  0.30622391995E+03  0.30622391995E+03  0.00000000000E+00 0. -1.
         21   -1    0    0  502  503 -0.00000000000E+00 -0.00000000000E+00 -0.21667863129E+03  0.21667863129E+03  0.00000000000E+00 0. -1.
         -6    2    1    2    0  503 -0.52798852770E+02  0.12229463947E+03 -0.95237797283E+02  0.23796924846E+03  0.17267144374E+03 0.  0.
        -24    2    3    3    0    0 -0.65603311358E+02  0.13425018027E+03 -0.11895533882E+03  0.20811123627E+03  0.82662014648E+02 0.  0.
          6    2    1    2  501    0  0.52798852770E+02 -0.12229463947E+03  0.18478308595E+03  0.28493330279E+03  0.17116804750E+03 0.  0.
         24    2    5    5    0    0 -0.37710073878E+01 -0.90598415653E+01  0.11621913838E+03  0.14090075979E+03  0.79055896413E+02 0.  0.
          5    1    5    5  501    0  0.56569860158E+02 -0.11323479791E+03  0.68563947570E+02  0.14403254300E+03  0.47000000000E+01 0. -1.
        -13    1    6    6    0    0 -0.38566844100E+02 -0.16459214560E+02  0.78851614881E+02  0.89307806921E+02  0.00000000000E+00 0.  1.
         14    1    6    6    0    0  0.34795836712E+02  0.73993729950E+01  0.37367523497E+02  0.51592952867E+02  0.00000000000E+00 0. -1.
         -5    1    3    3    0  503  0.12804458587E+02 -0.11955540796E+02  0.23717541533E+02  0.29858012188E+02  0.47000000000E+01 0.  1.
         13    1    4    4    0    0 -0.57706751344E+02  0.53839981260E+02 -0.22057394006E+02  0.81947186426E+02  0.00000000000E+00 0. -1.
        -14    1    4    4    0    0 -0.78965600139E+01  0.80410199010E+02 -0.96897944811E+02  0.12616404985E+03  0.00000000000E+00 0.  1.
<mgrwt>
<rscale>  2 0.21778284E+03</rscale>
<asrwt>0</asrwt>
<pdfrwt beam="1">  1       21 0.47111372E-01 0.21808055E+03</pdfrwt>
<pdfrwt beam="2">  1       21 0.33335174E-01 0.21808055E+03</pdfrwt>
<totfact> 0.36881092E+04</totfact>
</mgrwt>
</event>
<event>
12    1  0.1050690E-001  0.2493541E+03  0.7546771E-02  0.1115235E+00
         21   -1    0    0  503  502  0.00000000000E+00  0.00000000000E+00  0.30986219967E+02  0.30986219967E+02  0.00000000000E+00 0.  1.
         21   -1    0    0  501  503 -0.00000000000E+00 -0.00000000000E+00 -0.20646592433E+04  0.20646592433E+04  0.00000000000E+00 0.  1.
          6    2    1    2  501    0 -0.13881319259E+03 -0.94154626651E+02 -0.13010288722E+04  0.13247088785E+04  0.18450823954E+03 0.  0.
         24    2    3    3    0    0 -0.31617623024E+02 -0.10846683795E+03 -0.82698141623E+03  0.83845913815E+03  0.79691496030E+02 0.  0.
         -6    2    1    2    0  502  0.13881319259E+03  0.94154626651E+02 -0.73264415119E+03  0.77093658477E+03  0.17158545774E+03 0.  0.
        -24    2    5    5    0    0  0.96414185708E+00  0.21536976367E+02 -0.28558552221E+03  0.29748205510E+03  0.80446949537E+02 0.  0.
          5    1    3    3  501    0 -0.10719556957E+03  0.14312211300E+02 -0.47404745593E+03  0.48624974036E+03  0.47000000000E+01 0. -1.
        -13    1    4    4    0    0 -0.18088191430E+02 -0.27980417985E+02 -0.51175683686E+03  0.51284027390E+03  0.00000000000E+00 0.  1.
         14    1    4    4    0    0 -0.13529431594E+02 -0.80486419965E+02 -0.31522457936E+03  0.32561886425E+03  0.00000000000E+00 0. -1.
         -5    1    5    5    0  502  0.13784905073E+03  0.72617650284E+02 -0.44705862898E+03  0.47345452967E+03  0.47000000000E+01 0.  1.
         13    1    6    6    0    0 -0.23934759044E+02 -0.14200500793E+02 -0.44444168715E+02  0.52438640772E+02  0.00000000000E+00 0. -1.
        -14    1    6    6    0    0  0.24898900901E+02  0.35737477160E+02 -0.24114135350E+03  0.24504341433E+03  0.00000000000E+00 0.  1.
<mgrwt>
<rscale>  2 0.24696898E+03</rscale>
<asrwt>0</asrwt>
<pdfrwt beam="1">  1       21 0.47671089E-02 0.24935414E+03</pdfrwt>
<pdfrwt beam="2">  1       21 0.31764001E+00 0.24935414E+03</pdfrwt>
<totfact> 0.74338799E+03</totfact>
</mgrwt>
</event>
<event>
12    1  0.1050690E-001  0.2598490E+03  0.7546771E-02  0.1107379E+00
         21   -1    0    0  503  502  0.00000000000E+00  0.00000000000E+00  0.33236531208E+03  0.33236531208E+03  0.00000000000E+00 0. -1.
         21   -1    0    0  501  503 -0.00000000000E+00 -0.00000000000E+00 -0.27844064621E+03  0.27844064621E+03  0.00000000000E+00 0. -1.
          6    2    1    2  501    0 -0.30081958379E+02  0.19064362806E+03 -0.13267166868E+03  0.29090021737E+03  0.17254346599E+03 0.  0.
         24    2    3    3    0    0  0.92599514750E+01  0.97376056335E+02 -0.15497729896E+01  0.12518459549E+03  0.78108502110E+02 0.  0.
         -6    2    1    2    0  502  0.30081958379E+02 -0.19064362806E+03  0.18659633456E+03  0.31990574091E+03  0.17398728074E+03 0.  0.
        -24    2    5    5    0    0  0.34854814198E+02 -0.47856390312E+02  0.13579151338E+03  0.16820143883E+03  0.79669923752E+02 0.  0.
          5    1    3    3  501    0 -0.39341909854E+02  0.93267571724E+02 -0.13112189569E+03  0.16571562189E+03  0.47000000000E+01 0. -1.
        -13    1    4    4    0    0 -0.19535593266E+02  0.57046681176E+00 -0.13100845972E+02  0.23528642158E+02  0.00000000000E+00 0.  1.
         14    1    4    4    0    0  0.28795544741E+02  0.96805589523E+02  0.11551072982E+02  0.10165595333E+03  0.00000000000E+00 0. -1.
         -5    1    5    5    0  502 -0.47728558198E+01 -0.14278723775E+03  0.50804821173E+02  0.15170430208E+03  0.47000000000E+01 0.  1.
         13    1    6    6    0    0 -0.19179037421E+02 -0.19411971073E+02  0.11290601906E+02  0.29531979086E+02  0.00000000000E+00 0. -1.
        -14    1    6    6    0    0  0.54033851620E+02 -0.28444419240E+02  0.12450091148E+03  0.13866945974E+03  0.00000000000E+00 0.  1.
<mgrwt>
<rscale>  2 0.25960751E+03</rscale>
<asrwt>0</asrwt>
<pdfrwt beam="1">  1       21 0.51133125E-01 0.25984898E+03</pdfrwt>
<pdfrwt beam="2">  1       21 0.42837023E-01 0.25984898E+03</pdfrwt>
<totfact> 0.18375714E+04</totfact>
</mgrwt>
</event>
<event>
12    1  0.1050690E-001  0.1833601E+03  0.7546771E-02  0.1164976E+00
         21   -1    0    0  503  502  0.00000000000E+00  0.00000000000E+00  0.96044433138E+02  0.96044433138E+02  0.00000000000E+00 0. -1.
         21   -1    0    0  501  503 -0.00000000000E+00 -0.00000000000E+00 -0.52398858392E+03  0.52398858392E+03  0.00000000000E+00 0. -1.
          6    2    1    2  501    0  0.51131799248E+02  0.28487801246E+02 -0.39479991746E+03  0.43530207751E+03  0.17376682119E+03 0.  0.
         24    2    3    3    0    0  0.67172643688E+02  0.57978061188E+02 -0.38000217835E+03  0.39831495537E+03  0.79871950534E+02 0.  0.
         -6    2    1    2    0  502 -0.51131799248E+02 -0.28487801246E+02 -0.33144233324E+02  0.18473093955E+03  0.17204930720E+03 0.  0.
        -24    2    5    5    0    0 -0.89322267215E+02  0.17602942663E+02 -0.25729572567E+02  0.12423353703E+03  0.80520989850E+02 0.  0.
          5    1    3    3  501    0 -0.16040844440E+02 -0.29490259941E+02 -0.14797739111E+02  0.36987122145E+02  0.47000000000E+01 0. -1.
        -11    1    4    4    0    0  0.54471691944E+02  0.13809873340E+01 -0.11806721703E+03  0.13003438040E+03  0.00000000000E+00 0.  1.
         12    1    4    4    0    0  0.12700951744E+02  0.56597073854E+02 -0.26193496132E+03  0.26828057497E+03  0.00000000000E+00 0. -1.
         -5    1    5    5    0  502  0.38190467967E+02 -0.46090743909E+02 -0.74146607569E+01  0.60497402521E+02  0.47000000000E+01 0.  1.
         11    1    6    6    0    0 -0.72896075837E+02  0.47660214474E+01  0.18481972133E+02  0.75353408197E+02  0.00000000000E+00 0. -1.
        -12    1    6    6    0    0 -0.16426191378E+02  0.12836921215E+02 -0.44211544700E+02  0.48880128828E+02  0.00000000000E+00 0.  1.
<mgrwt>
<rscale>  2 0.18295203E+03</rscale>
<asrwt>0</asrwt>
<pdfrwt beam="1">  1       21 0.14776067E-01 0.18336009E+03</pdfrwt>
<pdfrwt beam="2">  1       21 0.80613628E-01 0.18336009E+03</pdfrwt>
<totfact> 0.54738599E+04</totfact>
</mgrwt>
</event>
<event>
12    1  0.1050690E-001  0.1791953E+03  0.7546771E-02  0.1168634E+00
         21   -1    0    0  501  502  0.00000000000E+00  0.00000000000E+00  0.82327538632E+02  0.82327538632E+02  0.00000000000E+00 0.  1.
         21   -1    0    0  502  503 -0.00000000000E+00 -0.00000000000E+00 -0.55332401943E+03  0.55332401943E+03  0.00000000000E+00 0.  1.
         -6    2    1    2    0  503 -0.48900701185E+02  0.53817128639E+01 -0.40848125035E+03  0.44605818115E+03  0.17230997553E+03 0.  0.
        -24    2    3    3    0    0  0.87512282111E+01  0.31344158517E+01 -0.36434708455E+03  0.37326594325E+03  0.80574548170E+02 0.  0.
          6    2    1    2  501    0  0.48900701185E+02 -0.53817128639E+01 -0.62515230440E+02  0.18959337691E+03  0.17209663890E+03 0.  0.
         24    2    5    5    0    0 -0.42805819178E+02 -0.17068858967E+01 -0.25819948763E+02  0.90637710435E+02  0.75586197046E+02 0.  0.
          5    1    5    5  501    0  0.91706520362E+02 -0.36748269672E+01 -0.36695281677E+02  0.98955666475E+02  0.47000000000E+01 0. -1.
        -13    1    6    6    0    0 -0.25899949827E+02 -0.32314119426E+02  0.77886708887E+01  0.42138736449E+02  0.00000000000E+00 0.  1.
         14    1    6    6    0    0 -0.16905869351E+02  0.30607233529E+02 -0.33608619651E+02  0.48498973986E+02  0.00000000000E+00 0. -1.
         -5    1    3    3    0  503 -0.57651929396E+02  0.22472970123E+01 -0.44134165805E+02  0.72792237898E+02  0.47000000000E+01 0.  1.
         11    1    4    4    0    0  0.17929267398E+01 -0.25561401742E+02 -0.39524109806E+02  0.47103663353E+02  0.00000000000E+00 0. -1.
        -12    1    4    4    0    0  0.69583014713E+01  0.28695817593E+02 -0.32482297474E+03  0.32616227990E+03  0.00000000000E+00 0.  1.
<mgrwt>
<rscale>  2 0.17914403E+03</rscale>
<asrwt>0</asrwt>
<pdfrwt beam="1">  1       21 0.12665776E-01 0.17919534E+03</pdfrwt>
<pdfrwt beam="2">  1       21 0.85126769E-01 0.17919534E+03</pdfrwt>
<totfact> 0.64003141E+04</totfact>
</mgrwt>
</event>
<event>
12    1  0.1050690E-001  0.2123378E+03  0.7546771E-02  0.1140368E+00
         21   -1    0    0  501  502  0.00000000000E+00  0.00000000000E+00  0.26497266581E+03  0.26497266581E+03  0.00000000000E+00 0. -1.
         21   -1    0    0  502  503 -0.00000000000E+00 -0.00000000000E+00 -0.30361279219E+03  0.30361279219E+03  0.00000000000E+00 0. -1.
         -6    2    1    2    0  503  0.86831556204E+02  0.84410273257E+02 -0.20954290133E+03  0.29601421880E+03  0.17044464453E+03 0.  0.
        -24    2    3    3    0    0 -0.14607506788E+02  0.17323150903E+02 -0.11259331462E+03  0.14041255477E+03  0.80777225920E+02 0.  0.
          6    2    1    2  501    0 -0.86831556204E+02 -0.84410273257E+02  0.17090277495E+03  0.27257123920E+03  0.17442049355E+03 0.  0.
         24    2    5    5    0    0 -0.68477543002E+02 -0.83006770235E+02  0.19842310066E+03  0.23913027707E+03  0.78944694134E+02 0.  0.
          5    1    5    5  501    0 -0.18354013202E+02 -0.14035030220E+01 -0.27520325711E+02  0.33440962136E+02  0.47000000000E+01 0. -1.
        -11    1    6    6    0    0  0.36558231980E+01 -0.34353640209E+02  0.18303544024E+02  0.39096769210E+02  0.00000000000E+00 0.  1.
         12    1    6    6    0    0 -0.72133366200E+02 -0.48653130026E+02  0.18011955664E+03  0.20003350786E+03  0.00000000000E+00 0. -1.
         -5    1    3    3    0  503  0.10143906299E+03  0.67087122354E+02 -0.96949586706E+02  0.15560166403E+03  0.47000000000E+01 0.  1.
         13    1    4    4    0    0  0.46644429519E+01  0.44926847617E+02 -0.87339283316E+02  0.98327661799E+02  0.00000000000E+00 0. -1.
        -14    1    4    4    0    0 -0.19271949740E+02 -0.27603696714E+02 -0.25254031308E+02  0.42084892970E+02  0.00000000000E+00 0.  1.
<mgrwt>
<rscale>  2 0.21151964E+03</rscale>
<asrwt>0</asrwt>
<pdfrwt beam="1">  1       21 0.40765026E-01 0.21233775E+03</pdfrwt>
<pdfrwt beam="2">  1       21 0.46709660E-01 0.21233775E+03</pdfrwt>
<totfact> 0.25159156E+04</totfact>
</mgrwt>
</event>
<event>
12    1  0.1050690E-001  0.1912751E+03  0.7546771E-02  0.1157701E+00
         21   -1    0    0  503  502  0.00000000000E+00  0.00000000000E+00  0.22229981260E+03  0.22229981260E+03  0.00000000000E+00 0.  1.
         21   -1    0    0  501  503 -0.00000000000E+00 -0.00000000000E+00 -0.26109224209E+03  0.26109224209E+03  0.00000000000E+00 0.  1.
          6    2    1    2  501    0 -0.21519396502E+01 -0.75198832310E+02 -0.16740435481E+03  0.25289869244E+03  0.17399435452E+03 0.  0.
         24    2    3    3    0    0  0.15744784053E+02 -0.70880210689E+02 -0.19456156016E+03  0.21975435635E+03  0.71874014423E+02 0.  0.
         -6    2    1    2    0  502  0.21519396502E+01  0.75198832310E+02  0.12861192532E+03  0.23049336226E+03  0.17585979496E+03 0.  0.
        -24    2    5    5    0    0  0.35553141263E+02 -0.19806612497E+02  0.66020725768E+02  0.11182819014E+03  0.80563516101E+02 0.  0.
          5    1    3    3  501    0 -0.17896723703E+02 -0.43186216218E+01  0.27157205356E+02  0.33144336089E+02  0.47000000000E+01 0. -1.
        -13    1    4    4    0    0 -0.27713320055E+02 -0.15649775160E+02 -0.64194927594E+02  0.71651464045E+02  0.00000000000E+00 0.  1.
         14    1    4    4    0    0  0.43458104108E+02 -0.55230435529E+02 -0.13036663257E+03  0.14810289230E+03  0.00000000000E+00 0. -1.
         -5    1    5    5    0  502 -0.33401201613E+02  0.95005444807E+02  0.62591199553E+02  0.11866517212E+03  0.47000000000E+01 0.  1.
         13    1    6    6    0    0  0.21242744399E+02 -0.13083270223E+02  0.84151388233E+02  0.87771762492E+02  0.00000000000E+00 0. -1.
        -14    1    6    6    0    0  0.14310396864E+02 -0.67233422740E+01 -0.18130662465E+02  0.24056427647E+02  0.00000000000E+00 0.  1.
<mgrwt>
<rscale>  2 0.19084523E+03</rscale>
<asrwt>0</asrwt>
<pdfrwt beam="1">  1       21 0.34199971E-01 0.19127510E+03</pdfrwt>
<pdfrwt beam="2">  1       21 0.40168037E-01 0.19127510E+03</pdfrwt>
<totfact> 0.49239716E+04</totfact>
</mgrwt>
</event>
<event>
12    1  0.1050690E-001  0.2189615E+03  0.7546771E-02  0.1134725E+00
         21   -1    0    0  501  502  0.00000000000E+00  0.00000000000E+00  0.29911415654E+03  0.29911415654E+03  0.00000000000E+00 0. -1.
         21   -1    0    0  502  503 -0.00000000000E+00 -0.00000000000E+00 -0.25367193402E+03  0.25367193402E+03  0.00000000000E+00 0.  1.
         -6    2    1    2    0  503  0.12825255204E+03 -0.35649826933E+02 -0.14521864791E+03  0.26244884687E+03  0.17341082509E+03 0.  0.
        -24    2    3    3    0    0  0.85981327401E+02 -0.80406036980E+02 -0.14078395451E+03  0.20054786727E+03  0.80878957548E+02 0.  0.
          6    2    1    2  501    0 -0.12825255204E+03  0.35649826933E+02  0.19066087043E+03  0.29033724368E+03  0.17385200686E+03 0.  0.
         24    2    5    5    0    0 -0.22596744640E+02 -0.10902273936E+02  0.21724338929E+02  0.85662161150E+02  0.78972061551E+02 0.  0.
          5    1    5    5  501    0 -0.10565580740E+03  0.46552100869E+02  0.16893653150E+03  0.20467508253E+03  0.47000000000E+01 0. -1.
        -13    1    6    6    0    0 -0.44791644546E+02  0.10846780455E+02 -0.26591612876E+01  0.46162920252E+02  0.00000000000E+00 0.  1.
         14    1    6    6    0    0  0.22194899906E+02 -0.21749054391E+02  0.24383500216E+02  0.39499240898E+02  0.00000000000E+00 0. -1.
         -5    1    3    3    0  503  0.42271224639E+02  0.44756210047E+02 -0.44346933974E+01  0.61900979603E+02  0.47000000000E+01 0.  1.
         13    1    4    4    0    0  0.82534664797E+02 -0.80122007407E+02 -0.81051784782E+02  0.14071566644E+03  0.00000000000E+00 0. -1.
        -14    1    4    4    0    0  0.34466626033E+01 -0.28402957316E+00 -0.59732169732E+02  0.59832200835E+02  0.00000000000E+00 0.  1.
<mgrwt>
<rscale>  2 0.21887394E+03</rscale>
<asrwt>0</asrwt>
<pdfrwt beam="1">  1       21 0.46017562E-01 0.21896152E+03</pdfrwt>
<pdfrwt beam="2">  1       21 0.39026452E-01 0.21896152E+03</pdfrwt>
<totfact> 0.28243407E+04</totfact>
</mgrwt>
</event>
<event>
12    1  0.1050690E-001  0.1852589E+03  0.7546771E-02  0.1162983E+00
         21   -1    0    0  503  502  0.00000000000E+00  0.00000000000E+00  0.21057957631E+03  0.21057957631E+03  0.00000000000E+00 0.  1.
         21   -1    0    0  501  503 -0.00000000000E+00 -0.00000000000E+00 -0.16941077865E+03  0.16941077865E+03  0.00000000000E+00 0.  1.
          6    2    1    2  501    0 -0.16509404500E+02  0.64798276245E+02 -0.18307708577E+02  0.18541825780E+03  0.17196912830E+03 0.  0.
         24    2    3    3    0    0 -0.19141584632E+02 -0.28931960237E+02 -0.27003344087E+02  0.91131515992E+02  0.79826775143E+02 0.  0.
         -6    2    1    2    0  502  0.16509404500E+02 -0.64798276245E+02  0.59476506230E+02  0.19457209716E+03  0.17276998917E+03 0.  0.
        -24    2    5    5    0    0 -0.60084078832E+01 -0.10600292065E+03  0.23348572309E+02  0.13513984831E+03  0.80280150850E+02 0.  0.
          5    1    3    3  501    0  0.26321801326E+01  0.93730236482E+02  0.86956355094E+01  0.94286741805E+02  0.47000000000E+01 0. -1.
        -11    1    4    4    0    0 -0.40512315673E+02  0.10515242027E+02 -0.16938268269E+02  0.45152219968E+02  0.00000000000E+00 0.  1.
         12    1    4    4    0    0  0.21370731041E+02 -0.39447202264E+02 -0.10065075818E+02  0.45979296024E+02  0.00000000000E+00 0. -1.
         -5    1    5    5    0  502  0.22517812383E+02  0.41204644400E+02  0.36127933921E+02  0.59432248856E+02  0.47000000000E+01 0.  1.
         13    1    6    6    0    0 -0.31187136442E+02 -0.46685307371E+02 -0.17542178621E+02  0.58820773835E+02  0.00000000000E+00 0. -1.
        -14    1    6    6    0    0  0.25178728559E+02 -0.59317613274E+02  0.40890750930E+02  0.76319074470E+02  0.00000000000E+00 0.  1.
<mgrwt>
<rscale>  2 0.18507192E+03</rscale>
<asrwt>0</asrwt>
<pdfrwt beam="1">  1       21 0.32396858E-01 0.18525886E+03</pdfrwt>
<pdfrwt beam="2">  1       21 0.26063197E-01 0.18525886E+03</pdfrwt>
<totfact> 0.12854577E+05</totfact>
</mgrwt>
</event>
<event>
12    1  0.1050690E-001  0.2504979E+03  0.7546771E-02  0.1113710E+00
         21   -1    0    0  501  502  0.00000000000E+00  0.00000000000E+00  0.15874088937E+04  0.15874088937E+04  0.00000000000E+00 0. -1.
         21   -1    0    0  502  503 -0.00000000000E+00 -0.00000000000E+00 -0.67079662694E+02  0.67079662694E+02  0.00000000000E+00 0.  1.
         -6    2    1    2    0  503  0.74755362213E+02 -0.16037346955E+03  0.21922554992E+03  0.32949043896E+03  0.17086864461E+03 0.  0.
        -24    2    3    3    0    0  0.22778359364E+02 -0.65823172952E+02  0.32842587490E+02  0.11407905092E+03  0.84165613839E+02 0.  0.
          6    2    1    2  501    0 -0.74755362213E+02  0.16037346955E+03  0.13011036810E+04  0.13249981174E+04  0.17731668946E+03 0.  0.
         24    2    5    5    0    0  0.94923819938E+01  0.41351261624E+02  0.34412801790E+03  0.35696481309E+03  0.84851357862E+02 0.  0.
          5    1    5    5  501    0 -0.84247744207E+02  0.11902220793E+03  0.95697566315E+03  0.96803330430E+03  0.47000000000E+01 0. -1.
        -11    1    6    6    0    0 -0.24955282026E+02  0.92085848791E+01  0.25284186001E+03  0.25423723235E+03  0.00000000000E+00 0.  1.
         12    1    6    6    0    0  0.34447664020E+02  0.32142676745E+02  0.91286157884E+02  0.10272758075E+03  0.00000000000E+00 0. -1.
         -5    1    3    3    0  503  0.51977002849E+02 -0.94550296598E+02  0.18638296243E+03  0.21541138804E+03  0.47000000000E+01 0.  1.
         11    1    4    4    0    0  0.14880310921E+02 -0.73937793647E+02  0.52151169565E+02  0.91694958801E+02  0.00000000000E+00 0. -1.
        -12    1    4    4    0    0  0.78980484432E+01  0.81146206946E+01 -0.19308582075E+02  0.22384092119E+02  0.00000000000E+00 0.  1.
<mgrwt>
<rscale>  2 0.24935968E+03</rscale>
<asrwt>0</asrwt>
<pdfrwt beam="1">  1       21 0.24421672E+00 0.25049795E+03</pdfrwt>
<pdfrwt beam="2">  1       21 0.10319949E-01 0.25049795E+03</pdfrwt>
<totfact> 0.52389640E+03</totfact>
</mgrwt>
</event>
<event>
12    1  0.1050690E-001  0.1757452E+03  0.7546771E-02  0.1172042E+00
         21   -1    0    0  501  502  0.00000000000E+00  0.00000000000E+00  0.22928721832E+04  0.22928721832E+04  0.00000000000E+00 0. -1.
         21   -1    0    0  502  503 -0.00000000000E+00 -0.00000000000E+00 -0.14169543648E+02  0.14169543648E+02  0.00000000000E+00 0. -1.
         -6    2    1    2    0  503  0.19366374961E+02 -0.23917755929E+02  0.13993826399E+04  0.14103751854E+04  0.17302969439E+03 0.  0.
        -24    2    3    3    0    0  0.78508554586E+02 -0.68679678454E+01  0.77831138640E+03  0.78624372118E+03  0.78738889737E+02 0.  0.
          6    2    1    2  501    0 -0.19366374961E+02  0.23917755929E+02  0.87931999961E+03  0.89666654143E+03  0.17280077916E+03 0.  0.
         24    2    5    5    0    0 -0.54660157535E+02  0.10721839807E+02  0.28786448734E+03  0.30399336312E+03  0.80270237827E+02 0.  0.
          5    1    5    5  501    0  0.35293782574E+02  0.13195916122E+02  0.59145551227E+03  0.59267317831E+03  0.47000000000E+01 0. -1.
        -11    1    6    6    0    0 -0.88217702693E+00 -0.10748482075E+02  0.18981943253E+03  0.19012555080E+03  0.00000000000E+00 0.  1.
         12    1    6    6    0    0 -0.53777980508E+02  0.21470321882E+02  0.98045054810E+02  0.11386781232E+03  0.00000000000E+00 0. -1.
         -5    1    3    3    0  503 -0.59142179625E+02 -0.17049788083E+02  0.62107125353E+03  0.62413146423E+03  0.47000000000E+01 0.  1.
         13    1    4    4    0    0 -0.44272731825E+01  0.21319716902E+02  0.22374382502E+03  0.22480086812E+03  0.00000000000E+00 0. -1.
        -14    1    4    4    0    0  0.82935827768E+02 -0.28187684748E+02  0.55456756139E+03  0.56144285305E+03  0.00000000000E+00 0.  1.
<mgrwt>
<rscale>  2 0.17568887E+03</rscale>
<asrwt>0</asrwt>
<pdfrwt beam="1">  1       21 0.35274927E+00 0.17574524E+03</pdfrwt>
<pdfrwt beam="2">  1       21 0.21799316E-02 0.17574524E+03</pdfrwt>
<totfact> 0.18381102E+04</totfact>
</mgrwt>
</event>
<event>
12    1  0.1050690E-001  0.3307122E+03  0.7546771E-02  0.1070846E+00
         21   -1    0    0  501  502  0.00000000000E+00  0.00000000000E+00  0.96582708724E+03  0.96582708724E+03  0.00000000000E+00 0. -1.
         21   -1    0    0  502  503 -0.00000000000E+00 -0.00000000000E+00 -0.20117472823E+03  0.20117472823E+03  0.00000000000E+00 0.  1.
         -6    2    1    2    0  503  0.26090342795E+03 -0.10583178967E+03 -0.36861052205E+01  0.33051238523E+03  0.17307190123E+03 0.  0.
        -24    2    3    3    0    0  0.11162429615E+03 -0.27888970530E+01  0.42979727047E+02  0.14315740982E+03  0.78606778395E+02 0.  0.
          6    2    1    2  501    0 -0.26090342795E+03  0.10583178967E+03  0.76833846424E+03  0.83648943024E+03  0.17349237696E+03 0.  0.
         24    2    5    5    0    0 -0.12524806739E+03  0.32671525793E+00  0.25838410127E+03  0.29833588349E+03  0.80961536921E+02 0.  0.
          5    1    5    5  501    0 -0.13565536056E+03  0.10550507442E+03  0.50995436296E+03  0.53815354675E+03  0.47000000000E+01 0. -1.
        -11    1    6    6    0    0 -0.67086159604E+02  0.38966678012E+02  0.11321988973E+03  0.13725049449E+03  0.00000000000E+00 0.  1.
         12    1    6    6    0    0 -0.58161907787E+02 -0.38639962754E+02  0.14516421154E+03  0.16108538901E+03  0.00000000000E+00 0. -1.
         -5    1    3    3    0  503  0.14927913180E+03 -0.10304289262E+03 -0.46665832267E+02  0.18735497541E+03  0.47000000000E+01 0.  1.
         13    1    4    4    0    0 -0.33488212260E+01 -0.17339852844E+02  0.16740739401E+02  0.24333874660E+02  0.00000000000E+00 0. -1.
        -14    1    4    4    0    0  0.11497311738E+03  0.14550955791E+02  0.26238987646E+02  0.11882353516E+03  0.00000000000E+00 0.  1.
<mgrwt>
<rscale>  2 0.33065711E+03</rscale>
<asrwt>0</asrwt>
<pdfrwt beam="1">  1       21 0.14858878E+00 0.33071222E+03</pdfrwt>
<pdfrwt beam="2">  1       21 0.30949959E-01 0.33071222E+03</pdfrwt>
<totfact> 0.27907409E+03</totfact>
</mgrwt>
</event>
<event>
12    1  0.1050690E-001  0.2533376E+03  0.7546771E-02  0.1111544E+00
         21   -1    0    0  501  502  0.00000000000E+00  0.00000000000E+00  0.14949928076E+04  0.14949928076E+04  0.00000000000E+00 0. -1.
         21   -1    0    0  502  503 -0.00000000000E+00 -0.00000000000E+00 -0.14250343459E+03  0.14250343459E+03  0.00000000000E+00 0. -1.
         -6    2    1    2    0  503 -0.18127572172E+03 -0.15383959088E+02 -0.85342064680E+01  0.25348125641E+03  0.17630190353E+03 0.  0.
        -24    2    3    3    0    0 -0.18764951762E+03 -0.52098997963E+02 -0.24323033058E+02  0.21273820303E+03  0.82093154640E+02 0.  0.
          6    2    1    2  501    0  0.18127572172E+03  0.15383959088E+02  0.13610235795E+04  0.13840149858E+04  0.17324763638E+03 0.  0.
         24    2    5    5    0    0  0.34009313325E+02  0.10788522064E+02  0.76708538304E+03  0.77205650332E+03  0.79863845622E+02 0.  0.
          5    1    5    5  501    0  0.14726640839E+03  0.45954370237E+01  0.59393819642E+03  0.61195848245E+03  0.47000000000E+01 0. -1.
        -13    1    6    6    0    0  0.67650745219E+01  0.29052676486E+02  0.64354902785E+03  0.64423999836E+03  0.00000000000E+00 0.  1.
         14    1    6    6    0    0  0.27244238803E+02 -0.18264154422E+02  0.12353635519E+03  0.12781650496E+03  0.00000000000E+00 0. -1.
         -5    1    3    3    0  503  0.63737959001E+01  0.36715038875E+02  0.15788826590E+02  0.40743053382E+02  0.47000000000E+01 0.  1.
         11    1    4    4    0    0 -0.43911823577E+02 -0.42817208739E+02  0.15573276410E+02  0.63277867791E+02  0.00000000000E+00 0. -1.
        -12    1    4    4    0    0 -0.14373769404E+03 -0.92817892236E+01 -0.39896309467E+02  0.14946033524E+03  0.00000000000E+00 0.  1.
<mgrwt>
<rscale>  2 0.25280690E+03</rscale>
<asrwt>0</asrwt>
<pdfrwt beam="1">  1       21 0.22999888E+00 0.25333755E+03</pdfrwt>
<pdfrwt beam="2">  1       21 0.21923606E-01 0.25333755E+03</pdfrwt>
<totfact> 0.15997493E+03</totfact>
</mgrwt>
</event>
<event>
12    1  0.1050690E-001  0.2163648E+03  0.7546771E-02  0.1136950E+00
         21   -1    0    0  501  502  0.00000000000E+00  0.00000000000E+00  0.16471029519E+03  0.16471029519E+03  0.00000000000E+00 0. -1.
         21   -1    0    0  502  503 -0.00000000000E+00 -0.00000000000E+00 -0.36536293969E+03  0.36536293969E+03  0.00000000000E+00 0. -1.
         -6    2    1    2    0  503  0.76826160863E+01  0.12526275252E+03 -0.22725220293E+03  0.31377901700E+03  0.17624961847E+03 0.  0.
        -24    2    3    3    0    0  0.35155666494E+01  0.11068520369E+03 -0.25056400165E+03  0.28557619462E+03  0.80671373396E+02 0.  0.
          6    2    1    2  501    0 -0.76826160863E+01 -0.12526275252E+03  0.26599558433E+02  0.21629421788E+03  0.17414325258E+03 0.  0.
         24    2    5    5    0    0  0.23918472113E+02 -0.36305315458E+01  0.32730145784E+02  0.90386711927E+02  0.80704530123E+02 0.  0.
          5    1    5    5  501    0 -0.31601088199E+02 -0.12163222097E+03 -0.61305873505E+01  0.12590750595E+03  0.47000000000E+01 0. -1.
        -11    1    6    6    0    0  0.50095904448E+02 -0.18511639550E+02  0.15128960470E+02  0.55508250614E+02  0.00000000000E+00 0.  1.
         12    1    6    6    0    0 -0.26177432335E+02  0.14881108005E+02  0.17601185313E+02  0.34878461313E+02  0.00000000000E+00 0. -1.
         -5    1    3    3    0  503  0.41670494370E+01  0.14577548829E+02  0.23311798716E+02  0.28202822381E+02  0.47000000000E+01 0.  1.
         11    1    4    4    0    0  0.25540343725E+02  0.16784544524E+01 -0.53192560555E+02  0.59030287695E+02  0.00000000000E+00 0. -1.
        -12    1    4    4    0    0 -0.22024777075E+02  0.10900674923E+03 -0.19737144109E+03  0.22654590692E+03  0.00000000000E+00 0.  1.
<mgrwt>
<rscale>  2 0.21593539E+03</rscale>
<asrwt>0</asrwt>
<pdfrwt beam="1">  1       21 0.25340046E-01 0.21636476E+03</pdfrwt>
<pdfrwt beam="2">  1       21 0.56209682E-01 0.21636476E+03</pdfrwt>
<totfact> 0.43453181E+04</totfact>
</mgrwt>
</event>
<event>
12    1  0.1050690E-001  0.2932644E+03  0.7546771E-02  0.1088769E+00
         21   -1    0    0  501  502  0.00000000000E+00  0.00000000000E+00  0.32492495651E+03  0.32492495651E+03  0.00000000000E+00 0. -1.
         21   -1    0    0  502  503 -0.00000000000E+00 -0.00000000000E+00 -0.46727595036E+03  0.46727595036E+03  0.00000000000E+00 0.  1.
         -6    2    1    2    0  503  0.80731473456E+02  0.22189785646E+03 -0.33254868878E+03  0.44338769791E+03  0.17391892002E+03 0.  0.
        -24    2    3    3    0    0  0.16138688365E+02  0.21223649458E+03 -0.25541622873E+03  0.34220926052E+03  0.81024324690E+02 0.  0.
          6    2    1    2  501    0 -0.80731473456E+02 -0.22189785646E+03  0.19019769493E+03  0.34881320896E+03  0.17245075263E+03 0.  0.
         24    2    5    5    0    0  0.13106603714E+02 -0.12546927329E+03  0.58134426326E+02  0.16022144537E+03  0.79855985577E+02 0.  0.
          5    1    5    5  501    0 -0.93838077170E+02 -0.96428583172E+02  0.13206326860E+03  0.18859176359E+03  0.47000000000E+01 0. -1.
        -13    1    6    6    0    0  0.29408585195E+02 -0.10807554037E+02  0.24042427583E+02  0.39493118787E+02  0.00000000000E+00 0.  1.
         14    1    6    6    0    0 -0.16301981481E+02 -0.11466171925E+03  0.34091998743E+02  0.12072832658E+03  0.00000000000E+00 0. -1.
         -5    1    3    3    0  503  0.64592785091E+02  0.96613618764E+01 -0.77132460057E+02  0.10117843739E+03  0.47000000000E+01 0.  1.
         11    1    4    4    0    0 -0.89443988698E+01  0.32642272314E+02 -0.68579309588E+01  0.34533337951E+02  0.00000000000E+00 0. -1.
        -12    1    4    4    0    0  0.25083087235E+02  0.17959422227E+03 -0.24855829777E+03  0.30767592257E+03  0.00000000000E+00 0.  1.
<mgrwt>
<rscale>  2 0.29304710E+03</rscale>
<asrwt>0</asrwt>
<pdfrwt beam="1">  1       21 0.49988455E-01 0.29326442E+03</pdfrwt>
<pdfrwt beam="2">  1       21 0.71888608E-01 0.29326442E+03</pdfrwt>
<totfact> 0.62580047E+03</totfact>
</mgrwt>
</event>
<event>
12    1  0.1050690E-001  0.1957614E+03  0.7546771E-02  0.1153751E+00
         21   -1    0    0  503  502  0.00000000000E+00  0.00000000000E+00  0.65131196591E+02  0.65131196591E+02  0.00000000000E+00 0. -1.
         21   -1    0    0  501  503 -0.00000000000E+00 -0.00000000000E+00 -0.66084311303E+03  0.66084311303E+03  0.00000000000E+00 0. -1.
          6    2    1    2  501    0 -0.23071765162E+02 -0.88741926403E+02 -0.42117514422E+03  0.46370420044E+03  0.17095510390E+03 0.  0.
         24    2    3    3    0    0 -0.48007994698E+02 -0.32645625666E+02 -0.37266398625E+03  0.38532031850E+03  0.78884705593E+02 0.  0.
         -6    2    1    2    0  502  0.23071765162E+02  0.88741926403E+02 -0.17453677222E+03  0.26227010918E+03  0.17295979146E+03 0.  0.
        -24    2    5    5    0    0 -0.57841266594E+01 -0.19092365196E+02 -0.10116469844E+03  0.12860467555E+03  0.76856306392E+02 0.  0.
          5    1    3    3  501    0  0.24936229536E+02 -0.56096300737E+02 -0.48511157973E+02  0.78383881938E+02  0.47000000000E+01 0. -1.
        -11    1    4    4    0    0 -0.38491367881E+02 -0.59208943314E+01 -0.61023929607E+02  0.72391728641E+02  0.00000000000E+00 0.  1.
         12    1    4    4    0    0 -0.95166268178E+01 -0.26724731335E+02 -0.31164005664E+03  0.31292858986E+03  0.00000000000E+00 0. -1.
         -5    1    5    5    0  502  0.28855891821E+02  0.10783429160E+03 -0.73372073783E+02  0.13366543363E+03  0.47000000000E+01 0.  1.
         11    1    6    6    0    0  0.78688278384E+01 -0.13538172455E+02  0.85930084118E+01  0.17861700886E+02  0.00000000000E+00 0. -1.
        -12    1    6    6    0    0 -0.13652954498E+02 -0.55541927415E+01 -0.10975770685E+03  0.11074297466E+03  0.00000000000E+00 0.  1.
<mgrwt>
<rscale>  2 0.19531766E+03</rscale>
<asrwt>0</asrwt>
<pdfrwt beam="1">  1       21 0.10020184E-01 0.19576140E+03</pdfrwt>
<pdfrwt beam="2">  1       21 0.10166817E+00 0.19576140E+03</pdfrwt>
<totfact> 0.63720791E+04</totfact>
</mgrwt>
</event>
<event>
12    1  0.1050690E-001  0.2159890E+03  0.7546771E-02  0.1136953E+00
         21   -1    0    0  501  502  0.00000000000E+00  0.00000000000E+00  0.26772926380E+03  0.26772926380E+03  0.00000000000E+00 0. -1.
         21   -1    0    0  502  503 -0.00000000000E+00 -0.00000000000E+00 -0.19757985892E+03  0.19757985892E+03  0.00000000000E+00 0. -1.
         -6    2    1    2    0  503  0.12879594207E+03  0.23006626285E+02  0.11532079487E+03  0.24464711830E+03  0.17156814161E+03 0.  0.
        -24    2    3    3    0    0  0.11940820806E+02  0.85650562171E+01  0.26263966682E+01  0.81595605892E+02  0.80218461416E+02 0.  0.
          6    2    1    2  501    0 -0.12879594207E+03 -0.23006626285E+02 -0.45171389995E+02  0.22066200442E+03  0.17185332750E+03 0.  0.
         24    2    5    5    0    0 -0.46896752701E+02 -0.36185570455E+02 -0.82391523731E+02  0.12962030988E+03  0.80649616415E+02 0.  0.
          5    1    5    5  501    0 -0.81899189373E+02  0.13178944170E+02  0.37220133736E+02  0.91041694540E+02  0.47000000000E+01 0. -1.
        -11    1    6    6    0    0 -0.40323799740E+02 -0.24542925764E+02 -0.10810213006E+01  0.47217927079E+02  0.00000000000E+00 0.  1.
         12    1    6    6    0    0 -0.65729529609E+01 -0.11642644691E+02 -0.81310502430E+02  0.82402382802E+02  0.00000000000E+00 0. -1.
         -5    1    3    3    0  503  0.11685512127E+03  0.14441570068E+02  0.11269439820E+03  0.16305151241E+03  0.47000000000E+01 0.  1.
         13    1    4    4    0    0  0.39968997183E+01 -0.22043954567E+02  0.31580181336E+02  0.38719749399E+02  0.00000000000E+00 0. -1.
        -14    1    4    4    0    0  0.79439210882E+01  0.30609010784E+02 -0.28953784668E+02  0.42875856493E+02  0.00000000000E+00 0.  1.
<mgrwt>
<rscale>  2 0.21593231E+03</rscale>
<asrwt>0</asrwt>
<pdfrwt beam="1">  1       21 0.41189118E-01 0.21598904E+03</pdfrwt>
<pdfrwt beam="2">  1       21 0.30396901E-01 0.21598904E+03</pdfrwt>
<totfact> 0.58332559E+04</totfact>
</mgrwt>
</event>
<event>
12    1  0.1050690E-001  0.2600592E+03  0.7546771E-02  0.1107148E+00
         21   -1    0    0  501  502  0.00000000000E+00  0.00000000000E+00  0.13563248285E+03  0.13563248285E+03  0.00000000000E+00 0.  1.
         21   -1    0    0  502  503 -0.00000000000E+00 -0.00000000000E+00 -0.49836862899E+03  0.49836862899E+03  0.00000000000E+00 0.  1.
         -6    2    1    2    0  503 -0.19064833273E+03  0.35618202544E+02 -0.18838782168E+03  0.32090667736E+03  0.17284583040E+03 0.  0.
        -24    2    3    3    0    0 -0.85732905350E+02  0.36475618594E+02 -0.17647965331E+03  0.21520957929E+03  0.80557390568E+02 0.  0.
          6    2    1    2  501    0  0.19064833273E+03 -0.35618202544E+02 -0.17434832446E+03  0.31309443449E+03  0.17324936808E+03 0.  0.
         24    2    5    5    0    0  0.17584385234E+03  0.22773508309E+02 -0.10309583997E+03  0.21967189394E+03  0.78659364885E+02 0.  0.
          5    1    5    5  501    0  0.14804480396E+02 -0.58391710853E+02 -0.71252484495E+02  0.93422540550E+02  0.47000000000E+01 0. -1.
        -11    1    6    6    0    0  0.80994075236E+02 -0.28045325960E+02 -0.54735472942E+02  0.10169834084E+03  0.00000000000E+00 0.  1.
         12    1    6    6    0    0  0.94849777101E+02  0.50818834268E+02 -0.48360367023E+02  0.11797355310E+03  0.00000000000E+00 0. -1.
         -5    1    3    3    0  503 -0.10491542738E+03 -0.85741604975E+00 -0.11908168371E+02  0.10569709806E+03  0.47000000000E+01 0.  1.
         11    1    4    4    0    0 -0.37628343268E+02  0.15291969030E+02 -0.15180311908E+03  0.15714300333E+03  0.00000000000E+00 0. -1.
        -12    1    4    4    0    0 -0.48104562082E+02  0.21183649564E+02 -0.24676534228E+02  0.58066575958E+02  0.00000000000E+00 0.  1.
<mgrwt>
<rscale>  2 0.25999201E+03</rscale>
<asrwt>0</asrwt>
<pdfrwt beam="1">  1       21 0.20866536E-01 0.26005920E+03</pdfrwt>
<pdfrwt beam="2">  1       21 0.76672095E-01 0.26005920E+03</pdfrwt>
<totfact> 0.31212978E+04</totfact>
</mgrwt>
</event>
<event>
12    1  0.1050690E-001  0.2187290E+03  0.7546771E-02  0.1134895E+00
         21   -1    0    0  501  502  0.00000000000E+00  0.00000000000E+00  0.58675575056E+03  0.58675575056E+03  0.00000000000E+00 0.  1.
         21   -1    0    0  502  503 -0.00000000000E+00 -0.00000000000E+00 -0.82264329029E+02  0.82264329029E+02  0.00000000000E+00 0.  1.
         -6    2    1    2    0  503  0.29721222628E+02 -0.13016413463E+03  0.28603264544E+03  0.35988154448E+03  0.17284096384E+03 0.  0.
        -24    2    3    3    0    0 -0.28591677035E+02 -0.16085272164E+02  0.85259127108E+02  0.12166635439E+03  0.80357719344E+02 0.  0.
          6    2    1    2  501    0 -0.29721222628E+02  0.13016413463E+03  0.21845877609E+03  0.30913853511E+03  0.17325225546E+03 0.  0.
         24    2    5    5    0    0 -0.63917027641E+02  0.67897324756E+02  0.65319270818E+02  0.14025897220E+03  0.81917879684E+02 0.  0.
          5    1    5    5  501    0  0.34195805013E+02  0.62266809872E+02  0.15313950528E+03  0.16887956291E+03  0.47000000000E+01 0. -1.
        -11    1    6    6    0    0 -0.49099163473E+02  0.76112652642E+02  0.77650259617E+02  0.11930392519E+03  0.00000000000E+00 0.  1.
         12    1    6    6    0    0 -0.14817864168E+02 -0.82153278867E+01 -0.12330988799E+02  0.20955047018E+02  0.00000000000E+00 0. -1.
         -5    1    3    3    0  503  0.58312899663E+02 -0.11407886246E+03  0.20077351833E+03  0.23821519009E+03  0.47000000000E+01 0.  1.
         13    1    4    4    0    0 -0.23230298490E+02 -0.47028932927E+02  0.37392314465E+02  0.64417020121E+02  0.00000000000E+00 0. -1.
        -14    1    4    4    0    0 -0.53613785449E+01  0.30943660762E+02  0.47866812643E+02  0.57249334266E+02  0.00000000000E+00 0.  1.
<mgrwt>
<rscale>  2 0.21864760E+03</rscale>
<asrwt>0</asrwt>
<pdfrwt beam="1">  1       21 0.90270113E-01 0.21872905E+03</pdfrwt>
<pdfrwt beam="2">  1       21 0.12656051E-01 0.21872905E+03</pdfrwt>
<totfact> 0.54957283E+04</totfact>
</mgrwt>
</event>
<event>
12    1  0.1050690E-001  0.1754568E+03  0.7546771E-02  0.1172569E+00
         21   -1    0    0  501  502  0.00000000000E+00  0.00000000000E+00  0.77938862458E+03  0.77938862458E+03  0.00000000000E+00 0. -1.
         21   -1    0    0  502  503 -0.00000000000E+00 -0.00000000000E+00 -0.40995391422E+02  0.40995391422E+02  0.00000000000E+00 0. -1.
         -6    2    1    2    0  503  0.23954142974E+02 -0.32386231358E+01  0.45300840791E+03  0.48537718164E+03  0.17259809147E+03 0.  0.
        -24    2    3    3    0    0 -0.28533596790E+02  0.19354246148E+02  0.13533768681E+03  0.16257356083E+03  0.83217307212E+02 0.  0.
          6    2    1    2  501    0 -0.23954142974E+02  0.32386231358E+01  0.28538482525E+03  0.33500683436E+03  0.17378374763E+03 0.  0.
         24    2    5    5    0    0  0.48160971575E+02 -0.25864019312E+02  0.16820446511E+03  0.19429123342E+03  0.80423346267E+02 0.  0.
          5    1    5    5  501    0 -0.72115114549E+02  0.29102642448E+02  0.11718036014E+03  0.14071560094E+03  0.47000000000E+01 0. -1.
        -11    1    6    6    0    0  0.29653949593E+02  0.24736769766E+02  0.41934851907E+02  0.57006984742E+02  0.00000000000E+00 0.  1.
         12    1    6    6    0    0  0.18507021982E+02 -0.50600789079E+02  0.12626961320E+03  0.13728424868E+03  0.00000000000E+00 0. -1.
         -5    1    3    3    0  503  0.52487739764E+02 -0.22592869284E+02  0.31767072110E+03  0.32280362081E+03  0.47000000000E+01 0.  1.
         11    1    4    4    0    0 -0.40431770567E+01  0.49657446989E+02  0.89332614806E+02  0.10228648684E+03  0.00000000000E+00 0. -1.
        -12    1    4    4    0    0 -0.24490419733E+02 -0.30303200841E+02  0.46005072005E+02  0.60287073989E+02  0.00000000000E+00 0.  1.
<mgrwt>
<rscale>  2 0.17516247E+03</rscale>
<asrwt>0</asrwt>
<pdfrwt beam="1">  1       21 0.11990593E+00 0.17545678E+03</pdfrwt>
<pdfrwt beam="2">  1       21 0.63069839E-02 0.17545678E+03</pdfrwt>
<totfact> 0.96508153E+04</totfact>
</mgrwt>
</event>
<event>
12    1  0.1050690E-001  0.1987426E+03  0.7546771E-02  0.1151291E+00
         21   -1    0    0  501  502  0.00000000000E+00  0.00000000000E+00  0.38398749238E+03  0.38398749238E+03  0.00000000000E+00 0. -1.
         21   -1    0    0  502  503 -0.00000000000E+00 -0.00000000000E+00 -0.10598200493E+03  0.10598200493E+03  0.00000000000E+00 0. -1.
         -6    2    1    2    0  503  0.73312868435E+02  0.60247367388E+02  0.90478072479E+02  0.21836875402E+03  0.17462562578E+03 0.  0.
        -24    2    3    3    0    0  0.99801008355E+02  0.77798978922E+02  0.32704266601E+02  0.15226593056E+03  0.78118001543E+02 0.  0.
          6    2    1    2  501    0 -0.73312868435E+02 -0.60247367388E+02  0.18752741497E+03  0.27160074329E+03  0.17203461986E+03 0.  0.
         24    2    5    5    0    0 -0.72973872135E+02 -0.10342838183E+03  0.12262461582E+03  0.19350350732E+03  0.79901156188E+02 0.  0.
          5    1    5    5  501    0 -0.33899630017E+00  0.43181014441E+02  0.64902799156E+02  0.78097235962E+02  0.47000000000E+01 0. -1.
        -13    1    6    6    0    0 -0.27844304581E+02 -0.59590629958E+02  0.12910978673E+02  0.67030156248E+02  0.00000000000E+00 0.  1.
         14    1    6    6    0    0 -0.45129567555E+02 -0.43837751871E+02  0.10971363715E+03  0.12647335108E+03  0.00000000000E+00 0. -1.
         -5    1    3    3    0  503 -0.26488139920E+02 -0.17551611535E+02  0.57773805878E+02  0.66102823461E+02  0.47000000000E+01 0.  1.
         13    1    4    4    0    0  0.50359880936E+02  0.36514616772E+02 -0.23781003366E+02  0.66595577683E+02  0.00000000000E+00 0. -1.
        -14    1    4    4    0    0  0.49441127419E+02  0.41284362150E+02  0.56485269967E+02  0.85670352876E+02  0.00000000000E+00 0.  1.
<mgrwt>
<rscale>  2 0.19817200E+03</rscale>
<asrwt>0</asrwt>
<pdfrwt beam="1">  1       21 0.59074998E-01 0.19874263E+03</pdfrwt>
<pdfrwt beam="2">  1       21 0.16304924E-01 0.19874263E+03</pdfrwt>
<totfact> 0.90005956E+04</totfact>
</mgrwt>
</event>
<event>
12    1  0.1050690E-001  0.1731876E+03  0.7546771E-02  0.1175228E+00
         21   -1    0    0  501  502  0.00000000000E+00  0.00000000000E+00  0.58932170537E+03  0.58932170537E+03  0.00000000000E+00 0.  1.
         21   -1    0    0  502  503 -0.00000000000E+00 -0.00000000000E+00 -0.10187907233E+03  0.10187907233E+03  0.00000000000E+00 0.  1.
         -6    2    1    2    0  503 -0.10081914084E+02 -0.71196907651E+01 -0.16635681316E+01  0.17319561184E+03  0.17274726485E+03 0.  0.
        -24    2    3    3    0    0  0.54998565436E+02  0.23856739880E+02  0.55974738336E+01  0.10060208045E+03  0.80594420645E+02 0.  0.
          6    2    1    2  501    0  0.10081914084E+02  0.71196907651E+01  0.48910620117E+03  0.51800516587E+03  0.17015328634E+03 0.  0.
         24    2    5    5    0    0  0.49282865728E+02 -0.40200654482E+02  0.38040248798E+03  0.39304710512E+03  0.75730314321E+02 0.  0.
          5    1    5    5  501    0 -0.39200951644E+02  0.47320345247E+02  0.10870371319E+03  0.12495806074E+03  0.47000000000E+01 0. -1.
        -11    1    6    6    0    0 -0.32606917435E+01 -0.45923627088E+02  0.17669662284E+03  0.18259602449E+03  0.00000000000E+00 0.  1.
         12    1    6    6    0    0  0.52543557471E+02  0.57229726061E+01  0.20370586514E+03  0.21045108064E+03  0.00000000000E+00 0. -1.
         -5    1    3    3    0  503 -0.65080479520E+02 -0.30976430645E+02 -0.72610419652E+01  0.72593531395E+02  0.47000000000E+01 0.  1.
         13    1    4    4    0    0 -0.49214527523E+01  0.76153736629E+01  0.31910610095E+02  0.33173809697E+02  0.00000000000E+00 0. -1.
        -14    1    4    4    0    0  0.59920018188E+02  0.16241366217E+02 -0.26313136261E+02  0.67428270749E+02  0.00000000000E+00 0.  1.
<mgrwt>
<rscale>  2 0.17253715E+03</rscale>
<asrwt>0</asrwt>
<pdfrwt beam="1">  1       21 0.90664876E-01 0.17318762E+03</pdfrwt>
<pdfrwt beam="2">  1       21 0.15673704E-01 0.17318762E+03</pdfrwt>
<totfact> 0.37787963E+04</totfact>
</mgrwt>
</event>
<event>
12    1  0.1050690E-001  0.2195973E+03  0.7546771E-02  0.1135621E+00
         21   -1    0    0  501  502  0.00000000000E+00  0.00000000000E+00  0.42282522429E+03  0.42282522429E+03  0.00000000000E+00 0.  1.
         21   -1    0    0  502  503 -0.00000000000E+00 -0.00000000000E+00 -0.11478976621E+03  0.11478976621E+03  0.00000000000E+00 0.  1.
         -6    2    1    2    0  503  0.10316673541E+03  0.86598842821E+02  0.97457759982E+02  0.23336845356E+03  0.16376838909E+03 0.  0.
        -24    2    3    3    0    0  0.10750897169E+03  0.36942402784E+02  0.11488785969E+03  0.18035415899E+03  0.80034256688E+02 0.  0.
          6    2    1    2  501    0 -0.10316673541E+03 -0.86598842821E+02  0.21057769810E+03  0.30424653694E+03  0.17343659771E+03 0.  0.
         24    2    5    5    0    0 -0.19881210486E+02 -0.72371938014E+02  0.18573275863E+03  0.21605218054E+03  0.80925441909E+02 0.  0.
          5    1    5    5  501    0 -0.83285524922E+02 -0.14226904808E+02  0.24844939476E+02  0.88194356392E+02  0.47000000000E+01 0. -1.
        -13    1    6    6    0    0  0.22697835802E+02 -0.61058280303E+02  0.12584543534E+03  0.14170525374E+03  0.00000000000E+00 0.  1.
         14    1    6    6    0    0 -0.42579046288E+02 -0.11313657711E+02  0.59887323289E+02  0.74346926798E+02  0.00000000000E+00 0. -1.
         -5    1    3    3    0  503 -0.43422362788E+01  0.49656440037E+02 -0.17430099710E+02  0.53014294572E+02  0.47000000000E+01 0.  1.
         11    1    4    4    0    0 -0.12848872597E+02 -0.84045491144E+00  0.10872438185E+02  0.16852590411E+02  0.00000000000E+00 0. -1.
        -12    1    4    4    0    0  0.12035784428E+03  0.37782857696E+02  0.10401542151E+03  0.16350156858E+03  0.00000000000E+00 0.  1.
<mgrwt>
<rscale>  2 0.21768424E+03</rscale>
<asrwt>0</asrwt>
<pdfrwt beam="1">  1       21 0.65050034E-01 0.21959733E+03</pdfrwt>
<pdfrwt beam="2">  1       21 0.17659964E-01 0.21959733E+03</pdfrwt>
<totfact> 0.62510484E+04</totfact>
</mgrwt>
</event>
<event>
12    1  0.1050690E-001  0.2237697E+03  0.7546771E-02  0.1131453E+00
         21   -1    0    0  501  502  0.00000000000E+00  0.00000000000E+00  0.18931749443E+04  0.18931749443E+04  0.00000000000E+00 0. -1.
         21   -1    0    0  502  503 -0.00000000000E+00 -0.00000000000E+00 -0.64832582391E+02  0.64832582391E+02  0.00000000000E+00 0.  1.
         -6    2    1    2    0  503  0.13021106037E+03  0.56691739938E+02  0.15709781579E+03  0.27184881628E+03  0.17044993860E+03 0.  0.
        -24    2    3    3    0    0  0.97746943324E+02  0.98906734591E+02  0.14392953179E+03  0.21678959024E+03  0.83336722024E+02 0.  0.
          6    2    1    2  501    0 -0.13021106037E+03 -0.56691739938E+02  0.16712445461E+04  0.16861587104E+04  0.17292770203E+03 0.  0.
         24    2    5    5    0    0 -0.39782150899E+02  0.25850974292E+02  0.95012319122E+03  0.95470209117E+03  0.80443222086E+02 0.  0.
          5    1    5    5  501    0 -0.90428909473E+02 -0.82542714230E+02  0.72112135487E+03  0.73145661922E+03  0.47000000000E+01 0. -1.
        -11    1    6    6    0    0 -0.20326405198E+02  0.41806342479E+02  0.26017303444E+03  0.26429328571E+03  0.00000000000E+00 0.  1.
         12    1    6    6    0    0 -0.19455745700E+02 -0.15955368186E+02  0.68995015678E+03  0.69040880546E+03  0.00000000000E+00 0. -1.
         -5    1    3    3    0  503  0.32464117048E+02 -0.42214994653E+02  0.13168284000E+02  0.55059226046E+02  0.47000000000E+01 0.  1.
         11    1    4    4    0    0  0.10497749361E+03  0.60386498799E+02  0.93950658514E+02  0.15327599172E+03  0.00000000000E+00 0. -1.
        -12    1    4    4    0    0 -0.72305502879E+01  0.38520235792E+02  0.49978873275E+02  0.63513598518E+02  0.00000000000E+00 0.  1.
<mgrwt>
<rscale>  2 0.22329083E+03</rscale>
<asrwt>0</asrwt>
<pdfrwt beam="1">  1       21 0.29125764E+00 0.22376967E+03</pdfrwt>
<pdfrwt beam="2">  1       21 0.99742449E-02 0.22376967E+03</pdfrwt>
<totfact> 0.30169063E+03</totfact>
</mgrwt>
</event>
<event>
12    1  0.1050690E-001  0.2244451E+03  0.7546771E-02  0.1130982E+00
         21   -1    0    0  503  502  0.00000000000E+00  0.00000000000E+00  0.10973324679E+04  0.10973324679E+04  0.00000000000E+00 0.  1.
         21   -1    0    0  501  503 -0.00000000000E+00 -0.00000000000E+00 -0.50452194212E+02  0.50452194212E+02  0.00000000000E+00 0. -1.
          6    2    1    2  501    0 -0.13382983693E+03 -0.41036926933E+02  0.34138408843E+03  0.40744657395E+03  0.17284432349E+03 0.  0.
         24    2    3    3    0    0 -0.64696413864E+02  0.26607967082E+02  0.25746382478E+03  0.27930617234E+03  0.82648091097E+02 0.  0.
         -6    2    1    2    0  502  0.13382983693E+03  0.41036926933E+02  0.70549618525E+03  0.74033808816E+03  0.17544561194E+03 0.  0.
        -24    2    5    5    0    0  0.64536728548E+01 -0.66765622523E+01  0.17051371926E+03  0.18831490645E+03  0.79381037777E+02 0.  0.
          5    1    3    3  501    0 -0.69133423067E+02 -0.67644894016E+02  0.83920263654E+02  0.12814040160E+03  0.47000000000E+01 0. -1.
        -11    1    4    4    0    0  0.15265809496E+01  0.34596049765E+02  0.46041223723E+02  0.57610861742E+02  0.00000000000E+00 0.  1.
         12    1    4    4    0    0 -0.66222994814E+02 -0.79880826822E+01  0.21142260105E+03  0.22169531060E+03  0.00000000000E+00 0. -1.
         -5    1    5    5    0  502  0.12737616408E+03  0.47713489185E+02  0.53498246599E+03  0.55202318171E+03  0.47000000000E+01 0.  1.
         13    1    6    6    0    0  0.21582203001E+02 -0.37273179963E+02  0.70268309895E+02  0.82417939833E+02  0.00000000000E+00 0. -1.
        -14    1    6    6    0    0 -0.15128530146E+02  0.30596617711E+02  0.10024540937E+03  0.10589696662E+03  0.00000000000E+00 0.  1.
<mgrwt>
<rscale>  2 0.22393654E+03</rscale>
<asrwt>0</asrwt>
<pdfrwt beam="1">  1       21 0.16882036E+00 0.22444513E+03</pdfrwt>
<pdfrwt beam="2">  1       21 0.77618769E-02 0.22444513E+03</pdfrwt>
<totfact> 0.26953548E+04</totfact>
</mgrwt>
</event>
<event>
12    1  0.1050690E-001  0.1988707E+03  0.7546771E-02  0.1151141E+00
         21   -1    0    0  501  502  0.00000000000E+00  0.00000000000E+00  0.73445283302E+03  0.73445283302E+03  0.00000000000E+00 0. -1.
         21   -1    0    0  502  503 -0.00000000000E+00 -0.00000000000E+00 -0.93115244433E+02  0.93115244433E+02  0.00000000000E+00 0. -1.
         -6    2    1    2    0  503  0.52365736569E+02  0.81305185539E+02  0.49082870881E+02  0.20281595356E+03  0.17138401105E+03 0.  0.
        -24    2    3    3    0    0  0.71373840154E+02  0.48029094597E+02 -0.23668080052E+02  0.12045457249E+03  0.80920374658E+02 0.  0.
          6    2    1    2  501    0 -0.52365736569E+02 -0.81305185539E+02  0.59225471771E+03  0.62475212389E+03  0.17377244343E+03 0.  0.
         24    2    5    5    0    0 -0.29381231554E+02 -0.53623079404E+02  0.15149695927E+03  0.18250323684E+03  0.81347473089E+02 0.  0.
          5    1    5    5  501    0 -0.22984505015E+02 -0.27682106135E+02  0.44075775844E+03  0.44224888705E+03  0.47000000000E+01 0. -1.
        -11    1    6    6    0    0 -0.50069867055E+02 -0.71325168317E+01  0.68475235893E+02  0.85127682418E+02  0.00000000000E+00 0.  1.
         12    1    6    6    0    0  0.20688635501E+02 -0.46490562572E+02  0.83021723374E+02  0.97375554423E+02  0.00000000000E+00 0. -1.
         -5    1    3    3    0  503 -0.19008103585E+02  0.33276090942E+02  0.72750950932E+02  0.82361381071E+02  0.47000000000E+01 0.  1.
         11    1    4    4    0    0 -0.72942944026E+00  0.27072414022E+02 -0.35278770269E+02  0.44475153738E+02  0.00000000000E+00 0. -1.
        -12    1    4    4    0    0  0.72103269595E+02  0.20956680575E+02  0.11610690218E+02  0.75979418755E+02  0.00000000000E+00 0.  1.
<mgrwt>
<rscale>  2 0.19834777E+03</rscale>
<asrwt>0</asrwt>
<pdfrwt beam="1">  1       21 0.11299274E+00 0.19887073E+03</pdfrwt>
<pdfrwt beam="2">  1       21 0.14325423E-01 0.19887073E+03</pdfrwt>
<totfact> 0.26001737E+04</totfact>
</mgrwt>
</event>
<event>
12    1  0.1050690E-001  0.1951748E+03  0.7546771E-02  0.1154152E+00
         21   -1    0    0  501  502  0.00000000000E+00  0.00000000000E+00  0.25728383268E+04  0.25728383268E+04  0.00000000000E+00 0. -1.
         21   -1    0    0  502  503 -0.00000000000E+00 -0.00000000000E+00 -0.20488512923E+02  0.20488512923E+02  0.00000000000E+00 0.  1.
         -6    2    1    2    0  503 -0.49890193181E+02 -0.73838832549E+02  0.19618166522E+04  0.19713761787E+04  0.17221572754E+03 0.  0.
        -24    2    3    3    0    0 -0.74179657327E+02  0.64309015506E+01  0.10446927205E+04  0.10504138536E+04  0.80264596941E+02 0.  0.
          6    2    1    2  501    0  0.49890193181E+02  0.73838832549E+02  0.59053316170E+03  0.62195066097E+03  0.17364332712E+03 0.  0.
         24    2    5    5    0    0 -0.27441772746E+02  0.28830534907E+02  0.37052571647E+03  0.38439783366E+03  0.94276918273E+02 0.  0.
          5    1    5    5  501    0  0.77331965927E+02  0.45008297642E+02  0.22000744522E+03  0.23755282731E+03  0.47000000000E+01 0. -1.
        -13    1    6    6    0    0 -0.39883399042E+02  0.57079413396E+02  0.22065629765E+03  0.23138268441E+03  0.00000000000E+00 0.  1.
         14    1    6    6    0    0  0.12441626296E+02 -0.28248878489E+02  0.14986941883E+03  0.15301514925E+03  0.00000000000E+00 0. -1.
         -5    1    3    3    0  503  0.24289464146E+02 -0.80269734100E+02  0.91712393168E+03  0.92096232515E+03  0.47000000000E+01 0.  1.
         13    1    4    4    0    0 -0.38490251320E+02 -0.36771012866E+02  0.54178169997E+03  0.54439050070E+03  0.00000000000E+00 0. -1.
        -14    1    4    4    0    0 -0.35689406006E+02  0.43201914416E+02  0.50291102052E+03  0.50602335289E+03  0.00000000000E+00 0.  1.
<mgrwt>
<rscale>  2 0.19485679E+03</rscale>
<asrwt>0</asrwt>
<pdfrwt beam="1">  1       21 0.39582102E+00 0.19517482E+03</pdfrwt>
<pdfrwt beam="2">  1       21 0.31520810E-02 0.19517482E+03</pdfrwt>
<totfact> 0.53729556E+03</totfact>
</mgrwt>
</event>
<event>
12    1  0.1050690E-001  0.2229566E+03  0.7546771E-02  0.1131998E+00
         21   -1    0    0  503  502  0.00000000000E+00  0.00000000000E+00  0.11006998591E+03  0.11006998591E+03  0.00000000000E+00 0.  1.
         21   -1    0    0  501  503 -0.00000000000E+00 -0.00000000000E+00 -0.54049489936E+03  0.54049489936E+03  0.00000000000E+00 0. -1.
          6    2    1    2  501    0  0.15347077049E+02  0.13965102850E+03 -0.35019645150E+03  0.41514722218E+03  0.17312342102E+03 0.  0.
         24    2    3    3    0    0  0.32884532049E+02  0.25983281836E+02 -0.81083027498E+02  0.12244935075E+03  0.81626360747E+02 0.  0.
         -6    2    1    2    0  502 -0.15347077049E+02 -0.13965102850E+03 -0.80228461944E+02  0.23541766309E+03  0.17101733087E+03 0.  0.
        -24    2    5    5    0    0 -0.46871421701E+02 -0.54943078103E+02 -0.95105582421E+02  0.14369721892E+03  0.79925883880E+02 0.  0.
          5    1    3    3  501    0 -0.17537455000E+02  0.11366774666E+03 -0.26911342400E+03  0.29269787142E+03  0.47000000000E+01 0. -1.
        -11    1    4    4    0    0  0.52833228921E+01  0.49341417205E+02 -0.67600909689E+02  0.83859238867E+02  0.00000000000E+00 0.  1.
         12    1    4    4    0    0  0.27601209157E+02 -0.23358135369E+02 -0.13482117809E+02  0.38590111887E+02  0.00000000000E+00 0. -1.
         -5    1    5    5    0  502  0.31524344652E+02 -0.84707950394E+02  0.14877120477E+02  0.91720444174E+02  0.47000000000E+01 0.  1.
         13    1    6    6    0    0 -0.92132142578E+01 -0.84372328305E+01 -0.81339543185E+02  0.82293325977E+02  0.00000000000E+00 0. -1.
        -14    1    6    6    0    0 -0.37658207444E+02 -0.46505845272E+02 -0.13766039236E+02  0.61403892943E+02  0.00000000000E+00 0.  1.
<mgrwt>
<rscale>  2 0.22254767E+03</rscale>
<asrwt>0</asrwt>
<pdfrwt beam="1">  1       21 0.16933844E-01 0.22295664E+03</pdfrwt>
<pdfrwt beam="2">  1       21 0.83153063E-01 0.22295664E+03</pdfrwt>
<totfact> 0.38977528E+04</totfact>
</mgrwt>
</event>
<event>
12    1  0.1050690E-001  0.4071189E+03  0.7546771E-02  0.1041374E+00
         21   -1    0    0  501  502  0.00000000000E+00  0.00000000000E+00  0.52405528215E+03  0.52405528215E+03  0.00000000000E+00 0.  1.
         21   -1    0    0  502  503 -0.00000000000E+00 -0.00000000000E+00 -0.32783359386E+03  0.32783359386E+03  0.00000000000E+00 0. -1.
         -6    2    1    2    0  503  0.45705279841E+02 -0.36537752489E+03  0.17170714255E+02  0.40748086316E+03  0.17365515286E+03 0.  0.
        -24    2    3    3    0    0  0.53017425088E+02 -0.12980726499E+03  0.51334212795E+02  0.16928756046E+03  0.79764047773E+02 0.  0.
          6    2    1    2  501    0 -0.45705279841E+02  0.36537752489E+03  0.17905097403E+03  0.44440801286E+03  0.17277014293E+03 0.  0.
         24    2    5    5    0    0 -0.81217918297E+02  0.15481140510E+03  0.72652659652E+02  0.20578293120E+03  0.80655343383E+02 0.  0.
          5    1    5    5  501    0  0.35512638457E+02  0.21056611979E+03  0.10639831438E+03  0.23862508166E+03  0.47000000000E+01 0. -1.
        -13    1    6    6    0    0  0.62563570467E+01  0.33872280390E+02 -0.90661198476E+01  0.35618364806E+02  0.00000000000E+00 0.  1.
         14    1    6    6    0    0 -0.87474275344E+02  0.12093912471E+03  0.81718779500E+02  0.17016456639E+03  0.00000000000E+00 0. -1.
         -5    1    3    3    0  503 -0.73121452475E+01 -0.23557025990E+03 -0.34163498539E+02  0.23819330270E+03  0.47000000000E+01 0.  1.
         13    1    4    4    0    0  0.49478757259E+02 -0.34649272767E+02 -0.14316183924E+01  0.60421594272E+02  0.00000000000E+00 0. -1.
        -14    1    4    4    0    0  0.35386678294E+01 -0.95157992222E+02  0.52765831187E+02  0.10886596619E+03  0.00000000000E+00 0.  1.
<mgrwt>
<rscale>  2 0.40702472E+03</rscale>
<asrwt>0</asrwt>
<pdfrwt beam="1">  1       21 0.80623890E-01 0.40711893E+03</pdfrwt>
<pdfrwt beam="2">  1       21 0.50435938E-01 0.40711893E+03</pdfrwt>
<totfact> 0.45052314E+03</totfact>
</mgrwt>
</event>
<event>
12    1  0.1050690E-001  0.2196768E+03  0.7546771E-02  0.1134282E+00
         21   -1    0    0  501  502  0.00000000000E+00  0.00000000000E+00  0.11946800781E+04  0.11946800781E+04  0.00000000000E+00 0.  1.
         21   -1    0    0  502  503 -0.00000000000E+00 -0.00000000000E+00 -0.44528514837E+02  0.44528514837E+02  0.00000000000E+00 0.  1.
         -6    2    1    2    0  503  0.86540244734E+01  0.13428397875E+03  0.38376901296E+03  0.44219514874E+03  0.17363990088E+03 0.  0.
        -24    2    3    3    0    0 -0.30454242533E+02  0.19885576547E+02  0.10782168579E+03  0.14088887874E+03  0.83073841745E+02 0.  0.
          6    2    1    2  501    0 -0.86540244734E+01 -0.13428397875E+03  0.76638255030E+03  0.79701344418E+03  0.17257212325E+03 0.  0.
         24    2    5    5    0    0 -0.44689967007E+02 -0.56725381415E+02  0.23263648343E+03  0.25643886185E+03  0.80163547788E+02 0.  0.
          5    1    5    5  501    0  0.36035942534E+02 -0.77558597336E+02  0.53374606686E+03  0.54057458234E+03  0.47000000000E+01 0. -1.
        -11    1    6    6    0    0  0.12888701151E+02 -0.45794269400E+02  0.12725404531E+03  0.13585590077E+03  0.00000000000E+00 0.  1.
         12    1    6    6    0    0 -0.57578668158E+02 -0.10931112015E+02  0.10538243812E+03  0.12058296107E+03  0.00000000000E+00 0. -1.
         -5    1    3    3    0  503  0.39108267006E+02  0.11439840220E+03  0.27594732717E+03  0.30130627001E+03  0.47000000000E+01 0.  1.
         13    1    4    4    0    0 -0.31114220300E+02  0.11197499806E+02  0.12080712466E+03  0.12525110808E+03  0.00000000000E+00 0. -1.
        -14    1    4    4    0    0  0.65997776710E+00  0.86880767409E+01 -0.12985438876E+02  0.15637770651E+02  0.00000000000E+00 0.  1.
<mgrwt>
<rscale>  2 0.21946573E+03</rscale>
<asrwt>0</asrwt>
<pdfrwt beam="1">  1       21 0.18379691E+00 0.21967680E+03</pdfrwt>
<pdfrwt beam="2">  1       21 0.68505416E-02 0.21967680E+03</pdfrwt>
<totfact> 0.26442878E+04</totfact>
</mgrwt>
</event>
<event>
12    1  0.1050690E-001  0.2988670E+03  0.7546771E-02  0.1085831E+00
         21   -1    0    0  501  502  0.00000000000E+00  0.00000000000E+00  0.12594143679E+03  0.12594143679E+03  0.00000000000E+00 0.  1.
         21   -1    0    0  502  503 -0.00000000000E+00 -0.00000000000E+00 -0.70920875476E+03  0.70920875476E+03  0.00000000000E+00 0.  1.
         -6    2    1    2    0  503  0.23267963727E+03  0.70910650610E+02 -0.30177945856E+03  0.42472614963E+03  0.17364713241E+03 0.  0.
        -24    2    3    3    0    0  0.17398324532E+03 -0.41039017003E+01 -0.14126548081E+03  0.23801975836E+03  0.80065333559E+02 0.  0.
          6    2    1    2  501    0 -0.23267963727E+03 -0.70910650610E+02 -0.28148785941E+03  0.41042404192E+03  0.17333304711E+03 0.  0.
         24    2    5    5    0    0 -0.22358890022E+03 -0.82055905030E+02 -0.29689733861E+03  0.38882774026E+03  0.79459512133E+02 0.  0.
          5    1    5    5  501    0 -0.90907370545E+01  0.11145254420E+02  0.15409479201E+02  0.21596301663E+02  0.47000000000E+01 0. -1.
        -11    1    6    6    0    0 -0.12918619859E+03 -0.73111241101E+02 -0.13215730517E+03  0.19874576924E+03  0.00000000000E+00 0.  1.
         12    1    6    6    0    0 -0.94402701629E+02 -0.89446639282E+01 -0.16474003344E+03  0.19008197102E+03  0.00000000000E+00 0. -1.
         -5    1    3    3    0  503  0.58696391948E+02  0.75014552310E+02 -0.16051397775E+03  0.18670639127E+03  0.47000000000E+01 0.  1.
         13    1    4    4    0    0  0.10167227110E+03 -0.10384097826E+02 -0.12872203211E+03  0.16436070622E+03  0.00000000000E+00 0. -1.
        -14    1    4    4    0    0  0.72310974224E+02  0.62801961257E+01 -0.12543448698E+02  0.73659052137E+02  0.00000000000E+00 0.  1.
<mgrwt>
<rscale>  2 0.29882136E+03</rscale>
<asrwt>0</asrwt>
<pdfrwt beam="1">  1       21 0.19375605E-01 0.29886696E+03</pdfrwt>
<pdfrwt beam="2">  1       21 0.10910904E+00 0.29886696E+03</pdfrwt>
<totfact> 0.15399915E+04</totfact>
</mgrwt>
</event>
<event>
12    1  0.1050690E-001  0.2060631E+03  0.7546771E-02  0.1145067E+00
         21   -1    0    0  503  502  0.00000000000E+00  0.00000000000E+00  0.76003100294E+03  0.76003100294E+03  0.00000000000E+00 0. -1.
         21   -1    0    0  501  503 -0.00000000000E+00 -0.00000000000E+00 -0.16873598289E+03  0.16873598289E+03  0.00000000000E+00 0. -1.
          6    2    1    2  501    0 -0.90037485310E+02  0.59054557195E+02 -0.84522024786E+02  0.22272398235E+03  0.17569237364E+03 0.  0.
         24    2    3    3    0    0  0.10084666105E+02  0.64731387681E+02 -0.37309189587E+02  0.11178339728E+03  0.82533019082E+02 0.  0.
         -6    2    1    2    0  502  0.90037485310E+02 -0.59054557195E+02  0.67581704484E+03  0.70604300348E+03  0.17370623243E+03 0.  0.
        -24    2    5    5    0    0  0.11380361397E+03 -0.60319792949E+02  0.66215260097E+03  0.67819993039E+03  0.70137997079E+02 0.  0.
          5    1    3    3  501    0 -0.10012215141E+03 -0.56768304863E+01 -0.47212835199E+02  0.11094058507E+03  0.47000000000E+01 0. -1.
        -13    1    4    4    0    0  0.18154939885E+02 -0.93307065601E+00  0.17976324240E+02  0.25566006654E+02  0.00000000000E+00 0.  1.
         14    1    4    4    0    0 -0.80702737802E+01  0.65664458337E+02 -0.55285513827E+02  0.86217390628E+02  0.00000000000E+00 0. -1.
         -5    1    5    5    0  502 -0.23766128663E+02  0.12652357544E+01  0.13664443873E+02  0.27843073097E+02  0.47000000000E+01 0.  1.
         13    1    6    6    0    0  0.11576092506E+03 -0.46782316393E+02  0.49556435526E+03  0.51105108071E+03  0.00000000000E+00 0. -1.
        -14    1    6    6    0    0 -0.19573110856E+01 -0.13537476556E+02  0.16658824571E+03  0.16714884967E+03  0.00000000000E+00 0.  1.
<mgrwt>
<rscale>  2 0.20563910E+03</rscale>
<asrwt>0</asrwt>
<pdfrwt beam="1">  1       21 0.11692784E+00 0.20606310E+03</pdfrwt>
<pdfrwt beam="2">  1       21 0.25959382E-01 0.20606310E+03</pdfrwt>
<totfact> 0.78553606E+03</totfact>
</mgrwt>
</event>
<event>
12    1  0.1050690E-001  0.2633478E+03  0.7546771E-02  0.1105220E+00
         21   -1    0    0  503  502  0.00000000000E+00  0.00000000000E+00  0.47194390068E+03  0.47194390068E+03  0.00000000000E+00 0. -1.
         21   -1    0    0  501  503 -0.00000000000E+00 -0.00000000000E+00 -0.21737470465E+03  0.21737470465E+03  0.00000000000E+00 0.  1.
          6    2    1    2  501    0 -0.89538104061E+01 -0.19865189387E+03 -0.69345593952E+02  0.27185857151E+03  0.17191720636E+03 0.  0.
         24    2    3    3    0    0  0.52724313225E+02 -0.14880818608E+03 -0.75511432592E+02  0.19217988109E+03  0.79419146271E+02 0.  0.
         -6    2    1    2    0  502  0.89538104061E+01  0.19865189387E+03  0.32391478999E+03  0.41746003382E+03  0.17265382419E+03 0.  0.
        -24    2    5    5    0    0 -0.53218082639E+02  0.87742699843E+02  0.11976663036E+03  0.17690909393E+03  0.80136359236E+02 0.  0.
          5    1    3    3  501    0 -0.61678123631E+02 -0.49843707790E+02  0.61658386396E+01  0.79678690419E+02  0.47000000000E+01 0. -1.
        -13    1    4    4    0    0  0.41376655567E+02 -0.96951962696E+02 -0.88378973034E+02  0.13755927294E+03  0.00000000000E+00 0.  1.
         14    1    4    4    0    0  0.11347657658E+02 -0.51856223384E+02  0.12867540442E+02  0.54620608153E+02  0.00000000000E+00 0. -1.
         -5    1    5    5    0  502  0.62171893045E+02  0.11090919403E+03  0.20414815963E+03  0.24055093989E+03  0.47000000000E+01 0.  1.
         13    1    6    6    0    0  0.58243023747E+01  0.68806861877E+01  0.59220435370E+02  0.59902640225E+02  0.00000000000E+00 0. -1.
        -14    1    6    6    0    0 -0.59042385013E+02  0.80862013656E+02  0.60546194988E+02  0.11700645370E+03  0.00000000000E+00 0.  1.
<mgrwt>
<rscale>  2 0.26322718E+03</rscale>
<asrwt>0</asrwt>
<pdfrwt beam="1">  1       21 0.72606754E-01 0.26334785E+03</pdfrwt>
<pdfrwt beam="2">  1       21 0.33442262E-01 0.26334785E+03</pdfrwt>
<totfact> 0.14134395E+04</totfact>
</mgrwt>
</event>
<event>
12    1  0.1050690E-001  0.1888391E+03  0.7546771E-02  0.1159799E+00
         21   -1    0    0  501  502  0.00000000000E+00  0.00000000000E+00  0.23482878708E+03  0.23482878708E+03  0.00000000000E+00 0. -1.
         21   -1    0    0  502  503 -0.00000000000E+00 -0.00000000000E+00 -0.20187747424E+03  0.20187747424E+03  0.00000000000E+00 0. -1.
         -6    2    1    2    0  503 -0.64896406017E+02 -0.27731445189E+02 -0.93346959413E+02  0.20952469742E+03  0.17379979123E+03 0.  0.
        -24    2    3    3    0    0  0.32459383128E+02 -0.14915962542E+02 -0.25126275287E+02  0.89864603744E+02  0.78538015029E+02 0.  0.
          6    2    1    2  501    0  0.64896406017E+02  0.27731445189E+02  0.12629827226E+03  0.22718156390E+03  0.17515602426E+03 0.  0.
         24    2    5    5    0    0  0.17594470756E+02 -0.55366711090E+01 -0.74994102251E+01  0.81345524187E+02  0.78870989745E+02 0.  0.
          5    1    5    5  501    0  0.47301935262E+02  0.33268116298E+02  0.13379768248E+03  0.14583603971E+03  0.47000000000E+01 0. -1.
        -11    1    6    6    0    0  0.46650476098E+02  0.73550149502E+01  0.43378106348E+01  0.47425518091E+02  0.00000000000E+00 0.  1.
         12    1    6    6    0    0 -0.29056005342E+02 -0.12891686059E+02 -0.11837220860E+02  0.33920006096E+02  0.00000000000E+00 0. -1.
         -5    1    3    3    0  503 -0.97355789145E+02 -0.12815482646E+02 -0.68220684126E+02  0.11966009367E+03  0.47000000000E+01 0.  1.
         11    1    4    4    0    0  0.52607006904E+02 -0.14670259408E+01  0.30390012682E+01  0.52715129414E+02  0.00000000000E+00 0. -1.
        -12    1    4    4    0    0 -0.20147623776E+02 -0.13448936602E+02 -0.28165276556E+02  0.37149474330E+02  0.00000000000E+00 0.  1.
<mgrwt>
<rscale>  2 0.18852400E+03</rscale>
<asrwt>0</asrwt>
<pdfrwt beam="1">  1       21 0.36127506E-01 0.18883911E+03</pdfrwt>
<pdfrwt beam="2">  1       21 0.31058073E-01 0.18883911E+03</pdfrwt>
<totfact> 0.73697894E+04</totfact>
</mgrwt>
</event>
<event>
12    1  0.1050690E-001  0.1806058E+03  0.7546771E-02  0.1168059E+00
         21   -1    0    0  503  502  0.00000000000E+00  0.00000000000E+00  0.98122238092E+02  0.98122238092E+02  0.00000000000E+00 0.  1.
         21   -1    0    0  501  503 -0.00000000000E+00 -0.00000000000E+00 -0.32965835207E+03  0.32965835207E+03  0.00000000000E+00 0.  1.
          6    2    1    2  501    0 -0.90778076496E+01  0.43792117313E+02 -0.13911024835E+03  0.22796958579E+03  0.17498089815E+03 0.  0.
         24    2    3    3    0    0 -0.48337179188E+02 -0.31963166690E+01 -0.22131832951E+02  0.95851264383E+02  0.79692832312E+02 0.  0.
         -6    2    1    2    0  502  0.90778076496E+01 -0.43792117313E+02 -0.92425865635E+02  0.19981100438E+03  0.17141102853E+03 0.  0.
        -24    2    5    5    0    0  0.64425902996E+02  0.11940022299E+02 -0.64743884020E+02  0.11639718568E+03  0.71156680686E+02 0.  0.
          5    1    3    3  501    0  0.39259371539E+02  0.46988433982E+02 -0.11697841540E+03  0.13211832140E+03  0.47000000000E+01 0. -1.
        -13    1    4    4    0    0 -0.32542063902E+02 -0.38258499808E+02 -0.27108065753E+02  0.57074915325E+02  0.00000000000E+00 0.  1.
         14    1    4    4    0    0 -0.15795115287E+02  0.35062183139E+02  0.49762328016E+01  0.38776349058E+02  0.00000000000E+00 0. -1.
         -5    1    5    5    0  502 -0.55348095346E+02 -0.55732139613E+02 -0.27681981615E+02  0.83413818701E+02  0.47000000000E+01 0.  1.
         13    1    6    6    0    0  0.79030788661E+00 -0.23742227312E+02 -0.16844947386E+02  0.29121644815E+02  0.00000000000E+00 0. -1.
        -14    1    6    6    0    0  0.63635595109E+02  0.35682249611E+02 -0.47898936634E+02  0.87275540863E+02  0.00000000000E+00 0.  1.
<mgrwt>
<rscale>  2 0.17973545E+03</rscale>
<asrwt>0</asrwt>
<pdfrwt beam="1">  1       21 0.15095729E-01 0.18060584E+03</pdfrwt>
<pdfrwt beam="2">  1       21 0.50716670E-01 0.18060584E+03</pdfrwt>
<totfact> 0.14400282E+05</totfact>
</mgrwt>
</event>
<event>
12    1  0.1050690E-001  0.1994123E+03  0.7546771E-02  0.1150332E+00
         21   -1    0    0  501  502  0.00000000000E+00  0.00000000000E+00  0.10352623854E+04  0.10352623854E+04  0.00000000000E+00 0.  1.
         21   -1    0    0  502  503 -0.00000000000E+00 -0.00000000000E+00 -0.41526215207E+02  0.41526215207E+02  0.00000000000E+00 0.  1.
         -6    2    1    2    0  503 -0.60769750653E+02 -0.77631625925E+02  0.34786230383E+03  0.40096564682E+03  0.17333676922E+03 0.  0.
        -24    2    3    3    0    0 -0.10213109825E+03 -0.45039964878E+02  0.18654730442E+03  0.23120818312E+03  0.78727171231E+02 0.  0.
          6    2    1    2  501    0  0.60769750653E+02  0.77631625925E+02  0.64587386632E+03  0.67582295375E+03  0.17281198361E+03 0.  0.
         24    2    5    5    0    0 -0.18609280722E+02 -0.60340748015E+01  0.28216289864E+03  0.29423582331E+03  0.81093174593E+02 0.  0.
          5    1    5    5  501    0  0.79379031374E+02  0.83665700727E+02  0.36371096769E+03  0.38158713044E+03  0.47000000000E+01 0. -1.
        -11    1    6    6    0    0 -0.11381829898E+02  0.30425464836E+02  0.53638301417E+02  0.62708231846E+02  0.00000000000E+00 0.  1.
         12    1    6    6    0    0 -0.72274508241E+01 -0.36459539637E+02  0.22852459722E+03  0.23152759147E+03  0.00000000000E+00 0. -1.
         -5    1    3    3    0  503  0.41361347601E+02 -0.32591661047E+02  0.16131499941E+03  0.16975746369E+03  0.47000000000E+01 0.  1.
         11    1    4    4    0    0 -0.55492202571E+02  0.11083741983E+02  0.11900744942E+03  0.13177635182E+03  0.00000000000E+00 0. -1.
        -12    1    4    4    0    0 -0.46638895682E+02 -0.56123706861E+02  0.67539855003E+02  0.99431831302E+02  0.00000000000E+00 0.  1.
<mgrwt>
<rscale>  2 0.19929821E+03</rscale>
<asrwt>0</asrwt>
<pdfrwt beam="1">  1       21 0.15927112E+00 0.19941231E+03</pdfrwt>
<pdfrwt beam="2">  1       21 0.63886493E-02 0.19941231E+03</pdfrwt>
<totfact> 0.44934763E+04</totfact>
</mgrwt>
</event>
<event>
12    1  0.1050690E-001  0.4189537E+03  0.7546771E-02  0.1037436E+00
         21   -1    0    0  503  502  0.00000000000E+00  0.00000000000E+00  0.16914845971E+04  0.16914845971E+04  0.00000000000E+00 0.  1.
         21   -1    0    0  501  503 -0.00000000000E+00 -0.00000000000E+00 -0.24803422989E+03  0.24803422989E+03  0.00000000000E+00 0. -1.
          6    2    1    2  501    0  0.34911980869E+03 -0.15439319054E+03 -0.17961402787E+02  0.41933856061E+03  0.17262768700E+03 0.  0.
         24    2    3    3    0    0  0.94651439353E+02 -0.53641887590E+02  0.37052045608E+02  0.14013693894E+03  0.80182045969E+02 0.  0.
         -6    2    1    2    0  502 -0.34911980869E+03  0.15439319054E+03  0.14614117700E+04  0.15201802663E+04  0.17176082995E+03 0.  0.
        -24    2    5    5    0    0 -0.27950820011E+03  0.70002280314E+02  0.90391003360E+03  0.95202722550E+03  0.79229641385E+02 0.  0.
          5    1    3    3  501    0  0.25446836934E+03 -0.10075130295E+03 -0.55013448395E+02  0.27920162167E+03  0.47000000000E+01 0. -1.
        -11    1    4    4    0    0  0.95086178983E+02 -0.22860993025E+02  0.85237089806E+01  0.98166491485E+02  0.00000000000E+00 0.  1.
         12    1    4    4    0    0 -0.43473963029E+00 -0.30780894565E+02  0.28528336628E+02  0.41970447454E+02  0.00000000000E+00 0. -1.
         -5    1    5    5    0  502 -0.69611608583E+02  0.84390910225E+02  0.55750173636E+03  0.56815304084E+03  0.47000000000E+01 0.  1.
         13    1    6    6    0    0 -0.74348943715E+02  0.51884359057E+02  0.22551018627E+03  0.24305266149E+03  0.00000000000E+00 0. -1.
        -14    1    6    6    0    0 -0.20515925639E+03  0.18117921257E+02  0.67839984734E+03  0.70897456402E+03  0.00000000000E+00 0.  1.
<mgrwt>
<rscale>  2 0.41886458E+03</rscale>
<asrwt>0</asrwt>
<pdfrwt beam="1">  1       21 0.26022839E+00 0.41895372E+03</pdfrwt>
<pdfrwt beam="2">  1       21 0.38159113E-01 0.41895372E+03</pdfrwt>
<totfact> 0.31263610E+02</totfact>
</mgrwt>
</event>
<event>
12    1  0.1050690E-001  0.2876541E+03  0.7546771E-02  0.1091811E+00
         21   -1    0    0  503  502  0.00000000000E+00  0.00000000000E+00  0.18122873578E+04  0.18122873578E+04  0.00000000000E+00 0. -1.
         21   -1    0    0  501  503 -0.00000000000E+00 -0.00000000000E+00 -0.86739645213E+02  0.86739645213E+02  0.00000000000E+00 0.  1.
          6    2    1    2  501    0  0.15266767419E+02 -0.22688213253E+03  0.20849735352E+03  0.35526892915E+03  0.17617119330E+03 0.  0.
         24    2    3    3    0    0 -0.43670077653E+01 -0.21705102602E+03  0.11462663825E+03  0.25874982758E+03  0.81743430464E+02 0.  0.
         -6    2    1    2    0  502 -0.15266767419E+02  0.22688213253E+03  0.15170503590E+04  0.15437580738E+04  0.17331653818E+03 0.  0.
        -24    2    5    5    0    0  0.32810949391E+02  0.15520105075E+03  0.69993745810E+03  0.72208585986E+03  0.79571472257E+02 0.  0.
          5    1    3    3  501    0  0.19633775185E+02 -0.98311065071E+01  0.93870715265E+02  0.96519101568E+02  0.47000000000E+01 0. -1.
        -11    1    4    4    0    0 -0.38343048094E+02 -0.92116539567E+02  0.69670925597E+02  0.12169504539E+03  0.00000000000E+00 0.  1.
         12    1    4    4    0    0  0.33976040328E+02 -0.12493448645E+03  0.44955712655E+02  0.13705478219E+03  0.00000000000E+00 0. -1.
         -5    1    5    5    0  502 -0.48077716811E+02  0.71681081782E+02  0.81711290092E+03  0.82167221395E+03  0.47000000000E+01 0.  1.
         11    1    6    6    0    0  0.67263128222E+00  0.14136984906E+03  0.52616947471E+03  0.54483043488E+03  0.00000000000E+00 0. -1.
        -12    1    6    6    0    0  0.32138318109E+02  0.13831201686E+02  0.17376798339E+03  0.17725542498E+03  0.00000000000E+00 0.  1.
<mgrwt>
<rscale>  2 0.28721823E+03</rscale>
<asrwt>0</asrwt>
<pdfrwt beam="1">  1       21 0.27881341E+00 0.28765407E+03</pdfrwt>
<pdfrwt beam="2">  1       21 0.13344562E-01 0.28765407E+03</pdfrwt>
<totfact> 0.19950097E+03</totfact>
</mgrwt>
</event>
<event>
12    1  0.1050690E-001  0.1796421E+03  0.7546771E-02  0.1168160E+00
         21   -1    0    0  503  502  0.00000000000E+00  0.00000000000E+00  0.15299151117E+02  0.15299151117E+02  0.00000000000E+00 0.  1.
         21   -1    0    0  501  503 -0.00000000000E+00 -0.00000000000E+00 -0.21093189612E+04  0.21093189612E+04  0.00000000000E+00 0.  1.
          6    2    1    2  501    0 -0.13605570267E+02  0.46533651937E+02 -0.10316315516E+04  0.10471488125E+04  0.17293491516E+03 0.  0.
         24    2    3    3    0    0 -0.74200477783E+02  0.12350433410E+02 -0.65839182138E+03  0.66745127302E+03  0.79706758083E+02 0.  0.
         -6    2    1    2    0  502  0.13605570267E+02 -0.46533651937E+02 -0.10623882585E+04  0.10774692998E+04  0.17297626444E+03 0.  0.
        -24    2    5    5    0    0  0.33576514464E+02  0.35448845055E+02 -0.57683932817E+03  0.58462061906E+03  0.81569937939E+02 0.  0.
          5    1    3    3  501    0  0.60594907516E+02  0.34183218527E+02 -0.37323973023E+03  0.37969753945E+03  0.47000000000E+01 0. -1.
        -11    1    4    4    0    0 -0.91285492568E+01  0.37495988779E+02 -0.18856376387E+03  0.19247226457E+03  0.00000000000E+00 0.  1.
         12    1    4    4    0    0 -0.65071928526E+02 -0.25145555369E+02 -0.46982805751E+03  0.47497900845E+03  0.00000000000E+00 0. -1.
         -5    1    5    5    0  502 -0.19970944197E+02 -0.81982496991E+02 -0.48554893030E+03  0.49284868077E+03  0.47000000000E+01 0.  1.
         13    1    6    6    0    0 -0.11471051310E+02  0.46766757051E+02 -0.32247017427E+03  0.32604559171E+03  0.00000000000E+00 0. -1.
        -14    1    6    6    0    0  0.45047565774E+02 -0.11317911997E+02 -0.25436915390E+03  0.25857502735E+03  0.00000000000E+00 0.  1.
<mgrwt>
<rscale>  2 0.17963214E+03</rscale>
<asrwt>0</asrwt>
<pdfrwt beam="1">  1       21 0.23537136E-02 0.17964209E+03</pdfrwt>
<pdfrwt beam="2">  1       21 0.32451088E+00 0.17964209E+03</pdfrwt>
<totfact> 0.23578052E+04</totfact>
</mgrwt>
</event>
<event>
12    1  0.1050690E-001  0.2315423E+03  0.7546771E-02  0.1125567E+00
         21   -1    0    0  501  502  0.00000000000E+00  0.00000000000E+00  0.63645306307E+03  0.63645306307E+03  0.00000000000E+00 0.  1.
         21   -1    0    0  502  503 -0.00000000000E+00 -0.00000000000E+00 -0.86391451879E+02  0.86391451879E+02  0.00000000000E+00 0.  1.
         -6    2    1    2    0  503 -0.12591243075E+03 -0.88091109581E+02  0.33231660483E+03  0.40500063420E+03  0.17313926201E+03 0.  0.
        -24    2    3    3    0    0 -0.12068853629E+03 -0.37295225877E+02  0.13716744890E+03  0.20322651808E+03  0.80805024287E+02 0.  0.
          6    2    1    2  501    0  0.12591243075E+03  0.88091109581E+02  0.21774500637E+03  0.31784388076E+03  0.17319890569E+03 0.  0.
         24    2    5    5    0    0  0.62098225095E+02 -0.21326108723E+00  0.30054077042E+02  0.10077271806E+03  0.73455143582E+02 0.  0.
          5    1    5    5  501    0  0.63814205653E+02  0.88304370669E+02  0.18769092932E+03  0.21707116269E+03  0.47000000000E+01 0. -1.
        -13    1    6    6    0    0  0.34501461617E+02 -0.35461151437E+02  0.25817480193E+02  0.55806687757E+02  0.00000000000E+00 0.  1.
         14    1    6    6    0    0  0.27596763479E+02  0.35247890350E+02  0.42365968492E+01  0.44966030306E+02  0.00000000000E+00 0. -1.
         -5    1    3    3    0  503 -0.52238944631E+01 -0.50795883705E+02  0.19514915592E+03  0.20177411611E+03  0.47000000000E+01 0.  1.
         11    1    4    4    0    0 -0.10906690060E+03 -0.57800705038E+02  0.98406074485E+02  0.15786153998E+03  0.00000000000E+00 0. -1.
        -12    1    4    4    0    0 -0.11621635686E+02  0.20505479161E+02  0.38761374418E+02  0.45364978104E+02  0.00000000000E+00 0.  1.
<mgrwt>
<rscale>  2 0.23153116E+03</rscale>
<asrwt>0</asrwt>
<pdfrwt beam="1">  1       21 0.97915853E-01 0.23154232E+03</pdfrwt>
<pdfrwt beam="2">  1       21 0.13290993E-01 0.23154232E+03</pdfrwt>
<totfact> 0.41322221E+04</totfact>
</mgrwt>
</event>
<event>
12    1  0.1050690E-001  0.2235469E+03  0.7546771E-02  0.1131560E+00
         21   -1    0    0  503  502  0.00000000000E+00  0.00000000000E+00  0.90657884474E+02  0.90657884474E+02  0.00000000000E+00 0. -1.
         21   -1    0    0  501  503 -0.00000000000E+00 -0.00000000000E+00 -0.61071854991E+03  0.61071854991E+03  0.00000000000E+00 0.  1.
          6    2    1    2  501    0  0.11799470794E+03  0.76366353108E+02 -0.14616398650E+03  0.26574821697E+03  0.17176621578E+03 0.  0.
         24    2    3    3    0    0  0.23092226175E+02  0.80547359333E+02 -0.11914680154E+03  0.16687466064E+03  0.81425205193E+02 0.  0.
         -6    2    1    2    0  502 -0.11799470794E+03 -0.76366353108E+02 -0.37389667894E+03  0.43562821742E+03  0.17383511239E+03 0.  0.
        -24    2    5    5    0    0  0.77544938690E+01 -0.84994942615E+01 -0.14417509442E+03  0.16504945129E+03  0.79514086439E+02 0.  0.
          5    1    3    3  501    0  0.94902481764E+02 -0.41810062249E+01 -0.27017184955E+02  0.98873556327E+02  0.47000000000E+01 0. -1.
        -11    1    4    4    0    0  0.38424916587E+02  0.76574780673E+02 -0.57392832176E+02  0.10312181358E+03  0.00000000000E+00 0.  1.
         12    1    4    4    0    0 -0.15332690412E+02  0.39725786608E+01 -0.61753969365E+02  0.63752847064E+02  0.00000000000E+00 0. -1.
         -5    1    5    5    0  502 -0.12574920181E+03 -0.67866858847E+02 -0.22972158452E+03  0.27057876612E+03  0.47000000000E+01 0.  1.
         13    1    6    6    0    0 -0.27377056045E+02  0.11321936917E+02 -0.10392554426E+03  0.10806575870E+03  0.00000000000E+00 0. -1.
        -14    1    6    6    0    0  0.35131549914E+02 -0.19821431178E+02 -0.40249550161E+02  0.56983692592E+02  0.00000000000E+00 0.  1.
<mgrwt>
<rscale>  2 0.22314456E+03</rscale>
<asrwt>0</asrwt>
<pdfrwt beam="1">  1       21 0.13947367E-01 0.22354690E+03</pdfrwt>
<pdfrwt beam="2">  1       21 0.93956701E-01 0.22354690E+03</pdfrwt>
<totfact> 0.41890230E+04</totfact>
</mgrwt>
</event>
<event>
12    1  0.1050690E-001  0.3265729E+03  0.7546771E-02  0.1072899E+00
         21   -1    0    0  501  502  0.00000000000E+00  0.00000000000E+00  0.64716152360E+02  0.64716152360E+02  0.00000000000E+00 0. -1.
         21   -1    0    0  502  503 -0.00000000000E+00 -0.00000000000E+00 -0.21658646970E+04  0.21658646970E+04  0.00000000000E+00 0.  1.
         -6    2    1    2    0  503 -0.10770389162E+03  0.25259660850E+03 -0.16040473521E+04  0.16369538030E+04  0.17676162030E+03 0.  0.
        -24    2    3    3    0    0 -0.12720964887E+03  0.12830995474E+03 -0.10625868895E+04  0.10810498819E+04  0.83259895806E+02 0.  0.
          6    2    1    2  501    0  0.10770389162E+03 -0.25259660850E+03 -0.49710119248E+03  0.59362704633E+03  0.17285340513E+03 0.  0.
         24    2    5    5    0    0  0.10730302721E+03 -0.14735514553E+03 -0.41402836123E+03  0.45946627892E+03  0.80388425754E+02 0.  0.
          5    1    5    5  501    0  0.40086441602E+00 -0.10524146297E+03 -0.83072831252E+02  0.13416076741E+03  0.47000000000E+01 0. -1.
        -11    1    6    6    0    0  0.20707405781E+02 -0.90947590190E+02 -0.23363683970E+03  0.25156795043E+03  0.00000000000E+00 0.  1.
         12    1    6    6    0    0  0.86595621424E+02 -0.56407555345E+02 -0.18039152153E+03  0.20789832849E+03  0.00000000000E+00 0. -1.
         -5    1    3    3    0  503  0.19505757253E+02  0.12428665376E+03 -0.54146046263E+03  0.55590392107E+03  0.47000000000E+01 0.  1.
         11    1    4    4    0    0 -0.51473195911E+02  0.49573043960E+02 -0.21771132041E+03  0.22914012224E+03  0.00000000000E+00 0. -1.
        -12    1    4    4    0    0 -0.75736452963E+02  0.78736910778E+02 -0.84487556910E+03  0.85190975971E+03  0.00000000000E+00 0.  1.
<mgrwt>
<rscale>  2 0.32604693E+03</rscale>
<asrwt>0</asrwt>
<pdfrwt beam="1">  1       21 0.99563313E-02 0.32657288E+03</pdfrwt>
<pdfrwt beam="2">  1       21 0.33320995E+00 0.32657288E+03</pdfrwt>
<totfact> 0.15630869E+03</totfact>
</mgrwt>
</event>
<event>
12    1  0.1050690E-001  0.1985541E+03  0.7546771E-02  0.1151102E+00
         21   -1    0    0  503  502  0.00000000000E+00  0.00000000000E+00  0.11482618797E+04  0.11482618797E+04  0.00000000000E+00 0. -1.
         21   -1    0    0  501  503 -0.00000000000E+00 -0.00000000000E+00 -0.42908575520E+02  0.42908575520E+02  0.00000000000E+00 0.  1.
          6    2    1    2  501    0 -0.47555768444E+02 -0.82224817117E+02  0.28398368852E+03  0.34614278315E+03  0.17362493865E+03 0.  0.
         24    2    3    3    0    0  0.81740413802E+01 -0.81896608090E+02  0.98010675481E+02  0.15194193093E+03  0.81892542385E+02 0.  0.
         -6    2    1    2    0  502  0.47555768444E+02  0.82224817117E+02  0.82136961570E+03  0.84502767211E+03  0.17435954052E+03 0.  0.
        -24    2    5    5    0    0  0.77205944534E+02  0.10745213613E+03  0.71838957663E+03  0.73483452798E+03  0.79946733913E+02 0.  0.
          5    1    3    3  501    0 -0.55729809825E+02 -0.32820902719E+00  0.18597301303E+03  0.19420085222E+03  0.47000000000E+01 0. -1.
        -11    1    4    4    0    0 -0.35707759334E+01  0.14698108461E+02  0.28807173085E+02  0.32536718554E+02  0.00000000000E+00 0.  1.
         12    1    4    4    0    0  0.11744817314E+02 -0.96594716551E+02  0.69203502396E+02  0.11940521238E+03  0.00000000000E+00 0. -1.
         -5    1    5    5    0  502 -0.29650176089E+02 -0.25227319015E+02  0.10298003907E+03  0.11019314413E+03  0.47000000000E+01 0.  1.
         11    1    6    6    0    0  0.83045176432E+02  0.84675594600E+02  0.67631499167E+03  0.68663558428E+03  0.00000000000E+00 0. -1.
        -12    1    6    6    0    0 -0.58392318980E+01  0.22776541531E+02  0.42074584964E+02  0.48198943693E+02  0.00000000000E+00 0.  1.
<mgrwt>
<rscale>  2 0.19839269E+03</rscale>
<asrwt>0</asrwt>
<pdfrwt beam="1">  1       21 0.17665565E+00 0.19855408E+03</pdfrwt>
<pdfrwt beam="2">  1       21 0.66013202E-02 0.19855408E+03</pdfrwt>
<totfact> 0.31975710E+04</totfact>
</mgrwt>
</event>
<event>
12    1  0.1050690E-001  0.1899786E+03  0.7546771E-02  0.1158981E+00
         21   -1    0    0  503  502  0.00000000000E+00  0.00000000000E+00  0.32317389403E+03  0.32317389403E+03  0.00000000000E+00 0. -1.
         21   -1    0    0  501  503 -0.00000000000E+00 -0.00000000000E+00 -0.18457240715E+03  0.18457240715E+03  0.00000000000E+00 0. -1.
          6    2    1    2  501    0  0.74192754303E+02  0.16309495504E+02 -0.91889762971E+02  0.20905233637E+03  0.17172241079E+03 0.  0.
         24    2    3    3    0    0  0.71292944992E+02  0.73631385747E+02 -0.63263552081E+02  0.14474247752E+03  0.80273549850E+02 0.  0.
         -6    2    1    2    0  502 -0.74192754303E+02 -0.16309495504E+02  0.23049124984E+03  0.29869396481E+03  0.17413013502E+03 0.  0.
        -24    2    5    5    0    0 -0.31969533062E+02 -0.67620349206E+02  0.19385203199E+03  0.22266682225E+03  0.80045866573E+02 0.  0.
          5    1    3    3  501    0  0.28998093112E+01 -0.57321890243E+02 -0.28626210890E+02  0.64309858848E+02  0.47000000000E+01 0. -1.
        -13    1    4    4    0    0 -0.17892613185E+02  0.10716573075E+02 -0.13043589121E+02  0.24599304100E+02  0.00000000000E+00 0.  1.
         14    1    4    4    0    0  0.89185558176E+02  0.62914812671E+02 -0.50219962960E+02  0.12014317342E+03  0.00000000000E+00 0. -1.
         -5    1    5    5    0  502 -0.42223221241E+02  0.51310853702E+02  0.36639217857E+02  0.76027142553E+02  0.47000000000E+01 0.  1.
         13    1    6    6    0    0  0.63180431783E+01  0.10140160354E+02  0.72855805750E+02  0.73828916782E+02  0.00000000000E+00 0. -1.
        -14    1    6    6    0    0 -0.38287576240E+02 -0.77760509560E+02  0.12099622624E+03  0.14883790547E+03  0.00000000000E+00 0.  1.
<mgrwt>
<rscale>  2 0.18942509E+03</rscale>
<asrwt>0</asrwt>
<pdfrwt beam="1">  1       21 0.49719060E-01 0.18997860E+03</pdfrwt>
<pdfrwt beam="2">  1       21 0.28395755E-01 0.18997860E+03</pdfrwt>
<totfact> 0.45773908E+04</totfact>
</mgrwt>
</event>
<event>
12    1  0.1050690E-001  0.2654201E+03  0.7546771E-02  0.1104013E+00
         21   -1    0    0  503  502  0.00000000000E+00  0.00000000000E+00  0.24622392233E+03  0.24622392233E+03  0.00000000000E+00 0.  1.
         21   -1    0    0  501  503 -0.00000000000E+00 -0.00000000000E+00 -0.73417155126E+03  0.73417155126E+03  0.00000000000E+00 0.  1.
          6    2    1    2  501    0  0.36105565850E+02  0.19706183941E+03 -0.62708146401E+03  0.68071887414E+03  0.17323406903E+03 0.  0.
         24    2    3    3    0    0  0.38595996955E+02  0.19731181488E+03 -0.63509412031E+03  0.67109819871E+03  0.81281285554E+02 0.  0.
         -6    2    1    2    0  502 -0.36105565850E+02 -0.19706183941E+03  0.13913383508E+03  0.29967659944E+03  0.17410014288E+03 0.  0.
        -24    2    5    5    0    0  0.28890170061E+02 -0.16923900227E+03  0.12584456126E+03  0.22758463906E+03  0.80507344508E+02 0.  0.
          5    1    3    3  501    0 -0.24904311046E+01 -0.24997546971E+00  0.80126563026E+01  0.96206754361E+01  0.47000000000E+01 0. -1.
        -13    1    4    4    0    0 -0.10643045166E+02  0.77740195687E+01 -0.11544570230E+02  0.17521041420E+02  0.00000000000E+00 0.  1.
         14    1    4    4    0    0  0.49239042120E+02  0.18953779532E+03 -0.62354955008E+03  0.65357715729E+03  0.00000000000E+00 0. -1.
         -5    1    5    5    0  502 -0.64995735911E+02 -0.27822837141E+02  0.13289273813E+02  0.72091960382E+02  0.47000000000E+01 0.  1.
         11    1    6    6    0    0 -0.10081375172E+02 -0.96610376714E+02  0.31071403654E+02  0.10198348464E+03  0.00000000000E+00 0. -1.
        -12    1    6    6    0    0  0.38971545233E+02 -0.72628625559E+02  0.94773157608E+02  0.12560115442E+03  0.00000000000E+00 0.  1.
<mgrwt>
<rscale>  2 0.26527818E+03</rscale>
<asrwt>0</asrwt>
<pdfrwt beam="1">  1       21 0.37880603E-01 0.26542012E+03</pdfrwt>
<pdfrwt beam="2">  1       21 0.11294947E+00 0.26542012E+03</pdfrwt>
<totfact> 0.39052703E+03</totfact>
</mgrwt>
</event>
<event>
12    1  0.1050690E-001  0.2465839E+03  0.7546771E-02  0.1115565E+00
         21   -1    0    0  501  502  0.00000000000E+00  0.00000000000E+00  0.63449715438E+03  0.63449715438E+03  0.00000000000E+00 0.  1.
         21   -1    0    0  502  503 -0.00000000000E+00 -0.00000000000E+00 -0.11134366949E+03  0.11134366949E+03  0.00000000000E+00 0.  1.
         -6    2    1    2    0  503  0.10007365705E+02  0.17465935254E+03  0.12172423524E+03  0.27499166983E+03  0.17377454427E+03 0.  0.
        -24    2    3    3    0    0 -0.16646128078E+02  0.34515850427E+02  0.93565742057E+02  0.12950764785E+03  0.80927407304E+02 0.  0.
          6    2    1    2  501    0 -0.10007365705E+02 -0.17465935254E+03  0.40142924965E+03  0.47084915403E+03  0.17305330561E+03 0.  0.
         24    2    5    5    0    0  0.38160627494E+02 -0.30128178484E+02  0.15870622034E+03  0.18423796304E+03  0.79950122096E+02 0.  0.
          5    1    5    5  501    0 -0.48167993199E+02 -0.14453117406E+03  0.24272302931E+03  0.28661119099E+03  0.47000000000E+01 0. -1.
        -11    1    6    6    0    0  0.21921353090E+02 -0.31580205623E+02  0.16292334076E+03  0.16739734190E+03  0.00000000000E+00 0.  1.
         12    1    6    6    0    0  0.16239274405E+02  0.14520271394E+01 -0.42171204241E+01  0.16840621149E+02  0.00000000000E+00 0. -1.
         -5    1    3    3    0  503  0.26653493782E+02  0.14014350211E+03  0.28158493179E+02  0.14548402199E+03  0.47000000000E+01 0.  1.
         11    1    4    4    0    0 -0.28974939934E+02 -0.72371380650E+01  0.42755406533E+01  0.30169580034E+02  0.00000000000E+00 0. -1.
        -12    1    4    4    0    0  0.12328811856E+02  0.41752988492E+02  0.89290201404E+02  0.99338067811E+02  0.00000000000E+00 0.  1.
<mgrwt>
<rscale>  2 0.24645688E+03</rscale>
<asrwt>0</asrwt>
<pdfrwt beam="1">  1       21 0.97614945E-01 0.24658392E+03</pdfrwt>
<pdfrwt beam="2">  1       21 0.17129796E-01 0.24658392E+03</pdfrwt>
<totfact> 0.25971866E+04</totfact>
</mgrwt>
</event>
<event>
12    1  0.1050690E-001  0.2009599E+03  0.7546771E-02  0.1149358E+00
         21   -1    0    0  503  502  0.00000000000E+00  0.00000000000E+00  0.20712791234E+03  0.20712791234E+03  0.00000000000E+00 0. -1.
         21   -1    0    0  501  503 -0.00000000000E+00 -0.00000000000E+00 -0.37136980023E+03  0.37136980023E+03  0.00000000000E+00 0. -1.
          6    2    1    2  501    0 -0.54845314486E+02  0.84785829118E+02 -0.28235443334E+03  0.34539804727E+03  0.17140344131E+03 0.  0.
         24    2    3    3    0    0 -0.57808176699E+01  0.51952001276E+02 -0.55285094605E+02  0.11073241346E+03  0.80453697344E+02 0.  0.
         -6    2    1    2    0  502  0.54845314486E+02 -0.84785829118E+02  0.11811254544E+03  0.23309966530E+03  0.17374761936E+03 0.  0.
        -24    2    5    5    0    0  0.47720135699E+02  0.71758130862E+01  0.10310579598E+03  0.13953148514E+03  0.80681636911E+02 0.  0.
          5    1    3    3  501    0 -0.49064496816E+02  0.32833827842E+02 -0.22706933873E+03  0.23466563381E+03  0.47000000000E+01 0. -1.
        -13    1    4    4    0    0  0.57002746833E+01 -0.16413457417E+02  0.58191169418E+01  0.18323668787E+02  0.00000000000E+00 0.  1.
         14    1    4    4    0    0 -0.11481092353E+02  0.68365458692E+02 -0.61104211547E+02  0.92408744676E+02  0.00000000000E+00 0. -1.
         -5    1    5    5    0  502  0.71251787867E+01 -0.91961642204E+02  0.15006749457E+02  0.93568180162E+02  0.47000000000E+01 0.  1.
         11    1    6    6    0    0  0.28357081652E+02 -0.26060668931E+02  0.11525461885E+02  0.40200980294E+02  0.00000000000E+00 0. -1.
        -12    1    6    6    0    0  0.19363054048E+02  0.33236482017E+02  0.91580334098E+02  0.99330504843E+02  0.00000000000E+00 0.  1.
<mgrwt>
<rscale>  2 0.20045216E+03</rscale>
<asrwt>0</asrwt>
<pdfrwt beam="1">  1       21 0.31865833E-01 0.20095990E+03</pdfrwt>
<pdfrwt beam="2">  1       21 0.57133815E-01 0.20095990E+03</pdfrwt>
<totfact> 0.27119161E+04</totfact>
</mgrwt>
</event>
<event>
12    1  0.1050690E-001  0.2631813E+03  0.7546771E-02  0.1106074E+00
         21   -1    0    0  503  502  0.00000000000E+00  0.00000000000E+00  0.20373803413E+03  0.20373803413E+03  0.00000000000E+00 0.  1.
         21   -1    0    0  501  503 -0.00000000000E+00 -0.00000000000E+00 -0.33312051408E+03  0.33312051408E+03  0.00000000000E+00 0.  1.
          6    2    1    2  501    0 -0.17443819858E+03 -0.79386270589E+02 -0.72895470738E+02  0.27309001145E+03  0.18037056195E+03 0.  0.
         24    2    3    3    0    0 -0.10408888964E+03 -0.11149851266E+03 -0.89764758290E+02  0.19380013680E+03  0.78958000998E+02 0.  0.
         -6    2    1    2    0  502  0.17443819858E+03  0.79386270589E+02 -0.56487009211E+02  0.26376853675E+03  0.17219812335E+03 0.  0.
        -24    2    5    5    0    0  0.41241907135E+02  0.48177265302E+02  0.20794431823E+02  0.10657513614E+03  0.83089755396E+02 0.  0.
          5    1    3    3  501    0 -0.70349308948E+02  0.32112242071E+02  0.16869287553E+02  0.79289874655E+02  0.47000000000E+01 0. -1.
        -11    1    4    4    0    0 -0.11386551374E+03 -0.11223357244E+03 -0.76325246204E+02  0.17716453711E+03  0.00000000000E+00 0.  1.
         12    1    4    4    0    0  0.97766241096E+01  0.73505977456E+00 -0.13439512086E+02  0.16635599687E+02  0.00000000000E+00 0. -1.
         -5    1    5    5    0  502  0.13319629145E+03  0.31209005287E+02 -0.77281441035E+02  0.15719340061E+03  0.47000000000E+01 0.  1.
         13    1    6    6    0    0  0.10023001731E+02  0.66320150267E+02  0.21577844077E+02  0.70458684704E+02  0.00000000000E+00 0. -1.
        -14    1    6    6    0    0  0.31218905404E+02 -0.18142884965E+02 -0.78341225406E+00  0.36116451434E+02  0.00000000000E+00 0.  1.
<mgrwt>
<rscale>  2 0.26178722E+03</rscale>
<asrwt>0</asrwt>
<pdfrwt beam="1">  1       21 0.31344313E-01 0.26318132E+03</pdfrwt>
<pdfrwt beam="2">  1       21 0.51249310E-01 0.26318132E+03</pdfrwt>
<totfact> 0.34237324E+04</totfact>
</mgrwt>
</event>
<event>
12    1  0.1050690E-001  0.2646139E+03  0.7546771E-02  0.1104887E+00
         21   -1    0    0  501  502  0.00000000000E+00  0.00000000000E+00  0.12035387037E+03  0.12035387037E+03  0.00000000000E+00 0. -1.
         21   -1    0    0  502  503 -0.00000000000E+00 -0.00000000000E+00 -0.57791953299E+03  0.57791953299E+03  0.00000000000E+00 0.  1.
         -6    2    1    2    0  503 -0.19125411459E+03 -0.44792127506E+02 -0.20089601968E+03  0.32962746493E+03  0.17236758361E+03 0.  0.
        -24    2    3    3    0    0 -0.56395714248E+02  0.40450358704E+02 -0.99929157740E+02  0.14076384533E+03  0.70794883156E+02 0.  0.
          6    2    1    2  501    0  0.19125411459E+03  0.44792127506E+02 -0.25666964294E+03  0.36864593843E+03  0.17730214686E+03 0.  0.
         24    2    5    5    0    0  0.16457478014E+03 -0.11973836793E+02 -0.24266828685E+03  0.30420767680E+03  0.80163471457E+02 0.  0.
          5    1    5    5  501    0  0.26679334452E+02  0.56765964300E+02 -0.14001356092E+02  0.64438261631E+02  0.47000000000E+01 0. -1.
        -11    1    6    6    0    0 -0.13490262618E+01  0.10891568482E+02 -0.38996458499E+02  0.40511355338E+02  0.00000000000E+00 0.  1.
         12    1    6    6    0    0  0.16592380640E+03 -0.22865405275E+02 -0.20367182835E+03  0.26369632146E+03  0.00000000000E+00 0. -1.
         -5    1    3    3    0  503 -0.13485840034E+03 -0.85242486211E+02 -0.10096686194E+03  0.18886361960E+03  0.47000000000E+01 0.  1.
         11    1    4    4    0    0 -0.21608818247E+02 -0.78530726714E+01  0.16259497307E+01  0.23048980215E+02  0.00000000000E+00 0. -1.
        -12    1    4    4    0    0 -0.34786896000E+02  0.48303431376E+02 -0.10155510747E+03  0.11771486512E+03  0.00000000000E+00 0.  1.
<mgrwt>
<rscale>  2 0.26378990E+03</rscale>
<asrwt>0</asrwt>
<pdfrwt beam="1">  1       21 0.18515980E-01 0.26461391E+03</pdfrwt>
<pdfrwt beam="2">  1       21 0.88910697E-01 0.26461391E+03</pdfrwt>
<totfact> 0.27761064E+04</totfact>
</mgrwt>
</event>
<event>
12    1  0.1050690E-001  0.1920899E+03  0.7546771E-02  0.1156831E+00
         21   -1    0    0  503  502  0.00000000000E+00  0.00000000000E+00  0.24761462356E+03  0.24761462356E+03  0.00000000000E+00 0. -1.
         21   -1    0    0  501  503 -0.00000000000E+00 -0.00000000000E+00 -0.91208472147E+03  0.91208472147E+03  0.00000000000E+00 0. -1.
          6    2    1    2  501    0  0.77475413146E+02  0.27416821371E+02 -0.86274457984E+03  0.88363537792E+03  0.17242142945E+03 0.  0.
         24    2    3    3    0    0 -0.12009954377E+02  0.17810389547E+02 -0.60335456583E+03  0.60903533440E+03  0.80161446233E+02 0.  0.
         -6    2    1    2    0  502 -0.77475413146E+02 -0.27416821371E+02  0.19827448193E+03  0.27606396710E+03  0.17362149064E+03 0.  0.
        -24    2    5    5    0    0 -0.36875631756E+02 -0.38436561738E+02  0.21125580171E+03  0.23178777045E+03  0.79116213752E+02 0.  0.
          5    1    3    3  501    0  0.89485367522E+02  0.96064318248E+01 -0.25939001401E+03  0.27460004352E+03  0.47000000000E+01 0. -1.
        -11    1    4    4    0    0  0.19442013234E+02 -0.21511103444E+02 -0.14123298240E+03  0.14417862105E+03  0.00000000000E+00 0.  1.
         12    1    4    4    0    0 -0.31451967610E+02  0.39321492990E+02 -0.46212158343E+03  0.46485671335E+03  0.00000000000E+00 0. -1.
         -5    1    5    5    0  502 -0.40599781390E+02  0.11019740367E+02 -0.12981319781E+02  0.44276196651E+02  0.47000000000E+01 0.  1.
         13    1    6    6    0    0 -0.21650818842E+02  0.15651365066E+02  0.22763104071E+02  0.35098177900E+02  0.00000000000E+00 0. -1.
        -14    1    6    6    0    0 -0.15224812913E+02 -0.54087926804E+02  0.18849269764E+03  0.19668959255E+03  0.00000000000E+00 0.  1.
<mgrwt>
<rscale>  2 0.19181836E+03</rscale>
<asrwt>0</asrwt>
<pdfrwt beam="1">  1       21 0.38094557E-01 0.19208994E+03</pdfrwt>
<pdfrwt beam="2">  1       21 0.14032073E+00 0.19208994E+03</pdfrwt>
<totfact> 0.23652371E+03</totfact>
</mgrwt>
</event>
<event>
12    1  0.1050690E-001  0.1798576E+03  0.7546771E-02  0.1169078E+00
         21   -1    0    0  503  502  0.00000000000E+00  0.00000000000E+00  0.28834422651E+02  0.28834422651E+02  0.00000000000E+00 0.  1.
         21   -1    0    0  501  503 -0.00000000000E+00 -0.00000000000E+00 -0.12631929596E+04  0.12631929596E+04  0.00000000000E+00 0.  1.
          6    2    1    2  501    0 -0.24511645252E+02 -0.67679543925E+01 -0.84719396258E+03  0.86512557772E+03  0.17337251524E+03 0.  0.
         24    2    3    3    0    0  0.12877008366E+02  0.57997499901E+02 -0.49726755024E+03  0.50726658379E+03  0.80714578392E+02 0.  0.
         -6    2    1    2    0  502  0.24511645252E+02  0.67679543925E+01 -0.38716457437E+03  0.42690180453E+03  0.17805088346E+03 0.  0.
        -24    2    5    5    0    0  0.85879855055E+00  0.31313032838E+02 -0.38369061974E+03  0.39231746712E+03  0.75586108362E+02 0.  0.
          5    1    3    3  501    0 -0.37388653617E+02 -0.64765454293E+02 -0.34992641234E+03  0.35785899394E+03  0.47000000000E+01 0. -1.
        -13    1    4    4    0    0  0.13326984949E+02  0.69975867567E+02 -0.48467259869E+03  0.48987933054E+03  0.00000000000E+00 0.  1.
         14    1    4    4    0    0 -0.44997658328E+00 -0.11978367667E+02 -0.12594951550E+02  0.17387253246E+02  0.00000000000E+00 0. -1.
         -5    1    5    5    0  502  0.23652846701E+02 -0.24545078445E+02 -0.34739546361E+01  0.34584337405E+02  0.47000000000E+01 0.  1.
         11    1    6    6    0    0 -0.35314440074E+02  0.17198976638E+02 -0.25125740561E+03  0.25430925730E+03  0.00000000000E+00 0. -1.
        -12    1    6    6    0    0  0.36173238625E+02  0.14114056200E+02 -0.13243321413E+03  0.13800820983E+03  0.00000000000E+00 0.  1.
<mgrwt>
<rscale>  2 0.17868869E+03</rscale>
<asrwt>0</asrwt>
<pdfrwt beam="1">  1       21 0.44360632E-02 0.17985756E+03</pdfrwt>
<pdfrwt beam="2">  1       21 0.19433746E+00 0.17985756E+03</pdfrwt>
<totfact> 0.48508260E+04</totfact>
</mgrwt>
</event>
<event>
12    1  0.1050690E-001  0.1975152E+03  0.7546771E-02  0.1152012E+00
         21   -1    0    0  501  502  0.00000000000E+00  0.00000000000E+00  0.30948201247E+03  0.30948201247E+03  0.00000000000E+00 0.  1.
         21   -1    0    0  502  503 -0.00000000000E+00 -0.00000000000E+00 -0.18840904522E+03  0.18840904522E+03  0.00000000000E+00 0.  1.
         -6    2    1    2    0  503  0.80816793342E+02 -0.46610410842E+02  0.20421460014E+03  0.28359033257E+03  0.17325123183E+03 0.  0.
        -24    2    3    3    0    0 -0.17110192793E+02  0.30474222926E+01  0.62834633961E+02  0.10452057007E+03  0.81696467872E+02 0.  0.
          6    2    1    2  501    0 -0.80816793342E+02  0.46610410842E+02 -0.83141632885E+02  0.21430072511E+03  0.17409303599E+03 0.  0.
         24    2    5    5    0    0 -0.69607154456E+02 -0.37275611824E+02 -0.39984897742E+02  0.11918440374E+03  0.79821694170E+02 0.  0.
          5    1    5    5  501    0 -0.11209638886E+02  0.83886022666E+02 -0.43156735143E+02  0.95116321370E+02  0.47000000000E+01 0. -1.
        -13    1    6    6    0    0 -0.73699066007E+02 -0.98319254427E+01 -0.50094392645E+02  0.89653038224E+02  0.00000000000E+00 0.  1.
         14    1    6    6    0    0  0.40919115509E+01 -0.27443686381E+02  0.10109494904E+02  0.29531365521E+02  0.00000000000E+00 0. -1.
         -5    1    3    3    0  503  0.97926986136E+02 -0.49657833135E+02  0.14137996618E+03  0.17906976250E+03  0.47000000000E+01 0.  1.
         11    1    4    4    0    0 -0.67761200129E+01  0.17330481753E+02 -0.15505354864E+02  0.24221425013E+02  0.00000000000E+00 0. -1.
        -12    1    4    4    0    0 -0.10334072780E+02 -0.14283059460E+02  0.78339988825E+02  0.80299145057E+02  0.00000000000E+00 0.  1.
<mgrwt>
<rscale>  2 0.19732958E+03</rscale>
<asrwt>0</asrwt>
<pdfrwt beam="1">  1       21 0.47612617E-01 0.19751524E+03</pdfrwt>
<pdfrwt beam="2">  1       21 0.28986007E-01 0.19751524E+03</pdfrwt>
<totfact> 0.47943781E+04</totfact>
</mgrwt>
</event>
<event>
12    1  0.1050690E-001  0.2809885E+03  0.7546771E-02  0.1095508E+00
         21   -1    0    0  503  502  0.00000000000E+00  0.00000000000E+00  0.33262402911E+03  0.33262402911E+03  0.00000000000E+00 0. -1.
         21   -1    0    0  501  503 -0.00000000000E+00 -0.00000000000E+00 -0.29010973948E+03  0.29010973948E+03  0.00000000000E+00 0.  1.
          6    2    1    2  501    0  0.20090970802E+03  0.94894378276E+02  0.15684749028E+03  0.32180071107E+03  0.17200264136E+03 0.  0.
         24    2    3    3    0    0  0.74738325207E+02  0.23144798588E+02  0.13321613616E+03  0.17466896425E+03  0.81493614367E+02 0.  0.
         -6    2    1    2    0  502 -0.20090970802E+03 -0.94894378276E+02 -0.11433320066E+03  0.30093305752E+03  0.16768712096E+03 0.  0.
        -24    2    5    5    0    0 -0.62253820905E+02 -0.60749745077E+02  0.92948721697E+00  0.11736048816E+03  0.78781663416E+02 0.  0.
          5    1    3    3  501    0  0.12617138281E+03  0.71749579688E+02  0.23631354125E+02  0.14713174682E+03  0.47000000000E+01 0. -1.
        -13    1    4    4    0    0  0.66144575629E+02 -0.14946690398E+02  0.55248752828E+02  0.87469612598E+02  0.00000000000E+00 0.  1.
         14    1    4    4    0    0  0.85937495780E+01  0.38091488986E+02  0.77967383329E+02  0.87199351650E+02  0.00000000000E+00 0. -1.
         -5    1    5    5    0  502 -0.13865588711E+03 -0.34144633199E+02 -0.11526268787E+03  0.18357256936E+03  0.47000000000E+01 0.  1.
         13    1    6    6    0    0 -0.60510634016E+02 -0.29723060811E+02  0.30923939681E+02  0.74170662788E+02  0.00000000000E+00 0. -1.
        -14    1    6    6    0    0 -0.17431868888E+01 -0.31026684267E+02 -0.29994452464E+02  0.43189825373E+02  0.00000000000E+00 0.  1.
<mgrwt>
<rscale>  2 0.28033105E+03</rscale>
<asrwt>0</asrwt>
<pdfrwt beam="1">  1       21 0.51172927E-01 0.28098855E+03</pdfrwt>
<pdfrwt beam="2">  1       21 0.44632268E-01 0.28098855E+03</pdfrwt>
<totfact> 0.16694232E+04</totfact>
</mgrwt>
</event>
<event>
12    1  0.1050690E-001  0.1794341E+03  0.7546771E-02  0.1168583E+00
         21   -1    0    0  501  502  0.00000000000E+00  0.00000000000E+00  0.76663741992E+03  0.76663741992E+03  0.00000000000E+00 0.  1.
         21   -1    0    0  502  503 -0.00000000000E+00 -0.00000000000E+00 -0.42093836860E+02  0.42093836860E+02  0.00000000000E+00 0.  1.
         -6    2    1    2    0  503  0.33693477151E+02  0.32790982168E+02  0.39648073998E+03  0.43480367589E+03  0.17218234658E+03 0.  0.
        -24    2    3    3    0    0 -0.20874200559E+02  0.56091522507E+02  0.13334955988E+03  0.16502477647E+03  0.76609924825E+02 0.  0.
          6    2    1    2  501    0 -0.33693477151E+02 -0.32790982168E+02  0.32806284308E+03  0.37392758089E+03  0.17316497287E+03 0.  0.
         24    2    5    5    0    0 -0.25443392716E+02 -0.16922822436E+02  0.34063384680E+03  0.35156729196E+03  0.81451795799E+02 0.  0.
          5    1    5    5  501    0 -0.82500844355E+01 -0.15868159732E+02 -0.12571003723E+02  0.22360288930E+02  0.47000000000E+01 0. -1.
        -11    1    6    6    0    0 -0.24987704076E+02  0.12371488374E+02  0.36035127754E+02  0.45562808428E+02  0.00000000000E+00 0.  1.
         12    1    6    6    0    0 -0.45568863984E+00 -0.29294310810E+02  0.30459871905E+03  0.30600448354E+03  0.00000000000E+00 0. -1.
         -5    1    3    3    0  503  0.54567677711E+02 -0.23300540340E+02  0.26313118010E+03  0.26977889942E+03  0.47000000000E+01 0.  1.
         13    1    4    4    0    0 -0.81880778951E+00  0.22000534101E+02 -0.37508712229E+01  0.22333002079E+02  0.00000000000E+00 0. -1.
        -14    1    4    4    0    0 -0.20055392770E+02  0.34090988406E+02  0.13710043110E+03  0.14269177439E+03  0.00000000000E+00 0.  1.
<mgrwt>
<rscale>  2 0.17919663E+03</rscale>
<asrwt>0</asrwt>
<pdfrwt beam="1">  1       21 0.11794421E+00 0.17943413E+03</pdfrwt>
<pdfrwt beam="2">  1       21 0.64759755E-02 0.17943413E+03</pdfrwt>
<totfact> 0.95883272E+04</totfact>
</mgrwt>
</event>
<event>
12    1  0.1050690E-001  0.2086696E+03  0.7546771E-02  0.1143079E+00
         21   -1    0    0  501  502  0.00000000000E+00  0.00000000000E+00  0.66861820912E+02  0.66861820912E+02  0.00000000000E+00 0.  1.
         21   -1    0    0  502  503 -0.00000000000E+00 -0.00000000000E+00 -0.68784670372E+03  0.68784670372E+03  0.00000000000E+00 0.  1.
         -6    2    1    2    0  503 -0.54430996094E+02  0.98865825552E+02 -0.40714643852E+03  0.45750544905E+03  0.17551589307E+03 0.  0.
        -24    2    3    3    0    0 -0.74839024524E+02  0.44473919474E+02 -0.13664699045E+03  0.18079800702E+03  0.80229110924E+02 0.  0.
          6    2    1    2  501    0  0.54430996094E+02 -0.98865825552E+02 -0.21383844429E+03  0.29720307558E+03  0.17281667477E+03 0.  0.
         24    2    5    5    0    0  0.21439460110E+02  0.16837656588E+02 -0.76070132094E+02  0.11423331012E+03  0.80742968828E+02 0.  0.
          5    1    5    5  501    0  0.32991535983E+02 -0.11570348214E+03 -0.13776831220E+03  0.18296976546E+03  0.47000000000E+01 0. -1.
        -11    1    6    6    0    0  0.63790021332E+01 -0.23534137996E+02  0.26142136776E+01  0.24523079590E+02  0.00000000000E+00 0.  1.
         12    1    6    6    0    0  0.15060457977E+02  0.40371794584E+02 -0.78684345772E+02  0.89710230531E+02  0.00000000000E+00 0. -1.
         -5    1    3    3    0  503  0.20408028430E+02  0.54391906078E+02 -0.27049944807E+03  0.27670744203E+03  0.47000000000E+01 0.  1.
         11    1    4    4    0    0  0.32641943129E+01 -0.16151569211E+02 -0.73825267191E+01  0.18056296775E+02  0.00000000000E+00 0. -1.
        -12    1    4    4    0    0 -0.78103218836E+02  0.60625488684E+02 -0.12926446373E+03  0.16274171025E+03  0.00000000000E+00 0.  1.
<mgrwt>
<rscale>  2 0.20810101E+03</rscale>
<asrwt>0</asrwt>
<pdfrwt beam="1">  1       21 0.10286434E-01 0.20866963E+03</pdfrwt>
<pdfrwt beam="2">  1       21 0.10582257E+00 0.20866963E+03</pdfrwt>
<totfact> 0.54905474E+04</totfact>
</mgrwt>
</event>
<event>
12    1  0.1050690E-001  0.2002665E+03  0.7546771E-02  0.1150690E+00
         21   -1    0    0  503  502  0.00000000000E+00  0.00000000000E+00  0.83801485881E+03  0.83801485881E+03  0.00000000000E+00 0. -1.
         21   -1    0    0  501  503 -0.00000000000E+00 -0.00000000000E+00 -0.12692013499E+03  0.12692013499E+03  0.00000000000E+00 0.  1.
          6    2    1    2  501    0  0.71712062603E+01 -0.89428028850E+02 -0.30176614157E+02  0.19708742882E+03  0.17286997430E+03 0.  0.
         24    2    3    3    0    0  0.43926075616E+02 -0.71782123253E+01 -0.48466445103E+02  0.10504091528E+03  0.81875336518E+02 0.  0.
         -6    2    1    2    0  502 -0.71712062603E+01  0.89428028850E+02  0.74127133797E+03  0.76784756498E+03  0.17904716696E+03 0.  0.
        -24    2    5    5    0    0  0.57965085097E+01  0.98010272719E+02  0.74089929003E+03  0.75159810481E+03  0.79550864981E+02 0.  0.
          5    1    3    3  501    0 -0.36754869356E+02 -0.82249816525E+02  0.18289830947E+02  0.92046513545E+02  0.47000000000E+01 0. -1.
        -13    1    4    4    0    0 -0.15196608726E+02  0.43126729155E+01 -0.41506791615E+02  0.44411145162E+02  0.00000000000E+00 0.  1.
         14    1    4    4    0    0  0.59122684342E+02 -0.11490885241E+02 -0.69596534884E+01  0.60629770114E+02  0.00000000000E+00 0. -1.
         -5    1    5    5    0  502 -0.12967714770E+02 -0.85822438690E+01  0.37204794831E+00  0.16249460171E+02  0.47000000000E+01 0.  1.
         13    1    6    6    0    0 -0.30947384724E+02  0.59049098045E+02  0.29190635222E+03  0.29942253600E+03  0.00000000000E+00 0. -1.
        -14    1    6    6    0    0  0.36743893234E+02  0.38961174674E+02  0.44899293781E+03  0.45217556880E+03  0.00000000000E+00 0.  1.
<mgrwt>
<rscale>  2 0.19887637E+03</rscale>
<asrwt>0</asrwt>
<pdfrwt beam="1">  1       21 0.12892536E+00 0.20026654E+03</pdfrwt>
<pdfrwt beam="2">  1       21 0.19526175E-01 0.20026654E+03</pdfrwt>
<totfact> 0.10596200E+04</totfact>
</mgrwt>
</event>
<event>
12    1  0.1050690E-001  0.1789444E+03  0.7546771E-02  0.1169525E+00
         21   -1    0    0  501  502  0.00000000000E+00  0.00000000000E+00  0.42179996332E+03  0.42179996332E+03  0.00000000000E+00 0. -1.
         21   -1    0    0  502  503 -0.00000000000E+00 -0.00000000000E+00 -0.87681736627E+02  0.87681736627E+02  0.00000000000E+00 0. -1.
         -6    2    1    2    0  503 -0.40454788872E+02 -0.20830591591E+02  0.67973899251E+02  0.18877324674E+03  0.17013049173E+03 0.  0.
        -24    2    3    3    0    0 -0.75641286704E+02  0.28819891332E+02  0.56872757908E+02  0.12673627854E+03  0.79217317014E+02 0.  0.
          6    2    1    2  501    0  0.40454788872E+02  0.20830591591E+02  0.26614432744E+03  0.32070845321E+03  0.17306243221E+03 0.  0.
         24    2    5    5    0    0 -0.40594964181E+02 -0.16914186006E+02  0.13288905177E+03  0.16016939504E+03  0.77850460627E+02 0.  0.
          5    1    5    5  501    0  0.81049753053E+02  0.37744777597E+02  0.13325527567E+03  0.16053905817E+03  0.47000000000E+01 0. -1.
        -11    1    6    6    0    0 -0.46102483163E+02 -0.32881903498E+02  0.13155622662E+03  0.14322604265E+03  0.00000000000E+00 0.  1.
         12    1    6    6    0    0  0.55075189817E+01  0.15967717492E+02  0.13328251587E+01  0.16943352388E+02  0.00000000000E+00 0. -1.
         -5    1    3    3    0  503  0.35186497833E+02 -0.49650482923E+02  0.11101141343E+02  0.62036968199E+02  0.47000000000E+01 0.  1.
         11    1    4    4    0    0 -0.76899015932E+02 -0.27211878141E+01  0.22722851124E+02  0.80232110016E+02  0.00000000000E+00 0. -1.
        -12    1    4    4    0    0  0.12577292279E+01  0.31541079146E+02  0.34149906784E+02  0.46504168521E+02  0.00000000000E+00 0.  1.
<mgrwt>
<rscale>  2 0.17823169E+03</rscale>
<asrwt>0</asrwt>
<pdfrwt beam="1">  1       21 0.64892301E-01 0.17894443E+03</pdfrwt>
<pdfrwt beam="2">  1       21 0.13489498E-01 0.17894443E+03</pdfrwt>
<totfact> 0.10456058E+05</totfact>
</mgrwt>
</event>
<event>
12    1  0.1050690E-001  0.1926863E+03  0.7546771E-02  0.1156635E+00
         21   -1    0    0  501  502  0.00000000000E+00  0.00000000000E+00  0.95097284529E+02  0.95097284529E+02  0.00000000000E+00 0.  1.
         21   -1    0    0  502  503 -0.00000000000E+00 -0.00000000000E+00 -0.40149684068E+03  0.40149684068E+03  0.00000000000E+00 0.  1.
         -6    2    1    2    0  503  0.38441443279E+02  0.70532218252E+02 -0.10419782941E+03  0.21905524459E+03  0.17514415251E+03 0.  0.
        -24    2    3    3    0    0  0.65942590076E+02  0.65846143970E+01 -0.13731732768E+02  0.10481070969E+03  0.80030881841E+02 0.  0.
          6    2    1    2  501    0 -0.38441443279E+02 -0.70532218252E+02 -0.20220172675E+03  0.27753888062E+03  0.17230714896E+03 0.  0.
         24    2    5    5    0    0 -0.57658653571E+02 -0.17951024088E+02 -0.19677215487E+03  0.22109728778E+03  0.80733946617E+02 0.  0.
          5    1    5    5  501    0  0.19217210292E+02 -0.52581194165E+02 -0.54295718802E+01  0.56441592837E+02  0.47000000000E+01 0. -1.
        -11    1    6    6    0    0 -0.41077228886E+02 -0.16535956144E+02 -0.29975481327E+02  0.53472479458E+02  0.00000000000E+00 0.  1.
         12    1    6    6    0    0 -0.16581424684E+02 -0.14150679437E+01 -0.16679667354E+03  0.16762480832E+03  0.00000000000E+00 0. -1.
         -5    1    3    3    0  503 -0.27501146797E+02  0.63947603855E+02 -0.90466096637E+02  0.11424453490E+03  0.47000000000E+01 0.  1.
         11    1    4    4    0    0 -0.82591696192E+01  0.21879734221E+02  0.99769972608E+01  0.25425914472E+02  0.00000000000E+00 0. -1.
        -12    1    4    4    0    0  0.74201759695E+02 -0.15295119824E+02 -0.23708730029E+02  0.79384795219E+02  0.00000000000E+00 0.  1.
<mgrwt>
<rscale>  2 0.19203929E+03</rscale>
<asrwt>0</asrwt>
<pdfrwt beam="1">  1       21 0.14630352E-01 0.19268631E+03</pdfrwt>
<pdfrwt beam="2">  1       21 0.61768743E-01 0.19268631E+03</pdfrwt>
<totfact> 0.99925396E+04</totfact>
</mgrwt>
</event>
<event>
12    1  0.1050690E-001  0.2717251E+03  0.7546771E-02  0.1100335E+00
         21   -1    0    0  503  502  0.00000000000E+00  0.00000000000E+00  0.94003676828E+02  0.94003676828E+02  0.00000000000E+00 0.  1.
         21   -1    0    0  501  503 -0.00000000000E+00 -0.00000000000E+00 -0.79868133830E+03  0.79868133830E+03  0.00000000000E+00 0. -1.
          6    2    1    2  501    0  0.21020915652E+03  0.14041489903E+02 -0.41168309309E+03  0.49327224863E+03  0.17160853478E+03 0.  0.
         24    2    3    3    0    0  0.19059277286E+03 -0.42319862519E+02 -0.30308305101E+03  0.36926634678E+03  0.79885688480E+02 0.  0.
         -6    2    1    2    0  502 -0.21020915652E+03 -0.14041489903E+02 -0.29299456838E+03  0.39941276649E+03  0.17117151636E+03 0.  0.
        -24    2    5    5    0    0 -0.21049370418E+03 -0.29250124020E+01 -0.30697386576E+03  0.38094203845E+03  0.81041515285E+02 0.  0.
          5    1    3    3  501    0  0.19616383663E+02  0.56361352421E+02 -0.10860004208E+03  0.12400590185E+03  0.47000000000E+01 0. -1.
        -13    1    4    4    0    0  0.99939536819E+02 -0.30818185934E+02 -0.92145391363E+02  0.13938595608E+03  0.00000000000E+00 0.  1.
         14    1    4    4    0    0  0.90653236041E+02 -0.11501676585E+02 -0.21093765965E+03  0.22988039070E+03  0.00000000000E+00 0. -1.
         -5    1    5    5    0  502  0.28454765742E+00 -0.11116477501E+02  0.13979297378E+02  0.18470728047E+02  0.47000000000E+01 0.  1.
         13    1    6    6    0    0 -0.10377139824E+03  0.39066987879E+02 -0.14945137493E+03  0.18609257402E+03  0.00000000000E+00 0. -1.
        -14    1    6    6    0    0 -0.10672230594E+03 -0.41992000281E+02 -0.15752249083E+03  0.19484946443E+03  0.00000000000E+00 0.  1.
<mgrwt>
<rscale>  2 0.27165615E+03</rscale>
<asrwt>0</asrwt>
<pdfrwt beam="1">  1       21 0.14462104E-01 0.27172512E+03</pdfrwt>
<pdfrwt beam="2">  1       21 0.12287405E+00 0.27172512E+03</pdfrwt>
<totfact> 0.19974651E+04</totfact>
</mgrwt>
</event>
<event>
12    1  0.1050690E-001  0.2151632E+03  0.7546771E-02  0.1137673E+00
         21   -1    0    0  503  502  0.00000000000E+00  0.00000000000E+00  0.17308604570E+03  0.17308604570E+03  0.00000000000E+00 0. -1.
         21   -1    0    0  501  503 -0.00000000000E+00 -0.00000000000E+00 -0.27092963454E+03  0.27092963454E+03  0.00000000000E+00 0. -1.
          6    2    1    2  501    0  0.12098964571E+03  0.35668879192E+02 -0.20836261423E+02  0.21548702610E+03  0.17346395970E+03 0.  0.
         24    2    3    3    0    0  0.12394870464E+03 -0.27902708582E+02 -0.25579511075E+02  0.15149725177E+03  0.78455486603E+02 0.  0.
         -6    2    1    2    0  502 -0.12098964571E+03 -0.35668879192E+02 -0.77007327423E+02  0.22852865414E+03  0.17431137076E+03 0.  0.
        -24    2    5    5    0    0 -0.10299352447E+03  0.68915780536E+01 -0.11059877391E+03  0.17120738254E+03  0.80154345574E+02 0.  0.
          5    1    3    3  501    0 -0.29590589315E+01  0.63571587774E+02  0.47432496525E+01  0.63989774333E+02  0.47000000000E+01 0. -1.
        -13    1    4    4    0    0  0.45964416897E+02 -0.16500263449E+02 -0.49097277599E+02  0.69249757994E+02  0.00000000000E+00 0.  1.
         14    1    4    4    0    0  0.77984287743E+02 -0.11402445133E+02  0.23517766524E+02  0.82247493774E+02  0.00000000000E+00 0. -1.
         -5    1    5    5    0  502 -0.17996121237E+02 -0.42560457246E+02  0.33591446490E+02  0.57321271600E+02  0.47000000000E+01 0.  1.
         11    1    6    6    0    0 -0.72487553779E+02 -0.18003990990E+02 -0.10856966054E+03  0.13177996940E+03  0.00000000000E+00 0. -1.
        -12    1    6    6    0    0 -0.30505970693E+02  0.24895569044E+02 -0.20291133684E+01  0.39427413141E+02  0.00000000000E+00 0.  1.
<mgrwt>
<rscale>  2 0.21499154E+03</rscale>
<asrwt>0</asrwt>
<pdfrwt beam="1">  1       21 0.26628622E-01 0.21516323E+03</pdfrwt>
<pdfrwt beam="2">  1       21 0.41681482E-01 0.21516323E+03</pdfrwt>
<totfact> 0.73656335E+04</totfact>
</mgrwt>
</event>
<event>
12    1  0.1050690E-001  0.2381766E+03  0.7546771E-02  0.1121188E+00
         21   -1    0    0  501  502  0.00000000000E+00  0.00000000000E+00  0.11026284645E+03  0.11026284645E+03  0.00000000000E+00 0. -1.
         21   -1    0    0  502  503 -0.00000000000E+00 -0.00000000000E+00 -0.51250564577E+03  0.51250564577E+03  0.00000000000E+00 0.  1.
         -6    2    1    2    0  503 -0.14786746579E+03  0.67013550570E+02 -0.20760612333E+03  0.31517859498E+03  0.17286306977E+03 0.  0.
        -24    2    3    3    0    0 -0.98870284548E+02  0.49410229683E+02 -0.44520733015E+02  0.14391991575E+03  0.80710237999E+02 0.  0.
          6    2    1    2  501    0  0.14786746579E+03 -0.67013550570E+02 -0.19463667599E+03  0.30758989724E+03  0.17427709501E+03 0.  0.
         24    2    5    5    0    0  0.25593727850E+01 -0.32015745087E+02 -0.97480314060E+02  0.12926228596E+03  0.78579695982E+02 0.  0.
          5    1    5    5  501    0  0.14530809300E+03 -0.34997805484E+02 -0.97156361930E+02  0.17832761128E+03  0.47000000000E+01 0. -1.
        -11    1    6    6    0    0  0.15585606328E+02 -0.28969007709E+01 -0.96029981614E+02  0.97329648759E+02  0.00000000000E+00 0.  1.
         12    1    6    6    0    0 -0.13026233543E+02 -0.29118844316E+02 -0.14503324456E+01  0.31932637204E+02  0.00000000000E+00 0. -1.
         -5    1    3    3    0  503 -0.48997181240E+02  0.17603320887E+02 -0.16308539032E+03  0.17125867923E+03  0.47000000000E+01 0.  1.
         11    1    4    4    0    0 -0.10825817693E+03  0.45665352880E+02 -0.54674267073E+02  0.12959333627E+03  0.00000000000E+00 0. -1.
        -12    1    4    4    0    0  0.93878923845E+01  0.37448768035E+01  0.10153534058E+02  0.14326579479E+02  0.00000000000E+00 0.  1.
<mgrwt>
<rscale>  2 0.23791804E+03</rscale>
<asrwt>0</asrwt>
<pdfrwt beam="1">  1       21 0.16963515E-01 0.23817663E+03</pdfrwt>
<pdfrwt beam="2">  1       21 0.78847022E-01 0.23817663E+03</pdfrwt>
<totfact> 0.43546566E+04</totfact>
</mgrwt>
</event>
<event>
12    1  0.1050690E-001  0.2503227E+03  0.7546771E-02  0.1113827E+00
         21   -1    0    0  503  502  0.00000000000E+00  0.00000000000E+00  0.62855675632E+03  0.62855675632E+03  0.00000000000E+00 0.  1.
         21   -1    0    0  501  503 -0.00000000000E+00 -0.00000000000E+00 -0.12570132889E+03  0.12570132889E+03  0.00000000000E+00 0.  1.
          6    2    1    2  501    0 -0.60643359750E+02  0.16405025552E+03  0.72223277534E+02  0.25615617135E+03  0.17265479688E+03 0.  0.
         24    2    3    3    0    0  0.19951486299E+02  0.57215335247E+02  0.68393799463E+02  0.12219354857E+03  0.81128879657E+02 0.  0.
         -6    2    1    2    0  502  0.60643359750E+02 -0.16405025552E+03  0.43063214990E+03  0.49810191386E+03  0.17908479737E+03 0.  0.
        -24    2    5    5    0    0  0.33613455229E+02 -0.12320603374E+03  0.14683337455E+03  0.21006944854E+03  0.79117268693E+02 0.  0.
          5    1    3    3  501    0 -0.80594846049E+02  0.10683492028E+03  0.38294780717E+01  0.13396262278E+03  0.47000000000E+01 0. -1.
        -13    1    4    4    0    0 -0.81216717265E+01  0.36294107110E+02 -0.81040013737E+01  0.38064400702E+02  0.00000000000E+00 0.  1.
         14    1    4    4    0    0  0.28073158026E+02  0.20921228137E+02  0.76497800836E+02  0.84129147869E+02  0.00000000000E+00 0. -1.
         -5    1    5    5    0  502  0.27029904521E+02 -0.40844221781E+02  0.28379877535E+03  0.28803246532E+03  0.47000000000E+01 0.  1.
         11    1    6    6    0    0  0.12835964936E+01 -0.47107872465E+02  0.70301105697E+01  0.47646843786E+02  0.00000000000E+00 0. -1.
        -12    1    6    6    0    0  0.32329858735E+02 -0.76098161276E+02  0.13980326398E+03  0.16242260476E+03  0.00000000000E+00 0.  1.
<mgrwt>
<rscale>  2 0.24917510E+03</rscale>
<asrwt>0</asrwt>
<pdfrwt beam="1">  1       21 0.96701038E-01 0.25032273E+03</pdfrwt>
<pdfrwt beam="2">  1       21 0.19338666E-01 0.25032273E+03</pdfrwt>
<totfact> 0.21150289E+04</totfact>
</mgrwt>
</event>
<event>
12    1  0.1050690E-001  0.1988800E+03  0.7546771E-02  0.1151278E+00
         21   -1    0    0  503  502  0.00000000000E+00  0.00000000000E+00  0.16223921617E+03  0.16223921617E+03  0.00000000000E+00 0. -1.
         21   -1    0    0  501  503 -0.00000000000E+00 -0.00000000000E+00 -0.32519326739E+03  0.32519326739E+03  0.00000000000E+00 0.  1.
          6    2    1    2  501    0 -0.68972347797E+02 -0.65522760502E+02 -0.20548581067E+03  0.28405547985E+03  0.17150125463E+03 0.  0.
         24    2    3    3    0    0  0.16039600888E+01  0.23518600842E+02 -0.83574492574E+02  0.11734063724E+03  0.78920416027E+02 0.  0.
         -6    2    1    2    0  502  0.68972347797E+02  0.65522760502E+02  0.42531759454E+02  0.20337700371E+03  0.17465061744E+03 0.  0.
        -24    2    5    5    0    0 -0.38043887715E+01  0.90707362579E+02  0.27587720024E+02  0.12478863382E+03  0.81048268550E+02 0.  0.
          5    1    3    3  501    0 -0.70576307886E+02 -0.89041361345E+02 -0.12191131810E+03  0.16671484261E+03  0.47000000000E+01 0. -1.
        -13    1    4    4    0    0 -0.16971560558E+02 -0.13084104314E+02 -0.71370635000E+02  0.74518421842E+02  0.00000000000E+00 0.  1.
         14    1    4    4    0    0  0.18575520647E+02  0.36602705157E+02 -0.12203857574E+02  0.42822215400E+02  0.00000000000E+00 0. -1.
         -5    1    5    5    0  502  0.72776736568E+02 -0.25184602077E+02  0.14944039430E+02  0.78588369889E+02  0.47000000000E+01 0.  1.
         13    1    6    6    0    0 -0.18113550790E+02  0.48264271744E+02 -0.23663946303E+02  0.56723213977E+02  0.00000000000E+00 0. -1.
        -14    1    6    6    0    0  0.14309162018E+02  0.42443090835E+02  0.51251666328E+02  0.68065419845E+02  0.00000000000E+00 0.  1.
<mgrwt>
<rscale>  2 0.19818641E+03</rscale>
<asrwt>0</asrwt>
<pdfrwt beam="1">  1       21 0.24959880E-01 0.19888000E+03</pdfrwt>
<pdfrwt beam="2">  1       21 0.50029733E-01 0.19888000E+03</pdfrwt>
<totfact> 0.57651765E+04</totfact>
</mgrwt>
</event>
<event>
12    1  0.1050690E-001  0.1789878E+03  0.7546771E-02  0.1169042E+00
         21   -1    0    0  501  502  0.00000000000E+00  0.00000000000E+00  0.73016618672E+03  0.73016618672E+03  0.00000000000E+00 0. -1.
         21   -1    0    0  502  503 -0.00000000000E+00 -0.00000000000E+00 -0.17687021458E+03  0.17687021458E+03  0.00000000000E+00 0. -1.
         -6    2    1    2    0  503 -0.16213704589E+01  0.48112404526E+02 -0.11719335899E+03  0.21306769276E+03  0.17130711017E+03 0.  0.
        -24    2    3    3    0    0  0.49545907884E+02 -0.17978002677E+02 -0.53795224336E+02  0.10805604685E+03  0.77486628086E+02 0.  0.
          6    2    1    2  501    0  0.16213704589E+01 -0.48112404526E+02  0.67048933114E+03  0.69396870854E+03  0.17239255482E+03 0.  0.
         24    2    5    5    0    0 -0.30197728829E+02 -0.39166013426E+02  0.64292603491E+03  0.65067531076E+03  0.87055121758E+02 0.  0.
          5    1    5    5  501    0  0.31819099288E+02 -0.89463910994E+01  0.27563296224E+02  0.43293397786E+02  0.47000000000E+01 0. -1.
        -11    1    6    6    0    0  0.94537542331E+01  0.23776076185E+02  0.18028707660E+03  0.18209367165E+03  0.00000000000E+00 0.  1.
         12    1    6    6    0    0 -0.39651483062E+02 -0.62942089611E+02  0.46263895832E+03  0.46858163910E+03  0.00000000000E+00 0. -1.
         -5    1    3    3    0  503 -0.51167278343E+02  0.66090407203E+02 -0.63398134656E+02  0.10501164590E+03  0.47000000000E+01 0.  1.
         13    1    4    4    0    0  0.41098232867E+02  0.23928940979E+02 -0.13811595900E+02  0.49521905683E+02  0.00000000000E+00 0. -1.
        -14    1    4    4    0    0  0.84476750166E+01 -0.41906943656E+02 -0.39983628436E+02  0.58534141171E+02  0.00000000000E+00 0.  1.
<mgrwt>
<rscale>  2 0.17872590E+03</rscale>
<asrwt>0</asrwt>
<pdfrwt beam="1">  1       21 0.11233326E+00 0.17898778E+03</pdfrwt>
<pdfrwt beam="2">  1       21 0.27210803E-01 0.17898778E+03</pdfrwt>
<totfact> 0.80741736E+03</totfact>
</mgrwt>
</event>
<event>
12    1  0.1050690E-001  0.1797914E+03  0.7546771E-02  0.1168118E+00
         21   -1    0    0  503  502  0.00000000000E+00  0.00000000000E+00  0.34832650582E+02  0.34832650582E+02  0.00000000000E+00 0.  1.
         21   -1    0    0  501  503 -0.00000000000E+00 -0.00000000000E+00 -0.92563399791E+03  0.92563399791E+03  0.00000000000E+00 0.  1.
          6    2    1    2  501    0  0.25846894893E+02 -0.37911540731E+02 -0.44349323484E+03  0.47855114115E+03  0.17383785103E+03 0.  0.
         24    2    3    3    0    0 -0.31017033995E+02 -0.41673420159E+02 -0.13771752860E+03  0.16747473466E+03  0.79893295844E+02 0.  0.
         -6    2    1    2    0  502 -0.25846894893E+02  0.37911540731E+02 -0.44730811249E+03  0.48191550734E+03  0.17335703569E+03 0.  0.
        -24    2    5    5    0    0  0.37186145321E+02  0.58857111821E+02 -0.21340502936E+03  0.23871883096E+03  0.81228102790E+02 0.  0.
          5    1    3    3  501    0  0.56863928889E+02  0.37618794285E+01 -0.30577570624E+03  0.31107640649E+03  0.47000000000E+01 0. -1.
        -13    1    4    4    0    0  0.75200149651E+00  0.12099890411E+02  0.38681926912E+01  0.12725398575E+02  0.00000000000E+00 0.  1.
         14    1    4    4    0    0 -0.31769035492E+02 -0.53773310570E+02 -0.14158572129E+03  0.15474933609E+03  0.00000000000E+00 0. -1.
         -5    1    5    5    0  502 -0.63033040215E+02 -0.20945571090E+02 -0.23390308313E+03  0.24319667639E+03  0.47000000000E+01 0.  1.
         13    1    6    6    0    0  0.55858774163E+02  0.38620533371E+02 -0.92701208203E+02  0.11491415166E+03  0.00000000000E+00 0. -1.
        -14    1    6    6    0    0 -0.18672628842E+02  0.20236578450E+02 -0.12070382115E+03  0.12380467930E+03  0.00000000000E+00 0.  1.
<mgrwt>
<rscale>  2 0.17967507E+03</rscale>
<asrwt>0</asrwt>
<pdfrwt beam="1">  1       21 0.53588687E-02 0.17979139E+03</pdfrwt>
<pdfrwt beam="2">  1       21 0.14240525E+00 0.17979139E+03</pdfrwt>
<totfact> 0.82385428E+04</totfact>
</mgrwt>
</event>
<event>
12    1  0.1050690E-001  0.2438232E+03  0.7546771E-02  0.1117345E+00
         21   -1    0    0  503  502  0.00000000000E+00  0.00000000000E+00  0.11696166967E+03  0.11696166967E+03  0.00000000000E+00 0. -1.
         21   -1    0    0  501  503 -0.00000000000E+00 -0.00000000000E+00 -0.61400571482E+03  0.61400571482E+03  0.00000000000E+00 0. -1.
          6    2    1    2  501    0  0.83530702660E+02 -0.15074006511E+03 -0.40065839380E+03  0.46878438347E+03  0.17184790992E+03 0.  0.
         24    2    3    3    0    0  0.46284107312E+02 -0.15960480295E+03 -0.22942198663E+03  0.29325692242E+03  0.75823893879E+02 0.  0.
         -6    2    1    2    0  502 -0.83530702660E+02  0.15074006511E+03 -0.96385651347E+02  0.26218300102E+03  0.17248126484E+03 0.  0.
        -24    2    5    5    0    0 -0.64675919421E+02  0.12684883188E+03 -0.13307412677E+03  0.21428281203E+03  0.89077492185E+02 0.  0.
          5    1    3    3  501    0  0.37246595347E+02  0.88647378342E+01 -0.17123640717E+03  0.17552746105E+03  0.47000000000E+01 0. -1.
        -11    1    4    4    0    0  0.43523752634E+01  0.77204646830E+01 -0.49209512572E+01  0.10137283000E+02  0.00000000000E+00 0.  1.
         12    1    4    4    0    0  0.41931732049E+02 -0.16732526763E+03 -0.22450103538E+03  0.28311963942E+03  0.00000000000E+00 0. -1.
         -5    1    5    5    0  502 -0.18854783238E+02  0.23891233230E+02  0.36688475422E+02  0.47900188987E+02  0.47000000000E+01 0.  1.
         13    1    6    6    0    0 -0.54145210087E+02  0.96348436972E+02 -0.42977565464E+02  0.11858244480E+03  0.00000000000E+00 0. -1.
        -14    1    6    6    0    0 -0.10530709335E+02  0.30500394911E+02 -0.90096561305E+02  0.95700367229E+02  0.00000000000E+00 0.  1.
<mgrwt>
<rscale>  2 0.24371117E+03</rscale>
<asrwt>0</asrwt>
<pdfrwt beam="1">  1       21 0.17994103E-01 0.24382316E+03</pdfrwt>
<pdfrwt beam="2">  1       21 0.94462415E-01 0.24382316E+03</pdfrwt>
<totfact> 0.25651212E+04</totfact>
</mgrwt>
</event>
<event>
12    1  0.1050690E-001  0.1807369E+03  0.7546771E-02  0.1167787E+00
         21   -1    0    0  503  502  0.00000000000E+00  0.00000000000E+00  0.22591471149E+03  0.22591471149E+03  0.00000000000E+00 0.  1.
         21   -1    0    0  501  503 -0.00000000000E+00 -0.00000000000E+00 -0.18946286212E+03  0.18946286212E+03  0.00000000000E+00 0.  1.
          6    2    1    2  501    0 -0.41472973232E+02  0.42025549796E+01 -0.85491605757E+02  0.19734997617E+03  0.17291769563E+03 0.  0.
         24    2    3    3    0    0 -0.20892436368E+02  0.53554041678E+02 -0.10127032817E+03  0.14140191259E+03  0.80214040168E+02 0.  0.
         -6    2    1    2    0  502  0.41472973232E+02 -0.42025549796E+01  0.12194345512E+03  0.21802759744E+03  0.17586403277E+03 0.  0.
        -24    2    5    5    0    0 -0.19990147593E+02  0.44237911111E+02  0.90799252883E+02  0.13366975661E+03  0.85243772372E+02 0.  0.
          5    1    3    3  501    0 -0.20580536865E+02 -0.49351486698E+02  0.15778722413E+02  0.55948063576E+02  0.47000000000E+01 0. -1.
        -11    1    4    4    0    0 -0.32204019138E+02 -0.12780401706E+01 -0.70497803898E+02  0.77515628036E+02  0.00000000000E+00 0.  1.
         12    1    4    4    0    0  0.11311582770E+02  0.54832081848E+02 -0.30772524272E+02  0.63886284558E+02  0.00000000000E+00 0. -1.
         -5    1    5    5    0  502  0.61463120826E+02 -0.48440466091E+02  0.31144202238E+02  0.84357840832E+02  0.47000000000E+01 0.  1.
         13    1    6    6    0    0 -0.44418930212E+02 -0.31129740963E+01  0.36259334635E+02  0.57423612888E+02  0.00000000000E+00 0. -1.
        -14    1    6    6    0    0  0.24428782619E+02  0.47350885208E+02  0.54539918248E+02  0.76246143723E+02  0.00000000000E+00 0.  1.
<mgrwt>
<rscale>  2 0.18001620E+03</rscale>
<asrwt>0</asrwt>
<pdfrwt beam="1">  1       21 0.34756110E-01 0.18073690E+03</pdfrwt>
<pdfrwt beam="2">  1       21 0.29148133E-01 0.18073690E+03</pdfrwt>
<totfact> 0.90348867E+04</totfact>
</mgrwt>
</event>
<event>
12    1  0.1050690E-001  0.2483804E+03  0.7546771E-02  0.1114605E+00
         21   -1    0    0  503  502  0.00000000000E+00  0.00000000000E+00  0.20414619213E+03  0.20414619213E+03  0.00000000000E+00 0. -1.
         21   -1    0    0  501  503 -0.00000000000E+00 -0.00000000000E+00 -0.38402119813E+03  0.38402119813E+03  0.00000000000E+00 0.  1.
          6    2    1    2  501    0  0.17565509721E+03 -0.93866859127E+01 -0.22762984247E+03  0.33690974474E+03  0.17535680161E+03 0.  0.
         24    2    3    3    0    0  0.36609517286E+02 -0.49319340418E+02 -0.70565051519E+02  0.12332199053E+03  0.80350686104E+02 0.  0.
         -6    2    1    2    0  502 -0.17565509721E+03  0.93866859127E+01  0.47754836474E+02  0.25125764553E+03  0.17293656924E+03 0.  0.
        -24    2    5    5    0    0 -0.90075821752E+02 -0.95891968005E+00  0.94623388199E+02  0.15302529300E+03  0.79677986367E+02 0.  0.
          5    1    3    3  501    0  0.13904557992E+03  0.39932654506E+02 -0.15706479095E+03  0.21358775421E+03  0.47000000000E+01 0. -1.
        -11    1    4    4    0    0  0.57233916060E+02 -0.47069958857E+02 -0.70920817944E+02  0.10257224085E+03  0.00000000000E+00 0.  1.
         12    1    4    4    0    0 -0.20624398774E+02 -0.22493815607E+01  0.35576642508E+00  0.20749749684E+02  0.00000000000E+00 0. -1.
         -5    1    5    5    0  502 -0.85579275455E+02  0.10345605593E+02 -0.46868551726E+02  0.98232352529E+02  0.47000000000E+01 0.  1.
         11    1    6    6    0    0 -0.51517520904E+01  0.29467342133E+02  0.20442190753E+02  0.36231863943E+02  0.00000000000E+00 0. -1.
        -12    1    6    6    0    0 -0.84924069661E+02 -0.30426261813E+02  0.74181197447E+02  0.11679342905E+03  0.00000000000E+00 0.  1.
<mgrwt>
<rscale>  2 0.24795363E+03</rscale>
<asrwt>0</asrwt>
<pdfrwt beam="1">  1       21 0.31407107E-01 0.24838042E+03</pdfrwt>
<pdfrwt beam="2">  1       21 0.59080184E-01 0.24838042E+03</pdfrwt>
<totfact> 0.25348748E+04</totfact>
</mgrwt>
</event>
<event>
12    1  0.1050690E-001  0.2349658E+03  0.7546771E-02  0.1123337E+00
         21   -1    0    0  501  502  0.00000000000E+00  0.00000000000E+00  0.24769864794E+04  0.24769864794E+04  0.00000000000E+00 0. -1.
         21   -1    0    0  502  503 -0.00000000000E+00 -0.00000000000E+00 -0.35491268722E+02  0.35491268722E+02  0.00000000000E+00 0. -1.
         -6    2    1    2    0  503 -0.74880920048E+02  0.13918478741E+03  0.45361267889E+03  0.51085556839E+03  0.17386601758E+03 0.  0.
        -24    2    3    3    0    0 -0.10795236912E+02  0.10423561281E+03  0.15575777240E+03  0.20415040882E+03  0.80220356753E+02 0.  0.
          6    2    1    2  501    0  0.74880920048E+02 -0.13918478741E+03  0.19878825318E+04  0.20016221797E+04  0.17272762660E+03 0.  0.
         24    2    5    5    0    0  0.99756332374E+02 -0.11683285393E+03  0.11412821336E+04  0.11543484818E+04  0.79964162367E+02 0.  0.
          5    1    5    5  501    0 -0.24875412326E+02 -0.22351933476E+02  0.84660039813E+03  0.84727369791E+03  0.47000000000E+01 0. -1.
        -11    1    6    6    0    0  0.66193317016E+02 -0.17738904017E+02  0.43967659877E+03  0.44498509575E+03  0.00000000000E+00 0.  1.
         12    1    6    6    0    0  0.33563015358E+02 -0.99093949916E+02  0.70160553487E+03  0.70936338606E+03  0.00000000000E+00 0. -1.
         -5    1    3    3    0  503 -0.64085683136E+02  0.34949174596E+02  0.29785490649E+03  0.30670515957E+03  0.47000000000E+01 0.  1.
         11    1    4    4    0    0 -0.40716737770E+02  0.28636593503E+02  0.70888994668E+02  0.86620764180E+02  0.00000000000E+00 0. -1.
        -12    1    4    4    0    0  0.29921500858E+02  0.75599019309E+02  0.84868777734E+02  0.11752964464E+03  0.00000000000E+00 0.  1.
<mgrwt>
<rscale>  2 0.23475529E+03</rscale>
<asrwt>0</asrwt>
<pdfrwt beam="1">  1       21 0.38107471E+00 0.23496585E+03</pdfrwt>
<pdfrwt beam="2">  1       21 0.54601971E-02 0.23496585E+03</pdfrwt>
<totfact> 0.24984090E+03</totfact>
</mgrwt>
</event>
<event>
12    1  0.1050690E-001  0.1799887E+03  0.7546771E-02  0.1167955E+00
         21   -1    0    0  501  502  0.00000000000E+00  0.00000000000E+00  0.18880602638E+03  0.18880602638E+03  0.00000000000E+00 0.  1.
         21   -1    0    0  502  503 -0.00000000000E+00 -0.00000000000E+00 -0.17401251301E+03  0.17401251301E+03  0.00000000000E+00 0. -1.
         -6    2    1    2    0  503  0.47272387315E+02 -0.96634459820E+01 -0.16373629028E+02  0.18015124942E+03  0.17279559066E+03 0.  0.
        -24    2    3    3    0    0  0.39866014072E+01  0.11713464516E+02 -0.70314248108E+02  0.10760945491E+03  0.80514613942E+02 0.  0.
          6    2    1    2  501    0 -0.47272387315E+02  0.96634459820E+01  0.31167142402E+02  0.18266728996E+03  0.17340094367E+03 0.  0.
         24    2    5    5    0    0  0.16769056634E+02  0.45582008155E+01 -0.42144037097E+02  0.85076362562E+02  0.71832368392E+02 0.  0.
          5    1    5    5  501    0 -0.64041443949E+02  0.51052451665E+01  0.73311179499E+02  0.97590927400E+02  0.47000000000E+01 0. -1.
        -11    1    6    6    0    0 -0.67313362276E+01  0.18627844363E+02  0.12870072798E+02  0.23620885819E+02  0.00000000000E+00 0.  1.
         12    1    6    6    0    0  0.23500392861E+02 -0.14069643548E+02 -0.55014109895E+02  0.61455476743E+02  0.00000000000E+00 0. -1.
         -5    1    3    3    0  503  0.43285785907E+02 -0.21376910498E+02  0.53940619080E+02  0.72541794510E+02  0.47000000000E+01 0.  1.
         13    1    4    4    0    0 -0.57922791713E+01  0.36976314109E+02 -0.61079078706E+01  0.37922352796E+02  0.00000000000E+00 0. -1.
        -14    1    4    4    0    0  0.97788805785E+01 -0.25262849593E+02 -0.64206340237E+02  0.69687102118E+02  0.00000000000E+00 0.  1.
<mgrwt>
<rscale>  2 0.17984279E+03</rscale>
<asrwt>0</asrwt>
<pdfrwt beam="1">  1       21 0.29047081E-01 0.17998874E+03</pdfrwt>
<pdfrwt beam="2">  1       21 0.26771156E-01 0.17998874E+03</pdfrwt>
<totfact> 0.15135378E+05</totfact>
</mgrwt>
</event>
<event>
12    1  0.1050690E-001  0.2031575E+03  0.7546771E-02  0.1147406E+00
         21   -1    0    0  501  502  0.00000000000E+00  0.00000000000E+00  0.13334901083E+03  0.13334901083E+03  0.00000000000E+00 0. -1.
         21   -1    0    0  502  503 -0.00000000000E+00 -0.00000000000E+00 -0.30749904907E+03  0.30749904907E+03  0.00000000000E+00 0. -1.
         -6    2    1    2    0  503 -0.30271831297E+02  0.10211082839E+03 -0.93272846802E+02  0.22354594553E+03  0.17300277677E+03 0.  0.
        -24    2    3    3    0    0  0.25116827001E+02  0.11857076368E+03 -0.56496726607E+02  0.15489169618E+03  0.78164419217E+02 0.  0.
          6    2    1    2  501    0  0.30271831297E+02 -0.10211082839E+03 -0.80877191438E+02  0.21730211437E+03  0.17127779708E+03 0.  0.
         24    2    5    5    0    0 -0.70767724917E+01 -0.10778614395E+03 -0.10604148788E+03  0.17166814428E+03  0.80976669919E+02 0.  0.
          5    1    5    5  501    0  0.37348603789E+02  0.56753155611E+01  0.25164296438E+02  0.45633970098E+02  0.47000000000E+01 0. -1.
        -11    1    6    6    0    0 -0.39441504882E+02 -0.28459113352E+02 -0.30223774121E+02  0.57262814830E+02  0.00000000000E+00 0.  1.
         12    1    6    6    0    0  0.32364732390E+02 -0.79327030600E+02 -0.75817713756E+02  0.11440532945E+03  0.00000000000E+00 0. -1.
         -5    1    3    3    0  503 -0.55388658298E+02 -0.16459935285E+02 -0.36776120195E+02  0.68654249353E+02  0.47000000000E+01 0.  1.
         11    1    4    4    0    0 -0.12592203003E+02  0.10213754606E+03 -0.36882612524E+02  0.10932048755E+03  0.00000000000E+00 0. -1.
        -12    1    4    4    0    0  0.37709030004E+02  0.16433217618E+02 -0.19614114083E+02  0.45571208634E+02  0.00000000000E+00 0.  1.
<mgrwt>
<rscale>  2 0.20278976E+03</rscale>
<asrwt>0</asrwt>
<pdfrwt beam="1">  1       21 0.20515233E-01 0.20315749E+03</pdfrwt>
<pdfrwt beam="2">  1       21 0.47307545E-01 0.20315749E+03</pdfrwt>
<totfact> 0.93680372E+04</totfact>
</mgrwt>
</event>
<event>
12    1  0.1050690E-001  0.1785363E+03  0.7546771E-02  0.1170238E+00
         21   -1    0    0  501  502  0.00000000000E+00  0.00000000000E+00  0.74940900917E+02  0.74940900917E+02  0.00000000000E+00 0.  1.
         21   -1    0    0  502  503 -0.00000000000E+00 -0.00000000000E+00 -0.42431925627E+03  0.42431925627E+03  0.00000000000E+00 0.  1.
         -6    2    1    2    0  503 -0.25788435531E+02 -0.20612134548E+02 -0.20835828710E+03  0.27174783722E+03  0.17130034366E+03 0.  0.
        -24    2    3    3    0    0  0.54638483661E+01 -0.84093316180E+00 -0.21878317989E+03  0.23303900047E+03  0.80065817489E+02 0.  0.
          6    2    1    2  501    0  0.25788435531E+02  0.20612134548E+02 -0.14102006826E+03  0.22751231997E+03  0.17545738111E+03 0.  0.
         24    2    5    5    0    0  0.65718545361E+02  0.27894771973E+02 -0.15081115128E+03  0.18549558776E+03  0.81040509729E+02 0.  0.
          5    1    5    5  501    0 -0.39930109829E+02 -0.72826374249E+01  0.97910830245E+01  0.42016732210E+02  0.47000000000E+01 0. -1.
        -11    1    6    6    0    0 -0.12578879109E+02  0.15076136633E+02 -0.62708615016E+01  0.20611690843E+02  0.00000000000E+00 0.  1.
         12    1    6    6    0    0  0.78297424470E+02  0.12818635340E+02 -0.14454028978E+03  0.16488389691E+03  0.00000000000E+00 0. -1.
         -5    1    3    3    0  503 -0.31252283897E+02 -0.19771201386E+02  0.10424892793E+02  0.38708836754E+02  0.47000000000E+01 0.  1.
         13    1    4    4    0    0 -0.16741282035E+02  0.77408849180E+01 -0.66993375396E+01  0.19623275643E+02  0.00000000000E+00 0. -1.
        -14    1    4    4    0    0  0.22205130401E+02 -0.85818180798E+01 -0.21208384235E+03  0.21341572483E+03  0.00000000000E+00 0.  1.
<mgrwt>
<rscale>  2 0.17750647E+03</rscale>
<asrwt>0</asrwt>
<pdfrwt beam="1">  1       21 0.11529369E-01 0.17853626E+03</pdfrwt>
<pdfrwt beam="2">  1       21 0.65279885E-01 0.17853626E+03</pdfrwt>
<totfact> 0.13675980E+05</totfact>
</mgrwt>
</event>
<event>
12    1  0.1050690E-001  0.2497305E+03  0.7546771E-02  0.1113540E+00
         21   -1    0    0  503  502  0.00000000000E+00  0.00000000000E+00  0.60507875851E+03  0.60507875851E+03  0.00000000000E+00 0. -1.
         21   -1    0    0  501  503 -0.00000000000E+00 -0.00000000000E+00 -0.13299440734E+03  0.13299440734E+03  0.00000000000E+00 0.  1.
          6    2    1    2  501    0  0.10094104429E+03  0.15125774857E+03  0.60645648553E+02  0.25698877436E+03  0.17116464159E+03 0.  0.
         24    2    3    3    0    0 -0.29798646898E+01  0.45053524836E+02 -0.28349823873E+02  0.83722572878E+02  0.64552745890E+02 0.  0.
         -6    2    1    2    0  502 -0.10094104429E+03 -0.15125774857E+03  0.41143870261E+03  0.48108439149E+03  0.17056489911E+03 0.  0.
        -24    2    5    5    0    0 -0.43026206341E+02 -0.21951328083E+02  0.83375490977E+02  0.12370246741E+03  0.77573917725E+02 0.  0.
          5    1    3    3  501    0  0.10392090898E+03  0.10620422374E+03  0.88995472427E+02  0.17326620148E+03  0.47000000000E+01 0. -1.
        -13    1    4    4    0    0  0.18583509773E+02  0.25071433518E+02 -0.41160924671E+02  0.51654093099E+02  0.00000000000E+00 0.  1.
         14    1    4    4    0    0 -0.21563374462E+02  0.19982091318E+02  0.12811100798E+02  0.32068479779E+02  0.00000000000E+00 0. -1.
         -5    1    5    5    0  502 -0.57914837946E+02 -0.12930642049E+03  0.32806321163E+03  0.35738192408E+03  0.47000000000E+01 0.  1.
         11    1    6    6    0    0  0.18297917587E+02 -0.77355053895E+01  0.46933823072E+02  0.50965042723E+02  0.00000000000E+00 0. -1.
        -12    1    6    6    0    0 -0.61324123929E+02 -0.14215822693E+02  0.36441667905E+02  0.72737424687E+02  0.00000000000E+00 0.  1.
<mgrwt>
<rscale>  2 0.24962779E+03</rscale>
<asrwt>0</asrwt>
<pdfrwt beam="1">  1       21 0.93089038E-01 0.24973053E+03</pdfrwt>
<pdfrwt beam="2">  1       21 0.20460678E-01 0.24973053E+03</pdfrwt>
<totfact> 0.20817109E+04</totfact>
</mgrwt>
</event>
<event>
12    1  0.1050690E-001  0.1790075E+03  0.7546771E-02  0.1168868E+00
         21   -1    0    0  503  502  0.00000000000E+00  0.00000000000E+00  0.86450036111E+02  0.86450036111E+02  0.00000000000E+00 0.  1.
         21   -1    0    0  501  503 -0.00000000000E+00 -0.00000000000E+00 -0.53493615708E+03  0.53493615708E+03  0.00000000000E+00 0.  1.
          6    2    1    2  501    0 -0.33506529791E+02 -0.40327587235E+02 -0.51801853979E+02  0.18635210336E+03  0.17115686524E+03 0.  0.
         24    2    3    3    0    0 -0.39037638705E+01  0.36149716465E+02  0.19119961178E+01  0.88207468132E+02  0.80342145429E+02 0.  0.
         -6    2    1    2    0  502  0.33506529791E+02  0.40327587235E+02 -0.39668426699E+03  0.43503408983E+03  0.17072565656E+03 0.  0.
        -24    2    5    5    0    0  0.86054442095E+02  0.48138965960E+02 -0.29834155785E+03  0.32316059357E+03  0.75513952673E+02 0.  0.
          5    1    3    3  501    0 -0.29602765920E+02 -0.76477303700E+02 -0.53713850097E+02  0.98144635226E+02  0.47000000000E+01 0. -1.
        -11    1    4    4    0    0 -0.31198881485E+02  0.35976958056E+02  0.23784178354E+02  0.53229680225E+02  0.00000000000E+00 0.  1.
         12    1    4    4    0    0  0.27295117615E+02  0.17275840950E+00 -0.21872182236E+02  0.34977787907E+02  0.00000000000E+00 0. -1.
         -5    1    5    5    0  502 -0.52547912305E+02 -0.78113787248E+01 -0.98342709139E+02  0.11187349626E+03  0.47000000000E+01 0.  1.
         11    1    6    6    0    0  0.11101574962E+02  0.41282786868E+02 -0.63471341500E+02  0.76525320320E+02  0.00000000000E+00 0. -1.
        -12    1    6    6    0    0  0.74952867133E+02  0.68561790922E+01 -0.23487021635E+03  0.24663527325E+03  0.00000000000E+00 0.  1.
<mgrwt>
<rscale>  2 0.17890432E+03</rscale>
<asrwt>0</asrwt>
<pdfrwt beam="1">  1       21 0.13300006E-01 0.17900747E+03</pdfrwt>
<pdfrwt beam="2">  1       21 0.82297869E-01 0.17900747E+03</pdfrwt>
<totfact> 0.63315774E+04</totfact>
</mgrwt>
</event>
<event>
12    1  0.1050690E-001  0.1736401E+03  0.7546771E-02  0.1174165E+00
         21   -1    0    0  501  502  0.00000000000E+00  0.00000000000E+00  0.19339138814E+03  0.19339138814E+03  0.00000000000E+00 0.  1.
         21   -1    0    0  502  503 -0.00000000000E+00 -0.00000000000E+00 -0.15673125214E+03  0.15673125214E+03  0.00000000000E+00 0.  1.
         -6    2    1    2    0  503 -0.12409860921E+02  0.50729523293E+01  0.32577173634E+02  0.17643459335E+03  0.17288190766E+03 0.  0.
        -24    2    3    3    0    0 -0.34210905368E+02 -0.57883877902E+02  0.28415001991E+02  0.10951477802E+03  0.81640338673E+02 0.  0.
          6    2    1    2  501    0  0.12409860921E+02 -0.50729523293E+01  0.40829623581E+01  0.17368804693E+03  0.17312171317E+03 0.  0.
         24    2    5    5    0    0 -0.29089846495E+02  0.42036068448E+02  0.38004994041E+02  0.10217385402E+03  0.79886586190E+02 0.  0.
          5    1    5    5  501    0  0.41499707415E+02 -0.47109020777E+02 -0.33922031683E+02  0.71514192911E+02  0.47000000000E+01 0. -1.
        -11    1    6    6    0    0 -0.41413770090E+02  0.24648310028E+02 -0.10383673502E+02  0.49299697927E+02  0.00000000000E+00 0.  1.
         12    1    6    6    0    0  0.12323923595E+02  0.17387758420E+02  0.48388667544E+02  0.52874156091E+02  0.00000000000E+00 0. -1.
         -5    1    3    3    0  503  0.21801044447E+02  0.62956830231E+02  0.41621716427E+01  0.66919815335E+02  0.47000000000E+01 0.  1.
         11    1    4    4    0    0  0.12407879483E+01 -0.66565844749E+02  0.63861486636E+01  0.66882988395E+02  0.00000000000E+00 0. -1.
        -12    1    4    4    0    0 -0.35451693316E+02  0.86819668476E+01  0.22028853328E+02  0.42631789621E+02  0.00000000000E+00 0.  1.
<mgrwt>
<rscale>  2 0.17358025E+03</rscale>
<asrwt>0</asrwt>
<pdfrwt beam="1">  1       21 0.29752521E-01 0.17364005E+03</pdfrwt>
<pdfrwt beam="2">  1       21 0.24112500E-01 0.17364005E+03</pdfrwt>
<totfact> 0.17674158E+05</totfact>
</mgrwt>
</event>
<event>
12    1  0.1050690E-001  0.1979312E+03  0.7546771E-02  0.1151696E+00
         21   -1    0    0  503  502  0.00000000000E+00  0.00000000000E+00  0.56976045122E+02  0.56976045122E+02  0.00000000000E+00 0.  1.
         21   -1    0    0  501  503 -0.00000000000E+00 -0.00000000000E+00 -0.77974732495E+03  0.77974732495E+03  0.00000000000E+00 0.  1.
          6    2    1    2  501    0 -0.36125501630E+02 -0.87643396136E+02 -0.50695789141E+03  0.54388865156E+03  0.17269089402E+03 0.  0.
         24    2    3    3    0    0  0.90251674982E+01 -0.61394502143E+02 -0.13663146179E+03  0.16986814165E+03  0.79600820689E+02 0.  0.
         -6    2    1    2    0  502  0.36125501630E+02  0.87643396136E+02 -0.21581338842E+03  0.29283471851E+03  0.17375366756E+03 0.  0.
        -24    2    5    5    0    0  0.90869412009E+02  0.54188188492E+02 -0.16212977230E+03  0.20904827998E+03  0.78876552199E+02 0.  0.
          5    1    3    3  501    0 -0.45150669128E+02 -0.26248893993E+02 -0.37032642962E+03  0.37402050991E+03  0.47000000000E+01 0. -1.
        -13    1    4    4    0    0 -0.14407287114E+02  0.56080009022E+01 -0.72745914544E+02  0.74370610317E+02  0.00000000000E+00 0.  1.
         14    1    4    4    0    0  0.23432454613E+02 -0.67002503045E+02 -0.63885547248E+02  0.95497531333E+02  0.00000000000E+00 0. -1.
         -5    1    5    5    0  502 -0.54743910380E+02  0.33455207645E+02 -0.53683616119E+02  0.83786438532E+02  0.47000000000E+01 0.  1.
         11    1    6    6    0    0  0.65989614465E+01 -0.16507642059E+02 -0.44908502388E+02  0.48299297357E+02  0.00000000000E+00 0. -1.
        -12    1    6    6    0    0  0.84270450563E+02  0.70695830550E+02 -0.11722126991E+03  0.16074898262E+03  0.00000000000E+00 0.  1.
<mgrwt>
<rscale>  2 0.19769770E+03</rscale>
<asrwt>0</asrwt>
<pdfrwt beam="1">  1       21 0.87655456E-02 0.19793118E+03</pdfrwt>
<pdfrwt beam="2">  1       21 0.11996112E+00 0.19793118E+03</pdfrwt>
<totfact> 0.53923013E+04</totfact>
</mgrwt>
</event>
<event>
12    1  0.1050690E-001  0.1803152E+03  0.7546771E-02  0.1168956E+00
         21   -1    0    0  503  502  0.00000000000E+00  0.00000000000E+00  0.20452921528E+02  0.20452921528E+02  0.00000000000E+00 0.  1.
         21   -1    0    0  501  503 -0.00000000000E+00 -0.00000000000E+00 -0.15634952648E+04  0.15634952648E+04  0.00000000000E+00 0.  1.
          6    2    1    2  501    0 -0.23739638088E+02  0.37245836203E+01 -0.68273917177E+03  0.70614896209E+03  0.17870684667E+03 0.  0.
         24    2    3    3    0    0  0.50185479304E+02 -0.16633823978E+02 -0.44910309033E+03  0.46020730988E+03  0.85451248600E+02 0.  0.
         -6    2    1    2    0  502  0.23739638088E+02 -0.37245836203E+01 -0.86030317145E+03  0.87779922419E+03  0.17272083905E+03 0.  0.
        -24    2    5    5    0    0  0.93849050702E+01 -0.39296560107E+02 -0.22950420739E+03  0.24581754176E+03  0.78241846518E+02 0.  0.
          5    1    3    3  501    0 -0.73925117391E+02  0.20358407598E+02 -0.23363608144E+03  0.24594165221E+03  0.47000000000E+01 0. -1.
        -13    1    4    4    0    0  0.21075375794E+02 -0.15012173097E+01 -0.40337072457E+03  0.40392371379E+03  0.00000000000E+00 0.  1.
         14    1    4    4    0    0  0.29110103510E+02 -0.15132606668E+02 -0.45732365759E+02  0.56283596090E+02  0.00000000000E+00 0. -1.
         -5    1    5    5    0  502  0.14354733017E+02  0.35571976487E+02 -0.63079896406E+03  0.63198168243E+03  0.47000000000E+01 0.  1.
         11    1    6    6    0    0  0.31173745005E+02 -0.38822021007E+02 -0.21227493169E+03  0.21803577302E+03  0.00000000000E+00 0. -1.
        -12    1    6    6    0    0 -0.21788839934E+02 -0.47453910001E+00 -0.17229275703E+02  0.27781768739E+02  0.00000000000E+00 0.  1.
<mgrwt>
<rscale>  2 0.17881388E+03</rscale>
<asrwt>0</asrwt>
<pdfrwt beam="1">  1       21 0.31466029E-02 0.18031522E+03</pdfrwt>
<pdfrwt beam="2">  1       21 0.24053776E+00 0.18031522E+03</pdfrwt>
<totfact> 0.44640395E+04</totfact>
</mgrwt>
</event>
<event>
12    1  0.1050690E-001  0.1933842E+03  0.7546771E-02  0.1155796E+00
         21   -1    0    0  501  502  0.00000000000E+00  0.00000000000E+00  0.12338270223E+04  0.12338270223E+04  0.00000000000E+00 0. -1.
         21   -1    0    0  502  503 -0.00000000000E+00 -0.00000000000E+00 -0.32301037295E+02  0.32301037295E+02  0.00000000000E+00 0. -1.
         -6    2    1    2    0  503  0.80796586372E+02  0.26803815423E+02  0.43636543199E+03  0.47729679015E+03  0.17364015307E+03 0.  0.
        -24    2    3    3    0    0  0.48186067648E+02 -0.12860634914E+02  0.40705968353E+03  0.41798716660E+03  0.80798468104E+02 0.  0.
          6    2    1    2  501    0 -0.80796586372E+02 -0.26803815423E+02  0.76516055306E+03  0.78883126949E+03  0.17186496700E+03 0.  0.
         24    2    5    5    0    0 -0.11699104949E+03 -0.48206889992E+02  0.61395963769E+03  0.63182191445E+03  0.79004335116E+02 0.  0.
          5    1    5    5  501    0  0.36194463119E+02  0.21403074570E+02  0.15120091537E+03  0.15700935504E+03  0.47000000000E+01 0. -1.
        -11    1    6    6    0    0 -0.23483549425E+01 -0.17199406868E+02  0.21783345479E+02  0.27854057295E+02  0.00000000000E+00 0.  1.
         12    1    6    6    0    0 -0.11464269455E+03 -0.31007483124E+02  0.59217629221E+03  0.60396785715E+03  0.00000000000E+00 0. -1.
         -5    1    3    3    0  503  0.32610518723E+02  0.39664450337E+02  0.29305748467E+02  0.59309623545E+02  0.47000000000E+01 0.  1.
         13    1    4    4    0    0  0.59904785007E+02 -0.44980182754E+01  0.16665225104E+03  0.17714905648E+03  0.00000000000E+00 0. -1.
        -14    1    4    4    0    0 -0.11718717359E+02 -0.83626166386E+01  0.24040743249E+03  0.24083811013E+03  0.00000000000E+00 0.  1.
<mgrwt>
<rscale>  2 0.19298484E+03</rscale>
<asrwt>0</asrwt>
<pdfrwt beam="1">  1       21 0.18981951E+00 0.19338417E+03</pdfrwt>
<pdfrwt beam="2">  1       21 0.49693913E-02 0.19338417E+03</pdfrwt>
<totfact> 0.42490555E+04</totfact>
</mgrwt>
</event>
<event>
12    1  0.1050690E-001  0.1821669E+03  0.7546771E-02  0.1166045E+00
         21   -1    0    0  501  502  0.00000000000E+00  0.00000000000E+00  0.50298567189E+02  0.50298567189E+02  0.00000000000E+00 0.  1.
         21   -1    0    0  502  503 -0.00000000000E+00 -0.00000000000E+00 -0.84160932149E+03  0.84160932149E+03  0.00000000000E+00 0.  1.
         -6    2    1    2    0  503  0.17931311633E+02  0.54796686760E+02 -0.60457121657E+03  0.63103161605E+03  0.17137775740E+03 0.  0.
        -24    2    3    3    0    0  0.36900425590E+02  0.64138633204E+00 -0.52591155477E+03  0.53355312487E+03  0.82060470557E+02 0.  0.
          6    2    1    2  501    0 -0.17931311633E+02 -0.54796686760E+02 -0.18673953773E+03  0.26087627263E+03  0.17280210025E+03 0.  0.
         24    2    5    5    0    0 -0.30606512741E+02 -0.10199563646E+03 -0.13784692338E+03  0.19158717309E+03  0.79774696048E+02 0.  0.
          5    1    5    5  501    0  0.12675201108E+02  0.47198949703E+02 -0.48892614354E+02  0.69289099536E+02  0.47000000000E+01 0. -1.
        -11    1    6    6    0    0  0.14516990709E+02 -0.39366007684E+02 -0.93694453991E+02  0.10266000336E+03  0.00000000000E+00 0.  1.
         12    1    6    6    0    0 -0.45123503450E+02 -0.62629628779E+02 -0.44152469385E+02  0.88927169737E+02  0.00000000000E+00 0. -1.
         -5    1    3    3    0  503 -0.18969113957E+02  0.54155300428E+02 -0.78659661797E+02  0.97478491180E+02  0.47000000000E+01 0.  1.
         13    1    4    4    0    0  0.62729407839E+02 -0.14165764386E+01 -0.41058273145E+03  0.41534944885E+03  0.00000000000E+00 0. -1.
        -14    1    4    4    0    0 -0.25828982249E+02  0.20579627707E+01 -0.11532882332E+03  0.11820367602E+03  0.00000000000E+00 0.  1.
<mgrwt>
<rscale>  2 0.18182830E+03</rscale>
<asrwt>0</asrwt>
<pdfrwt beam="1">  1       21 0.77382419E-02 0.18216689E+03</pdfrwt>
<pdfrwt beam="2">  1       21 0.12947834E+00 0.18216689E+03</pdfrwt>
<totfact> 0.55822130E+04</totfact>
</mgrwt>
</event>
<event>
12    1  0.1050690E-001  0.1760742E+03  0.7546771E-02  0.1171658E+00
         21   -1    0    0  501  502  0.00000000000E+00  0.00000000000E+00  0.47926361486E+03  0.47926361486E+03  0.00000000000E+00 0. -1.
         21   -1    0    0  502  503 -0.00000000000E+00 -0.00000000000E+00 -0.12014982071E+03  0.12014982071E+03  0.00000000000E+00 0. -1.
         -6    2    1    2    0  503 -0.27863389824E+02  0.14698643503E+02 -0.24071578102E+02  0.17771198998E+03  0.17323305659E+03 0.  0.
        -24    2    3    3    0    0 -0.61926280519E+02  0.33632391240E+02  0.71792296818E+01  0.12753759100E+03  0.10605797386E+03 0.  0.
          6    2    1    2  501    0  0.27863389824E+02 -0.14698643503E+02  0.38318537225E+03  0.42170144559E+03  0.17323008138E+03 0.  0.
         24    2    5    5    0    0 -0.29526189773E+02  0.15377061604E+02  0.20250220365E+03  0.22969465066E+03  0.10317092688E+03 0.  0.
          5    1    5    5  501    0  0.57389579597E+02 -0.30075705107E+02  0.18068316860E+03  0.19200679493E+03  0.47000000000E+01 0. -1.
        -11    1    6    6    0    0 -0.29330143109E+02 -0.22522335639E+02  0.17611524075E+02  0.40959476043E+02  0.00000000000E+00 0.  1.
         12    1    6    6    0    0 -0.19604666462E+00  0.37899397243E+02  0.18489067957E+03  0.18873517462E+03  0.00000000000E+00 0. -1.
         -5    1    3    3    0  503  0.34062890695E+02 -0.18933747737E+02 -0.31250807784E+02  0.50174398980E+02  0.47000000000E+01 0.  1.
         11    1    4    4    0    0 -0.16201637152E+01  0.29155652326E+01 -0.43098540561E+02  0.43227417799E+02  0.00000000000E+00 0. -1.
        -12    1    4    4    0    0 -0.60306116804E+02  0.30716826007E+02  0.50277770243E+02  0.84310173197E+02  0.00000000000E+00 0.  1.
<mgrwt>
<rscale>  2 0.17607343E+03</rscale>
<asrwt>0</asrwt>
<pdfrwt beam="1">  1       21 0.73732863E-01 0.17607416E+03</pdfrwt>
<pdfrwt beam="2">  1       21 0.18484588E-01 0.17607416E+03</pdfrwt>
<totfact> 0.44508797E+04</totfact>
</mgrwt>
</event>
<event>
12    1  0.1050690E-001  0.2540032E+03  0.7546771E-02  0.1111038E+00
         21   -1    0    0  501  502  0.00000000000E+00  0.00000000000E+00  0.20709263053E+03  0.20709263053E+03  0.00000000000E+00 0.  1.
         21   -1    0    0  502  503 -0.00000000000E+00 -0.00000000000E+00 -0.67161504965E+03  0.67161504965E+03  0.00000000000E+00 0.  1.
         -6    2    1    2    0  503 -0.10742953634E+03 -0.14986965819E+03 -0.55447260128E+03  0.60924771434E+03  0.17245547869E+03 0.  0.
        -24    2    3    3    0    0 -0.40118916377E+02 -0.24683071225E+02 -0.33589694591E+03  0.34847998582E+03  0.79954742129E+02 0.  0.
          6    2    1    2  501    0  0.10742953634E+03  0.14986965819E+03  0.89950182160E+02  0.26945996584E+03  0.17468720100E+03 0.  0.
         24    2    5    5    0    0  0.24739145389E+02  0.19276978473E+02 -0.91873479211E+01  0.85768679647E+02  0.79298372196E+02 0.  0.
          5    1    5    5  501    0  0.82690390950E+02  0.13059267972E+03  0.99137530081E+02  0.18369128619E+03  0.47000000000E+01 0. -1.
        -11    1    6    6    0    0  0.15139062627E+02  0.26382821627E+02  0.31246778576E+02  0.43607403794E+02  0.00000000000E+00 0.  1.
         12    1    6    6    0    0  0.96000827620E+01 -0.71058431538E+01 -0.40434126497E+02  0.42161275853E+02  0.00000000000E+00 0. -1.
         -5    1    3    3    0  503 -0.67310619963E+02 -0.12518658697E+03 -0.21857565537E+03  0.26076772852E+03  0.47000000000E+01 0.  1.
         11    1    4    4    0    0 -0.17247000055E+02 -0.50349341042E+02 -0.25644182389E+03  0.26190632714E+03  0.00000000000E+00 0. -1.
        -12    1    4    4    0    0 -0.22871916321E+02  0.25666269817E+02 -0.79455122023E+02  0.86573658686E+02  0.00000000000E+00 0.  1.
<mgrwt>
<rscale>  2 0.25361995E+03</rscale>
<asrwt>0</asrwt>
<pdfrwt beam="1">  1       21 0.31860404E-01 0.25400322E+03</pdfrwt>
<pdfrwt beam="2">  1       21 0.10332539E+00 0.25400322E+03</pdfrwt>
<totfact> 0.69017745E+03</totfact>
</mgrwt>
</event>
<event>
12    1  0.1050690E-001  0.3406674E+03  0.7546771E-02  0.1066518E+00
         21   -1    0    0  503  502  0.00000000000E+00  0.00000000000E+00  0.58532955096E+03  0.58532955096E+03  0.00000000000E+00 0.  1.
         21   -1    0    0  501  503 -0.00000000000E+00 -0.00000000000E+00 -0.79638871032E+03  0.79638871032E+03  0.00000000000E+00 0. -1.
          6    2    1    2  501    0 -0.22816239071E+03 -0.18452376401E+03 -0.70425793515E+03  0.78230247866E+03  0.17294748587E+03 0.  0.
         24    2    3    3    0    0 -0.23044907555E+03 -0.20608054584E+03 -0.66728035826E+03  0.73918224021E+03  0.74507314644E+02 0.  0.
         -6    2    1    2    0  502  0.22816239071E+03  0.18452376401E+03  0.49319877579E+03  0.59941578262E+03  0.17305245445E+03 0.  0.
        -24    2    5    5    0    0  0.15574155646E+03  0.13480143331E+03  0.21844299868E+03  0.31091983038E+03  0.80789469721E+02 0.  0.
          5    1    3    3  501    0  0.22866848344E+01  0.21556781833E+02 -0.36977576896E+02  0.43120238446E+02  0.47000000000E+01 0. -1.
        -11    1    4    4    0    0 -0.63360175750E+02 -0.21834645406E+02 -0.10824634499E+03  0.12731274412E+03  0.00000000000E+00 0.  1.
         12    1    4    4    0    0 -0.16708889980E+03 -0.18424590043E+03 -0.55903401326E+03  0.61186949609E+03  0.00000000000E+00 0. -1.
         -5    1    5    5    0  502  0.72420834253E+02  0.49722330696E+02  0.27475577711E+03  0.28849595224E+03  0.47000000000E+01 0.  1.
         11    1    6    6    0    0  0.75290959334E+02  0.11170337118E+03  0.10989324399E+03  0.17384733753E+03  0.00000000000E+00 0. -1.
        -12    1    6    6    0    0  0.80450597128E+02  0.23098062125E+02  0.10854975469E+03  0.13707249285E+03  0.00000000000E+00 0.  1.
<mgrwt>
<rscale>  2 0.34065403E+03</rscale>
<asrwt>0</asrwt>
<pdfrwt beam="1">  1       21 0.90050700E-01 0.34066736E+03</pdfrwt>
<pdfrwt beam="2">  1       21 0.12252134E+00 0.34066736E+03</pdfrwt>
<totfact> 0.46496419E+02</totfact>
</mgrwt>
</event>
<event>
12    1  0.1050690E-001  0.3009687E+03  0.7546771E-02  0.1084848E+00
         21   -1    0    0  501  502  0.00000000000E+00  0.00000000000E+00  0.49032776067E+03  0.49032776067E+03  0.00000000000E+00 0.  1.
         21   -1    0    0  502  503 -0.00000000000E+00 -0.00000000000E+00 -0.22056361874E+03  0.22056361874E+03  0.00000000000E+00 0.  1.
         -6    2    1    2    0  503  0.22558940854E+03  0.98682493963E+02 -0.93938733598E+01  0.30039003546E+03  0.17180545011E+03 0.  0.
        -24    2    3    3    0    0  0.54345075071E+02  0.58730707414E+01 -0.29345225434E+02  0.10453713854E+03  0.84136739500E+02 0.  0.
          6    2    1    2  501    0 -0.22558940854E+03 -0.98682493963E+02  0.27915801529E+03  0.41050134396E+03  0.17307033261E+03 0.  0.
         24    2    5    5    0    0 -0.20985944466E+03 -0.11517790942E+03  0.29024435851E+03  0.38472291304E+03  0.80392753661E+02 0.  0.
          5    1    5    5  501    0 -0.15729963881E+02  0.16495415456E+02 -0.11086343217E+02  0.25778430920E+02  0.47000000000E+01 0. -1.
        -11    1    6    6    0    0 -0.16564312921E+03 -0.49042441156E+02  0.19114680771E+03  0.25764298823E+03  0.00000000000E+00 0.  1.
         12    1    6    6    0    0 -0.44216315449E+02 -0.66135468263E+02  0.99097550798E+02  0.12707992480E+03  0.00000000000E+00 0. -1.
         -5    1    3    3    0  503  0.17124433347E+03  0.92809423222E+02  0.19951352074E+02  0.19585289692E+03  0.47000000000E+01 0.  1.
         13    1    4    4    0    0 -0.85998126868E+01  0.21761953961E+02  0.13250762385E+02  0.26890930111E+02  0.00000000000E+00 0. -1.
        -14    1    4    4    0    0  0.62944887758E+02 -0.15888883220E+02 -0.42595987819E+02  0.77646208427E+02  0.00000000000E+00 0.  1.
<mgrwt>
<rscale>  2 0.30078714E+03</rscale>
<asrwt>0</asrwt>
<pdfrwt beam="1">  1       21 0.75435040E-01 0.30096870E+03</pdfrwt>
<pdfrwt beam="2">  1       21 0.33932865E-01 0.30096870E+03</pdfrwt>
<totfact> 0.12381854E+04</totfact>
</mgrwt>
</event>
<event>
12    1  0.1050690E-001  0.2834861E+03  0.7546771E-02  0.1093887E+00
         21   -1    0    0  501  502  0.00000000000E+00  0.00000000000E+00  0.25040135406E+03  0.25040135406E+03  0.00000000000E+00 0. -1.
         21   -1    0    0  502  503 -0.00000000000E+00 -0.00000000000E+00 -0.34152071927E+03  0.34152071927E+03  0.00000000000E+00 0. -1.
         -6    2    1    2    0  503 -0.15277268744E+03 -0.16358760858E+03 -0.11944431013E+03  0.30702439077E+03  0.17290643018E+03 0.  0.
        -24    2    3    3    0    0 -0.94552117166E+01 -0.81988320257E+02 -0.53669561322E+02  0.12941034211E+03  0.83994816177E+02 0.  0.
          6    2    1    2  501    0  0.15277268744E+03  0.16358760858E+03  0.28324944932E+02  0.28489768256E+03  0.17396547736E+03 0.  0.
         24    2    5    5    0    0  0.70448229158E+02  0.11962947252E+03 -0.44593237453E+02  0.16637010990E+03  0.80101766249E+02 0.  0.
          5    1    5    5  501    0  0.82324458278E+02  0.43958136066E+02  0.72918182385E+02  0.11852757266E+03  0.47000000000E+01 0. -1.
        -11    1    6    6    0    0  0.41266276711E+02  0.13481552762E+02 -0.35188726538E+02  0.55882952086E+02  0.00000000000E+00 0.  1.
         12    1    6    6    0    0  0.29181952446E+02  0.10614791975E+03 -0.94045109152E+01  0.11048715782E+03  0.00000000000E+00 0. -1.
         -5    1    3    3    0  503 -0.14331747572E+03 -0.81599288324E+02 -0.65774748813E+02  0.17761404866E+03  0.47000000000E+01 0.  1.
         11    1    4    4    0    0 -0.37914581981E+02 -0.77118731136E+02 -0.26925636270E+02  0.90054450791E+02  0.00000000000E+00 0. -1.
        -12    1    4    4    0    0  0.28459370265E+02 -0.48695891215E+01 -0.26743925052E+02  0.39355891316E+02  0.00000000000E+00 0.  1.
<mgrwt>
<rscale>  2 0.28332383E+03</rscale>
<asrwt>0</asrwt>
<pdfrwt beam="1">  1       21 0.38523285E-01 0.28348613E+03</pdfrwt>
<pdfrwt beam="2">  1       21 0.52541649E-01 0.28348613E+03</pdfrwt>
<totfact> 0.21322866E+04</totfact>
</mgrwt>
</event>
<event>
12    1  0.1050690E-001  0.1799089E+03  0.7546771E-02  0.1168911E+00
         21   -1    0    0  501  502  0.00000000000E+00  0.00000000000E+00  0.54202927247E+03  0.54202927247E+03  0.00000000000E+00 0. -1.
         21   -1    0    0  502  503 -0.00000000000E+00 -0.00000000000E+00 -0.69273924131E+02  0.69273924131E+02  0.00000000000E+00 0. -1.
         -6    2    1    2    0  503 -0.46161868593E+00 -0.26428885176E+02  0.11263859260E+03  0.20874726267E+03  0.17375059156E+03 0.  0.
        -24    2    3    3    0    0 -0.87093642194E+01 -0.82939035217E+02  0.58037655121E+02  0.12959693268E+03  0.80450350902E+02 0.  0.
          6    2    1    2  501    0  0.46161868593E+00  0.26428885176E+02  0.36011675573E+03  0.40255593393E+03  0.17795646410E+03 0.  0.
         24    2    5    5    0    0  0.13132216194E+01  0.60727680407E+02  0.10672175856E+03  0.14680557289E+03  0.80453506828E+02 0.  0.
          5    1    5    5  501    0 -0.85160293352E+00 -0.34298795231E+02  0.25339499717E+03  0.25575036104E+03  0.47000000000E+01 0. -1.
        -13    1    6    6    0    0 -0.35808816625E+02  0.93655729873E+01  0.45944941327E+02  0.58999346937E+02  0.00000000000E+00 0.  1.
         14    1    6    6    0    0  0.37122038245E+02  0.51362107420E+02  0.60776817237E+02  0.87806225950E+02  0.00000000000E+00 0. -1.
         -5    1    3    3    0  503  0.82477455335E+01  0.56510150040E+02  0.54600937482E+02  0.79150329993E+02  0.47000000000E+01 0.  1.
         13    1    4    4    0    0 -0.96151200158E+01 -0.25889620013E+01 -0.16968730641E+02  0.19674630282E+02  0.00000000000E+00 0. -1.
        -14    1    4    4    0    0  0.90575579643E+00 -0.80350073215E+02  0.75006385762E+02  0.10992230240E+03  0.00000000000E+00 0.  1.
<mgrwt>
<rscale>  2 0.17885995E+03</rscale>
<asrwt>0</asrwt>
<pdfrwt beam="1">  1       21 0.83389116E-01 0.17990887E+03</pdfrwt>
<pdfrwt beam="2">  1       21 0.10657527E-01 0.17990887E+03</pdfrwt>
<totfact> 0.91218344E+04</totfact>
</mgrwt>
</event>
<event>
12    1  0.1050690E-001  0.2642433E+03  0.7546771E-02  0.1105773E+00
         21   -1    0    0  501  502  0.00000000000E+00  0.00000000000E+00  0.16785218213E+03  0.16785218213E+03  0.00000000000E+00 0. -1.
         21   -1    0    0  502  503 -0.00000000000E+00 -0.00000000000E+00 -0.62169221202E+03  0.62169221202E+03  0.00000000000E+00 0.  1.
         -6    2    1    2    0  503 -0.18264316508E+03 -0.66479588195E+02  0.45196017870E+01  0.26428197284E+03  0.17901528698E+03 0.  0.
        -24    2    3    3    0    0 -0.14267327430E+03 -0.97746596797E+02  0.50595298138E+02  0.19557769503E+03  0.76030850413E+02 0.  0.
          6    2    1    2  501    0  0.18264316508E+03  0.66479588195E+02 -0.45835963167E+03  0.52526242131E+03  0.16741863066E+03 0.  0.
         24    2    5    5    0    0  0.13952293159E+03  0.10939491040E+03 -0.37938355734E+03  0.42546066915E+03  0.75173150472E+02 0.  0.
          5    1    5    5  501    0  0.43120233481E+02 -0.42915322209E+02 -0.78976074333E+02  0.99801752153E+02  0.47000000000E+01 0. -1.
        -11    1    6    6    0    0  0.10068355009E+03  0.77869066449E+02 -0.33580167781E+03  0.35911493368E+03  0.00000000000E+00 0.  1.
         12    1    6    6    0    0  0.38839381499E+02  0.31525843956E+02 -0.43581879530E+02  0.66345735475E+02  0.00000000000E+00 0. -1.
         -5    1    3    3    0  503 -0.39969890777E+02  0.31267008601E+02 -0.46075696351E+02  0.68704277813E+02  0.47000000000E+01 0.  1.
         13    1    4    4    0    0 -0.87532623899E+02 -0.37904087689E+02 -0.73676805847E+01  0.95671118042E+02  0.00000000000E+00 0. -1.
        -14    1    4    4    0    0 -0.55140650399E+02 -0.59842509107E+02  0.57962978722E+02  0.99906576986E+02  0.00000000000E+00 0.  1.
<mgrwt>
<rscale>  2 0.26229323E+03</rscale>
<asrwt>0</asrwt>
<pdfrwt beam="1">  1       21 0.25823412E-01 0.26424332E+03</pdfrwt>
<pdfrwt beam="2">  1       21 0.95644958E-01 0.26424332E+03</pdfrwt>
<totfact> 0.12440672E+04</totfact>
</mgrwt>
</event>
<event>
12    1  0.1050690E-001  0.1905564E+03  0.7546771E-02  0.1158000E+00
         21   -1    0    0  501  502  0.00000000000E+00  0.00000000000E+00  0.42526507937E+02  0.42526507937E+02  0.00000000000E+00 0.  1.
         21   -1    0    0  502  503 -0.00000000000E+00 -0.00000000000E+00 -0.94128049609E+03  0.94128049609E+03  0.00000000000E+00 0. -1.
         -6    2    1    2    0  503 -0.65120248815E+02 -0.48239767746E+02 -0.29860769551E+03  0.35413461697E+03  0.17227027928E+03 0.  0.
        -24    2    3    3    0    0 -0.53445301723E+02 -0.17081246866E+02 -0.30463503392E+03  0.31999407477E+03  0.80284087620E+02 0.  0.
          6    2    1    2  501    0  0.65120248815E+02  0.48239767746E+02 -0.60014629265E+03  0.62967238706E+03  0.17246454838E+03 0.  0.
         24    2    5    5    0    0  0.66882390514E+02  0.94414378362E+02 -0.42557980222E+03  0.44903255372E+03  0.84408158604E+02 0.  0.
          5    1    5    5  501    0 -0.17621416984E+01 -0.46174610616E+02 -0.17456649043E+03  0.18063983334E+03  0.47000000000E+01 0. -1.
        -13    1    6    6    0    0 -0.98260800696E+01 -0.86435931364E+01 -0.23145369993E+02  0.26588939504E+02  0.00000000000E+00 0.  1.
         14    1    6    6    0    0  0.76708470583E+02  0.10305797150E+03 -0.40243443223E+03  0.42244361421E+03  0.00000000000E+00 0. -1.
         -5    1    3    3    0  503 -0.11674947093E+02 -0.31158520880E+02  0.60273384187E+01  0.34140542196E+02  0.47000000000E+01 0.  1.
         11    1    4    4    0    0 -0.40646646436E+02  0.29086905735E+02 -0.15012328312E+03  0.15822514998E+03  0.00000000000E+00 0. -1.
        -12    1    4    4    0    0 -0.12798655287E+02 -0.46168152601E+02 -0.15451175080E+03  0.16176892479E+03  0.00000000000E+00 0.  1.
<mgrwt>
<rscale>  2 0.19051244E+03</rscale>
<asrwt>0</asrwt>
<pdfrwt beam="1">  1       21 0.65425396E-02 0.19055640E+03</pdfrwt>
<pdfrwt beam="2">  1       21 0.14481239E+00 0.19055640E+03</pdfrwt>
<totfact> 0.55770873E+04</totfact>
</mgrwt>
</event>
<event>
12    1  0.1050690E-001  0.2016450E+03  0.7546771E-02  0.1148724E+00
         21   -1    0    0  503  502  0.00000000000E+00  0.00000000000E+00  0.26607875346E+03  0.26607875346E+03  0.00000000000E+00 0. -1.
         21   -1    0    0  501  503 -0.00000000000E+00 -0.00000000000E+00 -0.15242238702E+03  0.15242238702E+03  0.00000000000E+00 0.  1.
          6    2    1    2  501    0  0.18331733470E+02  0.91347167950E+02  0.40278792638E+02  0.20392022329E+03  0.17686355981E+03 0.  0.
         24    2    3    3    0    0 -0.10782342190E+02  0.15479351446E+02 -0.36313166890E+02  0.92152726914E+02  0.82568818351E+02 0.  0.
         -6    2    1    2    0  502 -0.18331733470E+02 -0.91347167950E+02  0.73377573808E+02  0.21458091719E+03  0.17883048996E+03 0.  0.
        -24    2    5    5    0    0  0.12233957061E+02  0.13064801384E+02 -0.14664319988E+01  0.82445244552E+02  0.80465577646E+02 0.  0.
          5    1    3    3  501    0  0.29114075660E+02  0.75867816504E+02  0.76591959528E+02  0.11176749638E+03  0.47000000000E+01 0. -1.
        -11    1    4    4    0    0 -0.15401312670E+02 -0.24107216120E+02  0.10679166555E+02  0.30535273035E+02  0.00000000000E+00 0.  1.
         12    1    4    4    0    0  0.46189704790E+01  0.39586567566E+02 -0.46992333445E+02  0.61617453879E+02  0.00000000000E+00 0. -1.
         -5    1    5    5    0  502 -0.30565690531E+02 -0.10441196933E+03  0.74844005807E+02  0.13213567264E+03  0.47000000000E+01 0.  1.
         13    1    6    6    0    0 -0.32669523058E+02 -0.54628235445E+01  0.47924649971E+01  0.33468013067E+02  0.00000000000E+00 0. -1.
        -14    1    6    6    0    0  0.44903480119E+02  0.18527624929E+02 -0.62588969960E+01  0.48977231485E+02  0.00000000000E+00 0.  1.
<mgrwt>
<rscale>  2 0.20120799E+03</rscale>
<asrwt>0</asrwt>
<pdfrwt beam="1">  1       21 0.40935193E-01 0.20164499E+03</pdfrwt>
<pdfrwt beam="2">  1       21 0.23449598E-01 0.20164499E+03</pdfrwt>
<totfact> 0.97989967E+04</totfact>
</mgrwt>
</event>
<event>
12    1  0.1050690E-001  0.2457032E+03  0.7546771E-02  0.1116145E+00
         21   -1    0    0  503  502  0.00000000000E+00  0.00000000000E+00  0.16043457595E+04  0.16043457595E+04  0.00000000000E+00 0.  1.
         21   -1    0    0  501  503 -0.00000000000E+00 -0.00000000000E+00 -0.37769569511E+02  0.37769569511E+02  0.00000000000E+00 0. -1.
          6    2    1    2  501    0  0.17196968684E+03  0.22648768360E+02  0.84637779862E+03  0.88115816785E+03  0.17319872655E+03 0.  0.
         24    2    3    3    0    0  0.13533523310E+03  0.65869162619E+02  0.45551854609E+03  0.48618585114E+03  0.78899709222E+02 0.  0.
         -6    2    1    2    0  502 -0.17196968684E+03 -0.22648768360E+02  0.72019839139E+03  0.76095716118E+03  0.17402166041E+03 0.  0.
        -24    2    5    5    0    0 -0.43151859057E+02 -0.63236785761E+02  0.31486060148E+03  0.33368414092E+03  0.79667644159E+02 0.  0.
          5    1    3    3  501    0  0.36634453737E+02 -0.43220394259E+02  0.39085925253E+03  0.39497231671E+03  0.47000000000E+01 0. -1.
        -11    1    4    4    0    0  0.85529637955E+02  0.65717857557E+02  0.38519367717E+03  0.40001040574E+03  0.00000000000E+00 0.  1.
         12    1    4    4    0    0  0.49805595144E+02  0.15130506191E+00  0.70324868917E+02  0.86175445395E+02  0.00000000000E+00 0. -1.
         -5    1    5    5    0  502 -0.12881782778E+03  0.40588017401E+02  0.40533778991E+03  0.42727302026E+03  0.47000000000E+01 0.  1.
         13    1    6    6    0    0 -0.46106665225E+02 -0.70045873010E+02  0.17952435263E+03  0.19814449801E+03  0.00000000000E+00 0. -1.
        -14    1    6    6    0    0  0.29548061688E+01  0.68090872493E+01  0.13533624885E+03  0.13553964291E+03  0.00000000000E+00 0.  1.
<mgrwt>
<rscale>  2 0.24555756E+03</rscale>
<asrwt>0</asrwt>
<pdfrwt beam="1">  1       21 0.24682237E+00 0.24570323E+03</pdfrwt>
<pdfrwt beam="2">  1       21 0.58107042E-02 0.24570323E+03</pdfrwt>
<totfact> 0.13844386E+04</totfact>
</mgrwt>
</event>
<event>
12    1  0.1050690E-001  0.2663281E+03  0.7546771E-02  0.1105041E+00
         21   -1    0    0  503  502  0.00000000000E+00  0.00000000000E+00  0.23738250404E+03  0.23738250404E+03  0.00000000000E+00 0. -1.
         21   -1    0    0  501  503 -0.00000000000E+00 -0.00000000000E+00 -0.39449531300E+03  0.39449531300E+03  0.00000000000E+00 0. -1.
          6    2    1    2  501    0  0.64120731384E+02  0.19206624322E+03 -0.24498738798E+03  0.36186939870E+03  0.17300211405E+03 0.  0.
         24    2    3    3    0    0  0.73630066121E+02  0.15723115389E+03 -0.25964833916E+03  0.32261453422E+03  0.80745620727E+02 0.  0.
         -6    2    1    2    0  502 -0.64120731384E+02 -0.19206624322E+03  0.87874579014E+02  0.27000841834E+03  0.15550464417E+03 0.  0.
        -24    2    5    5    0    0 -0.42955144938E+01 -0.12474463806E+03  0.99718785200E+02  0.17904892011E+03  0.80839368514E+02 0.  0.
          5    1    3    3  501    0 -0.95093347370E+01  0.34835089336E+02  0.14660951183E+02  0.39254864485E+02  0.47000000000E+01 0. -1.
        -13    1    4    4    0    0  0.27417212404E+02  0.96135713152E+02 -0.82508893456E+02  0.12962058625E+03  0.00000000000E+00 0.  1.
         14    1    4    4    0    0  0.46212853717E+02  0.61095440736E+02 -0.17713944571E+03  0.19299394797E+03  0.00000000000E+00 0. -1.
         -5    1    5    5    0  502 -0.59825216890E+02 -0.67321605168E+02 -0.11844206186E+02  0.90959498232E+02  0.47000000000E+01 0.  1.
         11    1    6    6    0    0 -0.92596151986E+01 -0.11384446370E+03  0.44559857326E+02  0.12260458097E+03  0.00000000000E+00 0. -1.
        -12    1    6    6    0    0  0.49641007048E+01 -0.10900174353E+02  0.55158927875E+02  0.56444339140E+02  0.00000000000E+00 0.  1.
<mgrwt>
<rscale>  2 0.26352946E+03</rscale>
<asrwt>0</asrwt>
<pdfrwt beam="1">  1       21 0.36520385E-01 0.26632807E+03</pdfrwt>
<pdfrwt beam="2">  1       21 0.60691587E-01 0.26632807E+03</pdfrwt>
<totfact> 0.17565635E+04</totfact>
</mgrwt>
</event>
<event>
12    1  0.1050690E-001  0.2101663E+03  0.7546771E-02  0.1141657E+00
         21   -1    0    0  501  502  0.00000000000E+00  0.00000000000E+00  0.87026509752E+02  0.87026509752E+02  0.00000000000E+00 0.  1.
         21   -1    0    0  502  503 -0.00000000000E+00 -0.00000000000E+00 -0.52531622425E+03  0.52531622425E+03  0.00000000000E+00 0.  1.
         -6    2    1    2    0  503 -0.36254389406E+01  0.11765754883E+03 -0.28016417904E+03  0.35023115010E+03  0.17410757790E+03 0.  0.
        -24    2    3    3    0    0  0.56571643808E+02  0.29551763534E+02 -0.14995289227E+03  0.18181681764E+03  0.80609104127E+02 0.  0.
          6    2    1    2  501    0  0.36254389406E+01 -0.11765754883E+03 -0.15812553545E+03  0.26211158390E+03  0.17274939897E+03 0.  0.
         24    2    5    5    0    0  0.15461274675E+02 -0.13651993243E+03 -0.17276771616E+03  0.23504943360E+03  0.80763912251E+02 0.  0.
          5    1    5    5  501    0 -0.11835835734E+02  0.18862383602E+02  0.14642180709E+02  0.27062150296E+02  0.47000000000E+01 0. -1.
        -13    1    6    6    0    0  0.18832422630E+02 -0.86100799985E+02 -0.47826705069E+02  0.10027662548E+03  0.00000000000E+00 0.  1.
         14    1    6    6    0    0 -0.33711479551E+01 -0.50419132447E+02 -0.12494101109E+03  0.13477280812E+03  0.00000000000E+00 0. -1.
         -5    1    3    3    0  503 -0.60197082749E+02  0.88105785295E+02 -0.13021128678E+03  0.16841433246E+03  0.47000000000E+01 0.  1.
         11    1    4    4    0    0 -0.81043828557E+01 -0.92675887471E+01 -0.73104532327E+02  0.74133945460E+02  0.00000000000E+00 0. -1.
        -12    1    4    4    0    0  0.64676026664E+02  0.38819352281E+02 -0.76848359939E+02  0.10768287218E+03  0.00000000000E+00 0.  1.
<mgrwt>
<rscale>  2 0.20988483E+03</rscale>
<asrwt>0</asrwt>
<pdfrwt beam="1">  1       21 0.13388694E-01 0.21016634E+03</pdfrwt>
<pdfrwt beam="2">  1       21 0.80817879E-01 0.21016634E+03</pdfrwt>
<totfact> 0.64259818E+04</totfact>
</mgrwt>
</event>
<event>
12    1  0.1050690E-001  0.2105651E+03  0.7546771E-02  0.1141198E+00
         21   -1    0    0  503  502  0.00000000000E+00  0.00000000000E+00  0.10853775530E+04  0.10853775530E+04  0.00000000000E+00 0.  1.
         21   -1    0    0  501  503 -0.00000000000E+00 -0.00000000000E+00 -0.41706879536E+02  0.41706879536E+02  0.00000000000E+00 0.  1.
          6    2    1    2  501    0 -0.10625531870E+03  0.55820629565E+02  0.43702196006E+03  0.48493154078E+03  0.17252324547E+03 0.  0.
         24    2    3    3    0    0 -0.12945074298E+03  0.31121478514E+02  0.24721795735E+03  0.29206960774E+03  0.80385919450E+02 0.  0.
         -6    2    1    2    0  502  0.10625531870E+03 -0.55820629565E+02  0.60664871345E+03  0.64215289180E+03  0.17300733940E+03 0.  0.
        -24    2    5    5    0    0  0.13683499318E+03 -0.64709246201E+02  0.42933067097E+03  0.46193662677E+03  0.78418876603E+02 0.  0.
          5    1    3    3  501    0  0.23195424276E+02  0.24699151051E+02  0.18980400271E+03  0.19286193304E+03  0.47000000000E+01 0. -1.
        -11    1    4    4    0    0 -0.72444652248E+02 -0.12984471879E+02  0.73602293639E+02  0.10408708747E+03  0.00000000000E+00 0.  1.
         12    1    4    4    0    0 -0.57006090729E+02  0.44105950393E+02  0.17361566371E+03  0.18798252026E+03  0.00000000000E+00 0. -1.
         -5    1    5    5    0  502 -0.30579674479E+02  0.88886166357E+01  0.17731804247E+03  0.18021626504E+03  0.47000000000E+01 0.  1.
         13    1    6    6    0    0  0.66699477453E+00  0.62302038675E+01  0.81320527723E+02  0.81561562953E+02  0.00000000000E+00 0. -1.
        -14    1    6    6    0    0  0.13616799840E+03 -0.70939450068E+02  0.34801014325E+03  0.38037506381E+03  0.00000000000E+00 0.  1.
<mgrwt>
<rscale>  2 0.21046567E+03</rscale>
<asrwt>0</asrwt>
<pdfrwt beam="1">  1       21 0.16698114E+00 0.21056513E+03</pdfrwt>
<pdfrwt beam="2">  1       21 0.64164438E-02 0.21056513E+03</pdfrwt>
<totfact> 0.38957308E+04</totfact>
</mgrwt>
</event>
<event>
12    1  0.1050690E-001  0.2801409E+03  0.7546771E-02  0.1095614E+00
         21   -1    0    0  503  502  0.00000000000E+00  0.00000000000E+00  0.52872475782E+03  0.52872475782E+03  0.00000000000E+00 0.  1.
         21   -1    0    0  501  503 -0.00000000000E+00 -0.00000000000E+00 -0.16727782381E+03  0.16727782381E+03  0.00000000000E+00 0. -1.
          6    2    1    2  501    0  0.19157511957E+03 -0.10890380500E+03  0.29755697776E+03  0.40867966173E+03  0.17296775919E+03 0.  0.
         24    2    3    3    0    0  0.51537994526E+02 -0.14594370055E+02  0.17335334846E+03  0.19902924451E+03  0.81805233524E+02 0.  0.
         -6    2    1    2    0  502 -0.19157511957E+03  0.10890380500E+03  0.63889956247E+02  0.28732291990E+03  0.17294932382E+03 0.  0.
        -24    2    5    5    0    0 -0.51154100210E+02  0.82481186363E+02  0.71566069081E+02  0.14415438229E+03  0.78986680006E+02 0.  0.
          5    1    3    3  501    0  0.14003712504E+03 -0.94309434945E+02  0.12420362930E+03  0.20965041722E+03  0.47000000000E+01 0. -1.
        -11    1    4    4    0    0  0.65719575481E+02  0.87855463278E+01  0.14600700472E+03  0.16035677052E+03  0.00000000000E+00 0.  1.
         12    1    4    4    0    0 -0.14181580955E+02 -0.23379916382E+02  0.27346343739E+02  0.38672473987E+02  0.00000000000E+00 0. -1.
         -5    1    5    5    0  502 -0.14042101936E+03  0.26422618637E+02 -0.76761128343E+01  0.14316853761E+03  0.47000000000E+01 0.  1.
         13    1    6    6    0    0 -0.13591970583E+02  0.75015002270E+02  0.18045191749E+02  0.78342971447E+02  0.00000000000E+00 0. -1.
        -14    1    6    6    0    0 -0.37562129627E+02  0.74661840924E+01  0.53520877333E+02  0.65811410846E+02  0.00000000000E+00 0.  1.
<mgrwt>
<rscale>  2 0.28013803E+03</rscale>
<asrwt>0</asrwt>
<pdfrwt beam="1">  1       21 0.81342270E-01 0.28014088E+03</pdfrwt>
<pdfrwt beam="2">  1       21 0.25735050E-01 0.28014088E+03</pdfrwt>
<totfact> 0.18120502E+04</totfact>
</mgrwt>
</event>
<event>
12    1  0.1050690E-001  0.3785304E+03  0.7546771E-02  0.1051496E+00
         21   -1    0    0  501  502  0.00000000000E+00  0.00000000000E+00  0.48799180155E+03  0.48799180155E+03  0.00000000000E+00 0.  1.
         21   -1    0    0  502  503 -0.00000000000E+00 -0.00000000000E+00 -0.30955410055E+03  0.30955410055E+03  0.00000000000E+00 0. -1.
         -6    2    1    2    0  503  0.12664864488E+03 -0.31182251038E+03  0.18009018490E+03  0.41901191939E+03  0.17281596185E+03 0.  0.
        -24    2    3    3    0    0  0.12041490403E+03 -0.23436485310E+03  0.69557441804E+02  0.28381530149E+03  0.79285901469E+02 0.  0.
          6    2    1    2  501    0 -0.12664864488E+03  0.31182251038E+03 -0.16524838993E+01  0.37853398270E+03  0.17323997266E+03 0.  0.
         24    2    5    5    0    0  0.26972731488E+01  0.14717433600E+03  0.97971046980E+01  0.16878992219E+03  0.82015206613E+02 0.  0.
          5    1    5    5  501    0 -0.12934591803E+03  0.16464817438E+03 -0.11449588597E+02  0.20974406051E+03  0.47000000000E+01 0. -1.
        -11    1    6    6    0    0  0.85730596281E+01  0.16012025321E+02  0.30868976964E+02  0.35815863037E+02  0.00000000000E+00 0.  1.
         12    1    6    6    0    0 -0.58757864793E+01  0.13116231067E+03 -0.21071872266E+02  0.13297405916E+03  0.00000000000E+00 0. -1.
         -5    1    3    3    0  503  0.62337408571E+01 -0.77457657279E+02  0.11053274309E+03  0.13519661790E+03  0.47000000000E+01 0.  1.
         13    1    4    4    0    0  0.26704720044E+02 -0.93604280251E+02 -0.82189662530E+01  0.97685488995E+02  0.00000000000E+00 0. -1.
        -14    1    4    4    0    0  0.93710183982E+02 -0.14076057285E+03  0.77776408057E+02  0.18612981250E+03  0.00000000000E+00 0.  1.
<mgrwt>
<rscale>  2 0.37848190E+03</rscale>
<asrwt>0</asrwt>
<pdfrwt beam="1">  1       21 0.75075662E-01 0.37853038E+03</pdfrwt>
<pdfrwt beam="2">  1       21 0.47623708E-01 0.37853038E+03</pdfrwt>
<totfact> 0.60539768E+03</totfact>
</mgrwt>
</event>
<event>
12    1  0.1050690E-001  0.2019712E+03  0.7546771E-02  0.1148218E+00
         21   -1    0    0  501  502  0.00000000000E+00  0.00000000000E+00  0.37430993960E+03  0.37430993960E+03  0.00000000000E+00 0.  1.
         21   -1    0    0  502  503 -0.00000000000E+00 -0.00000000000E+00 -0.13076342079E+03  0.13076342079E+03  0.00000000000E+00 0.  1.
         -6    2    1    2    0  503 -0.76042483801E+02  0.70635988306E+02  0.18058292575E+02  0.20277690840E+03  0.17326416381E+03 0.  0.
        -24    2    3    3    0    0 -0.47659294594E+01  0.95948700662E+02  0.17275459011E+02  0.12698915587E+03  0.81233841354E+02 0.  0.
          6    2    1    2  501    0  0.76042483801E+02 -0.70635988306E+02  0.22548822624E+03  0.30229645199E+03  0.17252913530E+03 0.  0.
         24    2    5    5    0    0  0.84325154900E+02  0.13638868491E+02  0.11866265965E+03  0.16589760373E+03  0.78386463421E+02 0.  0.
          5    1    5    5  501    0 -0.82826710990E+01 -0.84274856797E+02  0.10682556659E+03  0.13639884826E+03  0.47000000000E+01 0. -1.
        -13    1    6    6    0    0  0.20184112497E+02  0.13661645426E+02  0.94114899103E+02  0.97219613177E+02  0.00000000000E+00 0.  1.
         14    1    6    6    0    0  0.64141042403E+02 -0.22776934947E-01  0.24547760543E+02  0.68677990558E+02  0.00000000000E+00 0. -1.
         -5    1    3    3    0  503 -0.71276554342E+02 -0.25312712356E+02  0.78283356374E+00  0.75787752533E+02  0.47000000000E+01 0.  1.
         11    1    4    4    0    0  0.30063004240E+02  0.54228320998E+02 -0.14983610981E+02  0.63788742112E+02  0.00000000000E+00 0. -1.
        -12    1    4    4    0    0 -0.34828933699E+02  0.41720379664E+02  0.32259069992E+02  0.63200413754E+02  0.00000000000E+00 0.  1.
<mgrwt>
<rscale>  2 0.20181348E+03</rscale>
<asrwt>0</asrwt>
<pdfrwt beam="1">  1       21 0.57586144E-01 0.20197122E+03</pdfrwt>
<pdfrwt beam="2">  1       21 0.20117450E-01 0.20197122E+03</pdfrwt>
<totfact> 0.64319516E+04</totfact>
</mgrwt>
</event>
<event>
12    1  0.1050690E-001  0.1759200E+03  0.7546771E-02  0.1174873E+00
         21   -1    0    0  501  502  0.00000000000E+00  0.00000000000E+00  0.30000628150E+03  0.30000628150E+03  0.00000000000E+00 0. -1.
         21   -1    0    0  502  503 -0.00000000000E+00 -0.00000000000E+00 -0.10291602799E+03  0.10291602799E+03  0.00000000000E+00 0. -1.
         -6    2    1    2    0  503 -0.95839906541E+01 -0.33128243708E+02  0.44418472270E+02  0.16999203720E+03  0.16042119132E+03 0.  0.
        -24    2    3    3    0    0  0.55224768433E+02 -0.19868681146E+02  0.36330391162E+02  0.10318261938E+03  0.76695606660E+02 0.  0.
          6    2    1    2  501    0  0.95839906541E+01  0.33128243708E+02  0.15267178124E+03  0.23293027229E+03  0.17250653771E+03 0.  0.
         24    2    5    5    0    0 -0.45874842474E+02  0.26852012183E+02  0.14818795361E+03  0.17674070062E+03  0.80324802707E+02 0.  0.
          5    1    5    5  501    0  0.55458833128E+02  0.62762315254E+01  0.44838276278E+01  0.56189571669E+02  0.47000000000E+01 0. -1.
        -11    1    6    6    0    0 -0.62949231459E+02  0.14224822093E+02  0.13967105439E+03  0.15386017919E+03  0.00000000000E+00 0.  1.
         12    1    6    6    0    0  0.17074388985E+02  0.12627190090E+02  0.85168992224E+01  0.22880521435E+02  0.00000000000E+00 0. -1.
         -5    1    3    3    0  503 -0.64808759087E+02 -0.13259562562E+02  0.80880811071E+01  0.66809417822E+02  0.47000000000E+01 0.  1.
         13    1    4    4    0    0 -0.65735792556E+01  0.77999400548E+01  0.33930369108E+02  0.35430508844E+02  0.00000000000E+00 0. -1.
        -14    1    4    4    0    0  0.61798347689E+02 -0.27668621201E+02  0.24000220541E+01  0.67752110536E+02  0.00000000000E+00 0.  1.
<mgrwt>
<rscale>  2 0.17288384E+03</rscale>
<asrwt>0</asrwt>
<pdfrwt beam="1">  1       21 0.46154812E-01 0.17591998E+03</pdfrwt>
<pdfrwt beam="2">  1       21 0.15833235E-01 0.17591998E+03</pdfrwt>
<totfact> 0.16072249E+05</totfact>
</mgrwt>
</event>
<event>
12    1  0.1050690E-001  0.2182167E+03  0.7546771E-02  0.1135678E+00
         21   -1    0    0  501  502  0.00000000000E+00  0.00000000000E+00  0.43813542228E+03  0.43813542228E+03  0.00000000000E+00 0. -1.
         21   -1    0    0  502  503 -0.00000000000E+00 -0.00000000000E+00 -0.30255488149E+03  0.30255488149E+03  0.00000000000E+00 0. -1.
         -6    2    1    2    0  503  0.22112200198E+02  0.13372673799E+03 -0.22944740341E+03  0.31664590500E+03  0.17101674880E+03 0.  0.
        -24    2    3    3    0    0  0.13400691158E+02  0.13639497916E+03 -0.10229368783E+03  0.18907957995E+03  0.80646885378E+02 0.  0.
          6    2    1    2  501    0 -0.22112200198E+02 -0.13372673799E+03  0.36502794420E+03  0.42404439877E+03  0.16791802235E+03 0.  0.
         24    2    5    5    0    0 -0.43549943344E+02 -0.37602941923E+02  0.28176255366E+03  0.29499178832E+03  0.65722444619E+02 0.  0.
          5    1    5    5  501    0  0.21437743146E+02 -0.96123796069E+02  0.83265390545E+02  0.12905261045E+03  0.47000000000E+01 0. -1.
        -11    1    6    6    0    0 -0.16142267681E+02  0.15164444969E+02  0.37105909319E+02  0.43213212141E+02  0.00000000000E+00 0.  1.
         12    1    6    6    0    0 -0.27407675663E+02 -0.52767386891E+02  0.24465664434E+03  0.25177857618E+03  0.00000000000E+00 0. -1.
         -5    1    3    3    0  503  0.87115090396E+01 -0.26682411690E+01 -0.12715371557E+03  0.12756632504E+03  0.47000000000E+01 0.  1.
         11    1    4    4    0    0  0.26371455295E+02  0.64201197168E+01 -0.27135084277E+02  0.38379478765E+02  0.00000000000E+00 0. -1.
        -12    1    4    4    0    0 -0.12970764137E+02  0.12997485944E+03 -0.75158603558E+02  0.15070010119E+03  0.00000000000E+00 0.  1.
<mgrwt>
<rscale>  2 0.21760917E+03</rscale>
<asrwt>0</asrwt>
<pdfrwt beam="1">  1       21 0.67405450E-01 0.21821668E+03</pdfrwt>
<pdfrwt beam="2">  1       21 0.46546904E-01 0.21821668E+03</pdfrwt>
<totfact> 0.87441562E+03</totfact>
</mgrwt>
</event>
<event>
12    1  0.1050690E-001  0.1748127E+03  0.7546771E-02  0.1173402E+00
         21   -1    0    0  503  502  0.00000000000E+00  0.00000000000E+00  0.40501375750E+03  0.40501375750E+03  0.00000000000E+00 0. -1.
         21   -1    0    0  501  503 -0.00000000000E+00 -0.00000000000E+00 -0.15257683520E+03  0.15257683520E+03  0.00000000000E+00 0. -1.
          6    2    1    2  501    0  0.11327887605E+02 -0.74516817555E+01 -0.72708277697E+02  0.18933037106E+03  0.17428610720E+03 0.  0.
         24    2    3    3    0    0  0.58330063703E+02  0.34218185537E+02 -0.59977299931E+02  0.12506723861E+03  0.86436433945E+02 0.  0.
         -6    2    1    2    0  502 -0.11327887605E+02  0.74516817555E+01  0.32514520000E+03  0.36826022163E+03  0.17237268101E+03 0.  0.
        -24    2    5    5    0    0  0.36622129429E+02  0.13412984009E+02  0.30099801775E+03  0.31403921400E+03  0.80620919963E+02 0.  0.
          5    1    3    3  501    0 -0.47002176099E+02 -0.41669867293E+02 -0.12730977767E+02  0.64263132456E+02  0.47000000000E+01 0. -1.
        -11    1    4    4    0    0  0.48981442967E+02 -0.14404143544E+02 -0.55408022904E+02  0.75343945400E+02  0.00000000000E+00 0.  1.
         12    1    4    4    0    0  0.93486207363E+01  0.48622329081E+02 -0.45692770270E+01  0.49723293208E+02  0.00000000000E+00 0. -1.
         -5    1    5    5    0  502 -0.47950017034E+02 -0.59613022535E+01  0.24147182242E+02  0.54221007629E+02  0.47000000000E+01 0.  1.
         13    1    6    6    0    0  0.31887671494E+02  0.43712647987E+02  0.23665359476E+03  0.24276025849E+03  0.00000000000E+00 0. -1.
        -14    1    6    6    0    0  0.47344579349E+01 -0.30299663978E+02  0.64344422992E+02  0.71278955514E+02  0.00000000000E+00 0.  1.
<mgrwt>
<rscale>  2 0.17433388E+03</rscale>
<asrwt>0</asrwt>
<pdfrwt beam="1">  1       21 0.62309808E-01 0.17481274E+03</pdfrwt>
<pdfrwt beam="2">  1       21 0.23473359E-01 0.17481274E+03</pdfrwt>
<totfact> 0.41160940E+04</totfact>
</mgrwt>
</event>
<event>
12    1  0.1050690E-001  0.2576235E+03  0.7546771E-02  0.1109042E+00
         21   -1    0    0  503  502  0.00000000000E+00  0.00000000000E+00  0.13948429333E+04  0.13948429333E+04  0.00000000000E+00 0. -1.
         21   -1    0    0  501  503 -0.00000000000E+00 -0.00000000000E+00 -0.49603664597E+02  0.49603664597E+02  0.00000000000E+00 0.  1.
          6    2    1    2  501    0 -0.18778062260E+03  0.76355172070E+01  0.83351847696E+03  0.87153471863E+03  0.17175520659E+03 0.  0.
         24    2    3    3    0    0 -0.37855649619E+02 -0.38242068149E+02  0.29697460481E+03  0.31253233303E+03  0.81160564947E+02 0.  0.
         -6    2    1    2    0  502  0.18778062260E+03 -0.76355172070E+01  0.51172079173E+03  0.57291187926E+03  0.17621007166E+03 0.  0.
        -24    2    5    5    0    0  0.14094250636E+03 -0.11519803347E+02  0.49061256608E+03  0.52117655282E+03  0.10453139833E+03 0.  0.
          5    1    3    3  501    0 -0.14992497299E+03  0.45877585356E+02  0.53654387216E+03  0.55900238560E+03  0.47000000000E+01 0. -1.
        -13    1    4    4    0    0  0.17572755525E+02  0.12722209171E+02  0.55463110229E+02  0.59555125214E+02  0.00000000000E+00 0.  1.
         14    1    4    4    0    0 -0.55428405145E+02 -0.50964277320E+02  0.24151149458E+03  0.25297720781E+03  0.00000000000E+00 0. -1.
         -5    1    5    5    0  502  0.46838116246E+02  0.38842861397E+01  0.21108225649E+02  0.51735326445E+02  0.47000000000E+01 0.  1.
         11    1    6    6    0    0  0.11865846225E+03  0.34173092302E+02  0.37704024580E+03  0.39674548246E+03  0.00000000000E+00 0. -1.
        -12    1    6    6    0    0  0.22284044111E+02 -0.45692895648E+02  0.11357232029E+03  0.12443107036E+03  0.00000000000E+00 0.  1.
<mgrwt>
<rscale>  2 0.25686354E+03</rscale>
<asrwt>0</asrwt>
<pdfrwt beam="1">  1       21 0.21459119E+00 0.25762347E+03</pdfrwt>
<pdfrwt beam="2">  1       21 0.76313341E-02 0.25762347E+03</pdfrwt>
<totfact> 0.13486919E+04</totfact>
</mgrwt>
</event>
<event>
12    1  0.1050690E-001  0.2581188E+03  0.7546771E-02  0.1108609E+00
         21   -1    0    0  501  502  0.00000000000E+00  0.00000000000E+00  0.66608075433E+02  0.66608075433E+02  0.00000000000E+00 0. -1.
         21   -1    0    0  502  503 -0.00000000000E+00 -0.00000000000E+00 -0.20983318515E+04  0.20983318515E+04  0.00000000000E+00 0.  1.
         -6    2    1    2    0  503  0.13472079149E+03  0.13255852606E+03 -0.18039202206E+04  0.18222934654E+04  0.17579492944E+03 0.  0.
        -24    2    3    3    0    0  0.14512411259E+02  0.10018531447E+03 -0.80609400053E+03  0.81672032784E+03  0.83647169082E+02 0.  0.
          6    2    1    2  501    0 -0.13472079149E+03 -0.13255852606E+03 -0.22780355541E+03  0.34264646149E+03  0.17259977758E+03 0.  0.
         24    2    5    5    0    0 -0.10490530423E+03 -0.12020813031E+03 -0.25073987360E+03  0.30277591788E+03  0.57858921411E+02 0.  0.
          5    1    5    5  501    0 -0.29815487261E+02 -0.12350395744E+02  0.22936318188E+02  0.39870543609E+02  0.47000000000E+01 0. -1.
        -13    1    6    6    0    0  0.33786749812E+01  0.16832354131E+01 -0.19343840495E+02  0.19708700901E+02  0.00000000000E+00 0.  1.
         14    1    6    6    0    0 -0.10828397921E+03 -0.12189136572E+03 -0.23139603310E+03  0.28306721698E+03  0.00000000000E+00 0. -1.
         -5    1    3    3    0  503  0.12020838023E+03  0.32373211588E+02 -0.99782622010E+03  0.10055731376E+04  0.47000000000E+01 0.  1.
         11    1    4    4    0    0  0.39131540356E+01  0.94206443666E+02 -0.42079389278E+03  0.43122809162E+03  0.00000000000E+00 0. -1.
        -12    1    4    4    0    0  0.10599257223E+02  0.59788708020E+01 -0.38530010776E+03  0.38549223622E+03  0.00000000000E+00 0.  1.
<mgrwt>
<rscale>  2 0.25757573E+03</rscale>
<asrwt>0</asrwt>
<pdfrwt beam="1">  1       21 0.10247396E-01 0.25811879E+03</pdfrwt>
<pdfrwt beam="2">  1       21 0.32282030E+00 0.25811879E+03</pdfrwt>
<totfact> 0.18171381E+03</totfact>
</mgrwt>
</event>
<event>
12    1  0.1050690E-001  0.2762938E+03  0.7546771E-02  0.1097789E+00
         21   -1    0    0  501  502  0.00000000000E+00  0.00000000000E+00  0.25147052153E+04  0.25147052153E+04  0.00000000000E+00 0. -1.
         21   -1    0    0  502  503 -0.00000000000E+00 -0.00000000000E+00 -0.69153167818E+02  0.69153167818E+02  0.00000000000E+00 0.  1.
         -6    2    1    2    0  503  0.12107897274E+03  0.17862142071E+03  0.25412790347E+03  0.37508541129E+03  0.17187886685E+03 0.  0.
        -24    2    3    3    0    0  0.14580389898E+03  0.10362124044E+03  0.17872169278E+03  0.26579435206E+03  0.81908825468E+02 0.  0.
          6    2    1    2  501    0 -0.12107897274E+03 -0.17862142071E+03  0.21914241440E+04  0.22087729718E+04  0.17254718922E+03 0.  0.
         24    2    5    5    0    0 -0.39385899706E+01 -0.32268722032E+02  0.57282680103E+03  0.57934962892E+03  0.80365823812E+02 0.  0.
          5    1    5    5  501    0 -0.11714038277E+03 -0.14635269867E+03  0.16185973429E+04  0.16294233429E+04  0.47000000000E+01 0. -1.
        -13    1    6    6    0    0  0.22749868295E+02  0.88068473842E+01  0.36556087483E+03  0.36637394868E+03  0.00000000000E+00 0.  1.
         14    1    6    6    0    0 -0.26688458266E+02 -0.41075569417E+02  0.20726592620E+03  0.21297568024E+03  0.00000000000E+00 0. -1.
         -5    1    3    3    0  503 -0.24724926237E+02  0.75000180269E+02  0.75406210682E+02  0.10929105923E+03  0.47000000000E+01 0.  1.
         13    1    4    4    0    0 -0.62801886412E+00  0.32644710751E+02  0.42384915445E+02  0.53502828009E+02  0.00000000000E+00 0. -1.
        -14    1    4    4    0    0  0.14643191785E+03  0.70976529687E+02  0.13633677734E+03  0.21229152405E+03  0.00000000000E+00 0.  1.
<mgrwt>
<rscale>  2 0.27618952E+03</rscale>
<asrwt>0</asrwt>
<pdfrwt beam="1">  1       21 0.38687766E+00 0.27629380E+03</pdfrwt>
<pdfrwt beam="2">  1       21 0.10638951E-01 0.27629380E+03</pdfrwt>
<totfact> 0.68491704E+02</totfact>
</mgrwt>
</event>
<event>
12    1  0.1050690E-001  0.3219269E+03  0.7546771E-02  0.1074879E+00
         21   -1    0    0  503  502  0.00000000000E+00  0.00000000000E+00  0.42876641966E+03  0.42876641966E+03  0.00000000000E+00 0.  1.
         21   -1    0    0  501  503 -0.00000000000E+00 -0.00000000000E+00 -0.27561925695E+03  0.27561925695E+03  0.00000000000E+00 0. -1.
          6    2    1    2  501    0  0.15480580338E+03  0.22148066255E+03  0.20155607959E+03  0.37981805489E+03  0.17498108744E+03 0.  0.
         24    2    3    3    0    0  0.70470992551E+02  0.39922824966E+02  0.12984346294E+03  0.16712015154E+03  0.67155248780E+02 0.  0.
         -6    2    1    2    0  502 -0.15480580338E+03 -0.22148066255E+03 -0.48408916871E+02  0.32456762172E+03  0.17315368085E+03 0.  0.
        -24    2    5    5    0    0 -0.12360880445E+03 -0.24136666983E+03 -0.30720867904E+02  0.28329216771E+03  0.75984700552E+02 0.  0.
          5    1    3    3  501    0  0.84334810829E+02  0.18155783758E+03  0.71712616649E+02  0.21269790335E+03  0.47000000000E+01 0. -1.
        -13    1    4    4    0    0  0.30088227783E+02  0.53547061047E+02  0.64153499039E+02  0.88815880544E+02  0.00000000000E+00 0.  1.
         14    1    4    4    0    0  0.40382764768E+02 -0.13624236081E+02  0.65689963900E+02  0.78304270996E+02  0.00000000000E+00 0. -1.
         -5    1    5    5    0  502 -0.31196998925E+02  0.19886007280E+02 -0.17688048967E+02  0.41275454009E+02  0.47000000000E+01 0.  1.
         11    1    6    6    0    0 -0.90364228999E+02 -0.11415675881E+03 -0.41433354828E+02  0.15137431208E+03  0.00000000000E+00 0. -1.
        -12    1    6    6    0    0 -0.33244575455E+02 -0.12720991101E+03  0.10712486924E+02  0.13191785563E+03  0.00000000000E+00 0.  1.
<mgrwt>
<rscale>  2 0.32167917E+03</rscale>
<asrwt>0</asrwt>
<pdfrwt beam="1">  1       21 0.65964064E-01 0.32192686E+03</pdfrwt>
<pdfrwt beam="2">  1       21 0.42402963E-01 0.32192686E+03</pdfrwt>
<totfact> 0.10539079E+04</totfact>
</mgrwt>
</event>
<event>
12    1  0.1050690E-001  0.1989201E+03  0.7546771E-02  0.1150819E+00
         21   -1    0    0  503  502  0.00000000000E+00  0.00000000000E+00  0.10770344060E+04  0.10770344060E+04  0.00000000000E+00 0.  1.
         21   -1    0    0  501  503 -0.00000000000E+00 -0.00000000000E+00 -0.39972515721E+02  0.39972515721E+02  0.00000000000E+00 0. -1.
          6    2    1    2  501    0  0.51652402116E+02  0.79489561561E+02  0.35527302926E+03  0.40679197118E+03  0.17399488917E+03 0.  0.
         24    2    3    3    0    0 -0.75484661336E+01  0.83457152257E+02  0.14064135429E+03  0.18406045011E+03  0.84120052043E+02 0.  0.
         -6    2    1    2    0  502 -0.51652402116E+02 -0.79489561561E+02  0.68178886100E+03  0.71021495052E+03  0.17487899792E+03 0.  0.
        -24    2    5    5    0    0 -0.42716674448E+01  0.18782003541E+02  0.40377032281E+03  0.41152006924E+03  0.77118629421E+02 0.  0.
          5    1    3    3  501    0  0.59200868249E+02 -0.39675906961E+01  0.21463167497E+03  0.22273152107E+03  0.47000000000E+01 0. -1.
        -11    1    4    4    0    0 -0.23439153206E+02  0.15988488756E+02  0.99476227268E+02  0.10344344091E+03  0.00000000000E+00 0.  1.
         12    1    4    4    0    0  0.15890687072E+02  0.67468663501E+02  0.41165127018E+02  0.80617009202E+02  0.00000000000E+00 0. -1.
         -5    1    5    5    0  502 -0.47380734671E+02 -0.98271565102E+02  0.27801853819E+03  0.29869488128E+03  0.47000000000E+01 0.  1.
         13    1    6    6    0    0 -0.23706440888E+02 -0.22176242663E+02  0.12823311478E+03  0.13227816451E+03  0.00000000000E+00 0. -1.
        -14    1    6    6    0    0  0.19434773443E+02  0.40958246204E+02  0.27553720803E+03  0.27924190473E+03  0.00000000000E+00 0.  1.
<mgrwt>
<rscale>  2 0.19872566E+03</rscale>
<asrwt>0</asrwt>
<pdfrwt beam="1">  1       21 0.16569758E+00 0.19892015E+03</pdfrwt>
<pdfrwt beam="2">  1       21 0.61496186E-02 0.19892015E+03</pdfrwt>
<totfact> 0.43105161E+04</totfact>
</mgrwt>
</event>
<event>
12    1  0.1050690E-001  0.3261929E+03  0.7546771E-02  0.1072905E+00
         21   -1    0    0  503  502  0.00000000000E+00  0.00000000000E+00  0.27427004264E+04  0.27427004264E+04  0.00000000000E+00 0.  1.
         21   -1    0    0  501  503 -0.00000000000E+00 -0.00000000000E+00 -0.12319949110E+03  0.12319949110E+03  0.00000000000E+00 0. -1.
          6    2    1    2  501    0  0.63388033396E+02  0.26849527918E+03  0.12275489526E+03  0.34793593605E+03  0.17286669305E+03 0.  0.
         24    2    3    3    0    0  0.39032729099E+02  0.60541629783E+02  0.81891605284E+02  0.13455880604E+03  0.78809862254E+02 0.  0.
         -6    2    1    2    0  502 -0.63388033396E+02 -0.26849527918E+03  0.24967460401E+04  0.25179639815E+04  0.17405190514E+03 0.  0.
        -24    2    5    5    0    0 -0.67182610108E+02 -0.20796638824E+03  0.23054610095E+04  0.23172397967E+04  0.81769720221E+02 0.  0.
          5    1    3    3  501    0  0.24355304296E+02  0.20795364940E+03  0.40863289972E+02  0.21337713001E+03  0.47000000000E+01 0. -1.
        -13    1    4    4    0    0 -0.17878483796E+02 -0.48658602670E+01  0.23943336299E+02  0.30275404739E+02  0.00000000000E+00 0.  1.
         14    1    4    4    0    0  0.56911212896E+02  0.65407490050E+02  0.57948268985E+02  0.10428340130E+03  0.00000000000E+00 0. -1.
         -5    1    5    5    0  502  0.37945767126E+01 -0.60528890941E+02  0.19128503055E+03  0.20072418480E+03  0.47000000000E+01 0.  1.
         13    1    6    6    0    0  0.11746925620E+02 -0.59763300490E+02  0.83621639791E+03  0.83843157532E+03  0.00000000000E+00 0. -1.
        -14    1    6    6    0    0 -0.78929535728E+02 -0.14820308775E+03  0.14692446116E+04  0.14788082214E+04  0.00000000000E+00 0.  1.
<mgrwt>
<rscale>  2 0.32603509E+03</rscale>
<asrwt>0</asrwt>
<pdfrwt beam="1">  1       21 0.42195387E+00 0.32619292E+03</pdfrwt>
<pdfrwt beam="2">  1       21 0.18953770E-01 0.32619292E+03</pdfrwt>
<totfact> 0.13508266E+02</totfact>
</mgrwt>
</event>
<event>
12    1  0.1050690E-001  0.2470282E+03  0.7546771E-02  0.1115662E+00
         21   -1    0    0  501  502  0.00000000000E+00  0.00000000000E+00  0.11722232418E+04  0.11722232418E+04  0.00000000000E+00 0.  1.
         21   -1    0    0  502  503 -0.00000000000E+00 -0.00000000000E+00 -0.94958750690E+02  0.94958750690E+02  0.00000000000E+00 0. -1.
         -6    2    1    2    0  503  0.78291610623E+02 -0.15331907763E+03  0.11148475361E+03  0.27101985399E+03  0.17716262334E+03 0.  0.
        -24    2    3    3    0    0  0.77151378348E+01 -0.61625921391E+01  0.54177360724E+02  0.97981427582E+02  0.81041179917E+02 0.  0.
          6    2    1    2  501    0 -0.78291610623E+02  0.15331907763E+03  0.96577973748E+03  0.99616213848E+03  0.17312477856E+03 0.  0.
         24    2    5    5    0    0 -0.40097372861E+02  0.61135255101E+02  0.75789498276E+03  0.76552211988E+03  0.79208537453E+02 0.  0.
          5    1    5    5  501    0 -0.38194237762E+02  0.92183822531E+02  0.20788475472E+03  0.23064001860E+03  0.47000000000E+01 0. -1.
        -11    1    6    6    0    0 -0.49798210598E+02  0.31668212489E+02  0.66437485853E+03  0.66699077213E+03  0.00000000000E+00 0.  1.
         12    1    6    6    0    0  0.97008377370E+01  0.29467042613E+02  0.93520124225E+02  0.98531347743E+02  0.00000000000E+00 0. -1.
         -5    1    3    3    0  503  0.70576472788E+02 -0.14715648549E+03  0.57307392884E+02  0.17303842641E+03  0.47000000000E+01 0.  1.
         11    1    4    4    0    0  0.70557148094E+01 -0.43550903725E+02  0.32045525309E+02  0.54528708210E+02  0.00000000000E+00 0. -1.
        -12    1    4    4    0    0  0.65942302533E+00  0.37388311586E+02  0.22131835415E+02  0.43452719372E+02  0.00000000000E+00 0.  1.
<mgrwt>
<rscale>  2 0.24630508E+03</rscale>
<asrwt>0</asrwt>
<pdfrwt beam="1">  1       21 0.18034203E+00 0.24702816E+03</pdfrwt>
<pdfrwt beam="2">  1       21 0.14609039E-01 0.24702816E+03</pdfrwt>
<totfact> 0.71456584E+03</totfact>
</mgrwt>
</event>
<event>
12    1  0.1050690E-001  0.3090152E+03  0.7546771E-02  0.1080871E+00
         21   -1    0    0  503  502  0.00000000000E+00  0.00000000000E+00  0.18405545673E+03  0.18405545673E+03  0.00000000000E+00 0. -1.
         21   -1    0    0  501  503 -0.00000000000E+00 -0.00000000000E+00 -0.95505119110E+03  0.95505119110E+03  0.00000000000E+00 0.  1.
          6    2    1    2  501    0  0.18775212227E+03 -0.17321522892E+03 -0.77060098712E+03  0.83009118599E+03  0.17312169348E+03 0.  0.
         24    2    3    3    0    0  0.14956527345E+03 -0.47263843927E+02 -0.41734889818E+03  0.45308838076E+03  0.80655663197E+02 0.  0.
         -6    2    1    2    0  502 -0.18775212227E+03  0.17321522892E+03 -0.39474724828E+00  0.30901546184E+03  0.17388509103E+03 0.  0.
        -24    2    5    5    0    0 -0.10282767329E+03  0.16366919194E+03 -0.43518695783E+02  0.21317677553E+03  0.78672269313E+02 0.  0.
          5    1    3    3  501    0  0.38186848815E+02 -0.12595138499E+03 -0.35325208894E+03  0.37700280522E+03  0.47000000000E+01 0. -1.
        -11    1    4    4    0    0  0.10665492560E+03 -0.82899242742E+01 -0.33997570358E+03  0.35640913993E+03  0.00000000000E+00 0.  1.
         12    1    4    4    0    0  0.42910347854E+02 -0.38973919653E+02 -0.77373194594E+02  0.96679240832E+02  0.00000000000E+00 0. -1.
         -5    1    5    5    0  502 -0.84924448977E+02  0.95460369833E+01  0.43123948535E+02  0.95838686309E+02  0.47000000000E+01 0.  1.
         13    1    6    6    0    0  0.93198678259E+01  0.30418147586E+01  0.54896946890E+01  0.11236072316E+02  0.00000000000E+00 0. -1.
        -14    1    6    6    0    0 -0.11214754111E+03  0.16062737718E+03 -0.49008390472E+02  0.20194070321E+03  0.00000000000E+00 0.  1.
<mgrwt>
<rscale>  2 0.30890792E+03</rscale>
<asrwt>0</asrwt>
<pdfrwt beam="1">  1       21 0.28316224E-01 0.30901521E+03</pdfrwt>
<pdfrwt beam="2">  1       21 0.14693095E+00 0.30901521E+03</pdfrwt>
<totfact> 0.34668765E+03</totfact>
</mgrwt>
</event>
<event>
12    1  0.1050690E-001  0.2274332E+03  0.7546771E-02  0.1129068E+00
         21   -1    0    0  501  502  0.00000000000E+00  0.00000000000E+00  0.32137987503E+03  0.32137987503E+03  0.00000000000E+00 0.  1.
         21   -1    0    0  502  503 -0.00000000000E+00 -0.00000000000E+00 -0.17082535348E+03  0.17082535348E+03  0.00000000000E+00 0.  1.
         -6    2    1    2    0  503  0.14783710240E+03 -0.20987198180E+01  0.88260306636E+01  0.22422607037E+03  0.16834256250E+03 0.  0.
        -24    2    3    3    0    0  0.34757438990E+02  0.58797416391E+01  0.53268972116E+02  0.10237398312E+03  0.80001238130E+02 0.  0.
          6    2    1    2  501    0 -0.14783710240E+03  0.20987198180E+01  0.14172849089E+03  0.26797915814E+03  0.17281681226E+03 0.  0.
         24    2    5    5    0    0 -0.13544850199E+03  0.19137207963E+02  0.16948264914E+03  0.23281993747E+03  0.82269225742E+02 0.  0.
          5    1    5    5  501    0 -0.12388600405E+02 -0.17038488145E+02 -0.27754158247E+02  0.35159220672E+02  0.47000000000E+01 0. -1.
        -13    1    6    6    0    0 -0.90227927736E+02 -0.99555759033E+01  0.15057649773E+03  0.17582227988E+03  0.00000000000E+00 0.  1.
         14    1    6    6    0    0 -0.45220574256E+02  0.29092783866E+02  0.18906151407E+02  0.56997657585E+02  0.00000000000E+00 0. -1.
         -5    1    3    3    0  503  0.11307966341E+03 -0.79784614571E+01 -0.44442941452E+02  0.12185208725E+03  0.47000000000E+01 0.  1.
         11    1    4    4    0    0  0.45149397572E+01  0.32340198637E+02 -0.34795181191E+01  0.32838699353E+02  0.00000000000E+00 0. -1.
        -12    1    4    4    0    0  0.30242499233E+02 -0.26460456998E+02  0.56748490235E+02  0.69535283765E+02  0.00000000000E+00 0.  1.
<mgrwt>
<rscale>  2 0.22658323E+03</rscale>
<asrwt>0</asrwt>
<pdfrwt beam="1">  1       21 0.49443058E-01 0.22743321E+03</pdfrwt>
<pdfrwt beam="2">  1       21 0.26280824E-01 0.22743321E+03</pdfrwt>
<totfact> 0.52836582E+04</totfact>
</mgrwt>
</event>
<event>
12    1  0.1050690E-001  0.2312069E+03  0.7546771E-02  0.1126198E+00
         21   -1    0    0  503  502  0.00000000000E+00  0.00000000000E+00  0.47044671545E+02  0.47044671545E+02  0.00000000000E+00 0.  1.
         21   -1    0    0  501  503 -0.00000000000E+00 -0.00000000000E+00 -0.11413691716E+04  0.11413691716E+04  0.00000000000E+00 0. -1.
          6    2    1    2  501    0  0.78949331277E+02 -0.12657429127E+03 -0.47869044036E+03  0.53160246760E+03  0.17664257061E+03 0.  0.
         24    2    3    3    0    0  0.22744787659E+02 -0.14471345965E+03 -0.40076643323E+03  0.43371364781E+03  0.77681938229E+02 0.  0.
         -6    2    1    2    0  502 -0.78949331277E+02  0.12657429127E+03 -0.61563405965E+03  0.65681137549E+03  0.17361405318E+03 0.  0.
        -24    2    5    5    0    0 -0.88050595394E+01  0.11496310382E+03 -0.27001541330E+03  0.30392417364E+03  0.78533658956E+02 0.  0.
          5    1    3    3  501    0  0.56204543618E+02  0.18139168376E+02 -0.77924007129E+02  0.97888819789E+02  0.47000000000E+01 0. -1.
        -11    1    4    4    0    0  0.73175450776E+01 -0.14423620729E+03 -0.31446876421E+03  0.34604657725E+03  0.00000000000E+00 0.  1.
         12    1    4    4    0    0  0.15427242582E+02 -0.47725235287E+00 -0.86297669016E+02  0.87667070563E+02  0.00000000000E+00 0. -1.
         -5    1    5    5    0  502 -0.70144271737E+02  0.11611187453E+02 -0.34561864635E+03  0.35288720186E+03  0.47000000000E+01 0.  1.
         13    1    6    6    0    0 -0.22848100088E+02  0.40774198814E+02 -0.18225361784E+03  0.18815140760E+03  0.00000000000E+00 0. -1.
        -14    1    6    6    0    0  0.14043040549E+02  0.74188905004E+02 -0.87761795463E+02  0.11577276604E+03  0.00000000000E+00 0.  1.
<mgrwt>
<rscale>  2 0.23062840E+03</rscale>
<asrwt>0</asrwt>
<pdfrwt beam="1">  1       21 0.72376424E-02 0.23120693E+03</pdfrwt>
<pdfrwt beam="2">  1       21 0.17559524E+00 0.23120693E+03</pdfrwt>
<totfact> 0.27169514E+04</totfact>
</mgrwt>
</event>
<event>
12    1  0.1050690E-001  0.1899610E+03  0.7546771E-02  0.1158664E+00
         21   -1    0    0  503  502  0.00000000000E+00  0.00000000000E+00  0.18338628021E+04  0.18338628021E+04  0.00000000000E+00 0. -1.
         21   -1    0    0  501  503 -0.00000000000E+00 -0.00000000000E+00 -0.38280027401E+02  0.38280027401E+02  0.00000000000E+00 0.  1.
          6    2    1    2  501    0 -0.51442385616E+02 -0.56231565474E+02  0.24300652986E+03  0.30798868764E+03  0.17319512165E+03 0.  0.
         24    2    3    3    0    0 -0.31410991463E+02 -0.78019645402E+02  0.25182092647E+03  0.27675151802E+03  0.78127512858E+02 0.  0.
         -6    2    1    2    0  502  0.51442385616E+02  0.56231565474E+02  0.15525762448E+04  0.15641541418E+04  0.17400251571E+03 0.  0.
        -24    2    5    5    0    0  0.71531550634E+02 -0.10322343078E+02  0.76277400205E+03  0.77128424711E+03  0.88498012011E+02 0.  0.
          5    1    3    3  501    0 -0.20031394153E+02  0.21788079928E+02 -0.88143966019E+01  0.31237169624E+02  0.47000000000E+01 0. -1.
        -13    1    4    4    0    0 -0.56070990103E+02 -0.62467036983E+02  0.16427511231E+03  0.18447872280E+03  0.00000000000E+00 0.  1.
         14    1    4    4    0    0  0.24659998639E+02 -0.15552608419E+02  0.87545814151E+02  0.92272795216E+02  0.00000000000E+00 0. -1.
         -5    1    5    5    0  502 -0.20089165018E+02  0.66553908552E+02  0.78980224276E+03  0.79286989472E+03  0.47000000000E+01 0.  1.
         13    1    6    6    0    0  0.82219075780E+00 -0.38224761369E+02  0.26016963653E+03  0.26296396740E+03  0.00000000000E+00 0. -1.
        -14    1    6    6    0    0  0.70709359876E+02  0.27902418291E+02  0.50260436552E+03  0.50832027971E+03  0.00000000000E+00 0.  1.
<mgrwt>
<rscale>  2 0.18977591E+03</rscale>
<asrwt>0</asrwt>
<pdfrwt beam="1">  1       21 0.28213267E+00 0.18996101E+03</pdfrwt>
<pdfrwt beam="2">  1       21 0.58892364E-02 0.18996101E+03</pdfrwt>
<totfact> 0.88311654E+03</totfact>
</mgrwt>
</event>
<event>
12    1  0.1050690E-001  0.2100178E+03  0.7546771E-02  0.1141888E+00
         21   -1    0    0  503  502  0.00000000000E+00  0.00000000000E+00  0.86584122631E+03  0.86584122631E+03  0.00000000000E+00 0.  1.
         21   -1    0    0  501  503 -0.00000000000E+00 -0.00000000000E+00 -0.70065825610E+02  0.70065825610E+02  0.00000000000E+00 0.  1.
          6    2    1    2  501    0  0.83479068098E+02  0.82143511253E+02  0.14965085207E+03  0.25650700766E+03  0.17229090574E+03 0.  0.
         24    2    3    3    0    0 -0.90215552682E+01  0.78154113762E+02  0.10704169459E+03  0.15447803669E+03  0.78842155483E+02 0.  0.
         -6    2    1    2    0  502 -0.83479068098E+02 -0.82143511253E+02  0.64612454863E+03  0.67940004426E+03  0.17433065292E+03 0.  0.
        -24    2    5    5    0    0 -0.80466059843E+02 -0.10042804644E+03  0.64250758396E+03  0.65994304349E+03  0.78410751245E+02 0.  0.
          5    1    3    3  501    0  0.92500623367E+02  0.39893974910E+01  0.42609157475E+02  0.10202897097E+03  0.47000000000E+01 0. -1.
        -13    1    4    4    0    0  0.85504584288E+01  0.60515594023E+02  0.20557712475E+02  0.64481524497E+02  0.00000000000E+00 0.  1.
         14    1    4    4    0    0 -0.17572013697E+02  0.17638519739E+02  0.86483982119E+02  0.89996512194E+02  0.00000000000E+00 0. -1.
         -5    1    5    5    0  502 -0.30130082557E+01  0.18284535185E+02  0.36169646760E+01  0.19457000774E+02  0.47000000000E+01 0.  1.
         11    1    6    6    0    0  0.74953463358E+01 -0.43057548290E+02  0.14364972876E+03  0.15015118132E+03  0.00000000000E+00 0. -1.
        -12    1    6    6    0    0 -0.87961406179E+02 -0.57370498147E+02  0.49885785520E+03  0.50979186217E+03  0.00000000000E+00 0.  1.
<mgrwt>
<rscale>  2 0.20959404E+03</rscale>
<asrwt>0</asrwt>
<pdfrwt beam="1">  1       21 0.13320633E+00 0.21001783E+03</pdfrwt>
<pdfrwt beam="2">  1       21 0.10779358E-01 0.21001783E+03</pdfrwt>
<totfact> 0.28572714E+04</totfact>
</mgrwt>
</event>
<event>
12    1  0.1050690E-001  0.2148058E+03  0.7546771E-02  0.1139238E+00
         21   -1    0    0  501  502  0.00000000000E+00  0.00000000000E+00  0.21785721879E+04  0.21785721879E+04  0.00000000000E+00 0.  1.
         21   -1    0    0  502  503 -0.00000000000E+00 -0.00000000000E+00 -0.32067020182E+02  0.32067020182E+02  0.00000000000E+00 0.  1.
         -6    2    1    2    0  503  0.16518562367E+02  0.11221053179E+03  0.42037546305E+03  0.47207736918E+03  0.18242106845E+03 0.  0.
        -24    2    3    3    0    0 -0.54827848358E+02  0.10297515235E+03  0.27011812959E+03  0.30541915962E+03  0.81896789760E+02 0.  0.
          6    2    1    2  501    0 -0.16518562367E+02 -0.11221053179E+03  0.17261297046E+04  0.17385618389E+04  0.17380864186E+03 0.  0.
         24    2    5    5    0    0  0.15595696311E+02 -0.10723430738E+03  0.76296353491E+03  0.77483612637E+03  0.80717065748E+02 0.  0.
          5    1    5    5  501    0 -0.32114258677E+02 -0.49762244056E+01  0.96316616972E+03  0.96372571249E+03  0.47000000000E+01 0. -1.
        -11    1    6    6    0    0  0.26005689297E+02 -0.90478527923E+02  0.73262245683E+03  0.73864627810E+03  0.00000000000E+00 0.  1.
         12    1    6    6    0    0 -0.10409992986E+02 -0.16755779457E+02  0.30341078081E+02  0.36189848277E+02  0.00000000000E+00 0. -1.
         -5    1    3    3    0  503  0.71346410725E+02  0.92353794382E+01  0.15025733346E+03  0.16665820956E+03  0.47000000000E+01 0.  1.
         13    1    4    4    0    0 -0.48772395841E+02  0.24080025187E+02  0.60461601271E+02  0.81327728588E+02  0.00000000000E+00 0. -1.
        -14    1    4    4    0    0 -0.60554525172E+01  0.78895127160E+02  0.20965652832E+03  0.22409143103E+03  0.00000000000E+00 0.  1.
<mgrwt>
<rscale>  2 0.21296622E+03</rscale>
<asrwt>0</asrwt>
<pdfrwt beam="1">  1       21 0.33516484E+00 0.21480576E+03</pdfrwt>
<pdfrwt beam="2">  1       21 0.49333894E-02 0.21480576E+03</pdfrwt>
<totfact> 0.57299036E+03</totfact>
</mgrwt>
</event>
<event>
12    1  0.1050690E-001  0.1976062E+03  0.7546771E-02  0.1151801E+00
         21   -1    0    0  503  502  0.00000000000E+00  0.00000000000E+00  0.29888859810E+03  0.29888859810E+03  0.00000000000E+00 0.  1.
         21   -1    0    0  501  503 -0.00000000000E+00 -0.00000000000E+00 -0.19895900035E+03  0.19895900035E+03  0.00000000000E+00 0. -1.
          6    2    1    2  501    0 -0.79334250850E+02 -0.52868349962E+02 -0.95995030726E+02  0.21957677167E+03  0.17294486678E+03 0.  0.
         24    2    3    3    0    0 -0.15726696771E+02 -0.87921728020E+02 -0.81712354724E+02  0.14540976362E+03  0.80557626527E+02 0.  0.
         -6    2    1    2    0  502  0.79334250850E+02  0.52868349962E+02  0.19592462848E+03  0.27827082679E+03  0.17308728206E+03 0.  0.
        -24    2    5    5    0    0  0.11570565073E+03  0.18322897842E+02  0.17052903095E+03  0.22185014471E+03  0.80086266709E+02 0.  0.
          5    1    3    3  501    0 -0.63607554078E+02  0.35053378058E+02 -0.14282676003E+02  0.74167008049E+02  0.47000000000E+01 0. -1.
        -11    1    4    4    0    0 -0.10684011359E+01  0.30705456042E+01  0.12913787198E+02  0.13316742511E+02  0.00000000000E+00 0.  1.
         12    1    4    4    0    0 -0.14658295636E+02 -0.90992273624E+02 -0.94626141922E+02  0.13209302111E+03  0.00000000000E+00 0. -1.
         -5    1    5    5    0  502 -0.36371399885E+02  0.34545452120E+02  0.25395597530E+02  0.56420682074E+02  0.47000000000E+01 0.  1.
         13    1    6    6    0    0 -0.47233864357E+00 -0.97870478175E+01  0.54124847586E+02  0.55004622851E+02  0.00000000000E+00 0. -1.
        -14    1    6    6    0    0  0.11617798938E+03  0.28109945660E+02  0.11640418336E+03  0.16684552186E+03  0.00000000000E+00 0.  1.
<mgrwt>
<rscale>  2 0.19757497E+03</rscale>
<asrwt>0</asrwt>
<pdfrwt beam="1">  1       21 0.45982861E-01 0.19760616E+03</pdfrwt>
<pdfrwt beam="2">  1       21 0.30609077E-01 0.19760616E+03</pdfrwt>
<totfact> 0.46329837E+04</totfact>
</mgrwt>
</event>
<event>
12    1  0.1050690E-001  0.2933327E+03  0.7546771E-02  0.1088625E+00
         21   -1    0    0  501  502  0.00000000000E+00  0.00000000000E+00  0.17914319881E+03  0.17914319881E+03  0.00000000000E+00 0. -1.
         21   -1    0    0  502  503 -0.00000000000E+00 -0.00000000000E+00 -0.94379882918E+03  0.94379882918E+03  0.00000000000E+00 0.  1.
         -6    2    1    2    0  503  0.22678550706E+03 -0.69631122100E+02 -0.77580458260E+03  0.82939755583E+03  0.17247433389E+03 0.  0.
        -24    2    3    3    0    0  0.50607745874E+02 -0.64091206588E+02 -0.25248563654E+03  0.27717105927E+03  0.80037320861E+02 0.  0.
          6    2    1    2  501    0 -0.22678550706E+03  0.69631122100E+02  0.11148952231E+02  0.29354447215E+03  0.17252216848E+03 0.  0.
         24    2    5    5    0    0 -0.21621470689E+03  0.14955664024E+02  0.31377092814E+02  0.23411034725E+03  0.82768722196E+02 0.  0.
          5    1    5    5  501    0 -0.10570800175E+02  0.54675458076E+02 -0.20228140583E+02  0.59434124908E+02  0.47000000000E+01 0. -1.
        -13    1    6    6    0    0 -0.82630992875E+02 -0.16536219220E+02 -0.21602322451E+02  0.86994182937E+02  0.00000000000E+00 0.  1.
         14    1    6    6    0    0 -0.13358371401E+03  0.31491883244E+02  0.52979415265E+02  0.14711616431E+03  0.00000000000E+00 0. -1.
         -5    1    3    3    0  503  0.17617776119E+03 -0.55399155117E+01 -0.52331894606E+03  0.55222649657E+03  0.47000000000E+01 0.  1.
         11    1    4    4    0    0 -0.77611371943E+01 -0.52074790967E+02 -0.14512112069E+03  0.15437667821E+03  0.00000000000E+00 0. -1.
        -12    1    4    4    0    0  0.58368883068E+02 -0.12016415621E+02 -0.10736451585E+03  0.12279438106E+03  0.00000000000E+00 0.  1.
<mgrwt>
<rscale>  2 0.29332564E+03</rscale>
<asrwt>0</asrwt>
<pdfrwt beam="1">  1       21 0.27560492E-01 0.29333267E+03</pdfrwt>
<pdfrwt beam="2">  1       21 0.14519982E+00 0.29333267E+03</pdfrwt>
<totfact> 0.38054289E+03</totfact>
</mgrwt>
</event>
<event>
12    1  0.1050690E-001  0.1851509E+03  0.7546771E-02  0.1163543E+00
         21   -1    0    0  501  502  0.00000000000E+00  0.00000000000E+00  0.37609393275E+02  0.37609393275E+02  0.00000000000E+00 0.  1.
         21   -1    0    0  502  503 -0.00000000000E+00 -0.00000000000E+00 -0.90867305858E+03  0.90867305858E+03  0.00000000000E+00 0.  1.
         -6    2    1    2    0  503 -0.53466435943E+02  0.27211662473E+02 -0.48301313760E+03  0.51632425081E+03  0.17230759278E+03 0.  0.
        -24    2    3    3    0    0 -0.96965776529E+02  0.46121201178E+02 -0.37519832331E+03  0.39844343190E+03  0.80335917215E+02 0.  0.
          6    2    1    2  501    0  0.53466435943E+02 -0.27211662473E+02 -0.38805052770E+03  0.42995820104E+03  0.17516194863E+03 0.  0.
         24    2    5    5    0    0  0.63236554316E+02  0.83586025986E+01 -0.37748382150E+03  0.39130015854E+03  0.80950914398E+02 0.  0.
          5    1    5    5  501    0 -0.97701183733E+01 -0.35570265072E+02 -0.10566706206E+02  0.38658042505E+02  0.47000000000E+01 0. -1.
        -13    1    6    6    0    0  0.86484292285E+01  0.28121297710E+02 -0.44855180006E+02  0.53643171852E+02  0.00000000000E+00 0.  1.
         14    1    6    6    0    0  0.54588125087E+02 -0.19762695111E+02 -0.33262864149E+03  0.33765698669E+03  0.00000000000E+00 0. -1.
         -5    1    3    3    0  503  0.43499340587E+02 -0.18909538705E+02 -0.10781481429E+03  0.11788081891E+03  0.47000000000E+01 0.  1.
         11    1    4    4    0    0  0.62266349474E+01  0.22622119086E+02 -0.11820075984E+03  0.12050705739E+03  0.00000000000E+00 0. -1.
        -12    1    4    4    0    0 -0.10319241148E+03  0.23499082092E+02 -0.25699756347E+03  0.27793637451E+03  0.00000000000E+00 0.  1.
<mgrwt>
<rscale>  2 0.18447264E+03</rscale>
<asrwt>0</asrwt>
<pdfrwt beam="1">  1       21 0.57860602E-02 0.18515086E+03</pdfrwt>
<pdfrwt beam="2">  1       21 0.13979586E+00 0.18515086E+03</pdfrwt>
<totfact> 0.75637538E+04</totfact>
</mgrwt>
</event>
<event>
12    1  0.1050690E-001  0.1877795E+03  0.7546771E-02  0.1160536E+00
         21   -1    0    0  503  502  0.00000000000E+00  0.00000000000E+00  0.19595902610E+03  0.19595902610E+03  0.00000000000E+00 0. -1.
         21   -1    0    0  501  503 -0.00000000000E+00 -0.00000000000E+00 -0.82436808039E+03  0.82436808039E+03  0.00000000000E+00 0. -1.
          6    2    1    2  501    0  0.68319419179E+02 -0.34209029666E+02 -0.76539290783E+03  0.78809101836E+03  0.17153235591E+03 0.  0.
         24    2    3    3    0    0  0.10685132309E+03 -0.37862981040E+02 -0.46827820295E+03  0.48842904741E+03  0.80172616384E+02 0.  0.
         -6    2    1    2    0  502 -0.68319419179E+02  0.34209029666E+02  0.13698385354E+03  0.23223608813E+03  0.17126360895E+03 0.  0.
        -24    2    5    5    0    0  0.28907105065E+02  0.16401754720E+02  0.80822216960E+02  0.11845421136E+03  0.79965812400E+02 0.  0.
          5    1    3    3  501    0 -0.38531903912E+02  0.36539513740E+01 -0.29711470488E+03  0.29966197095E+03  0.47000000000E+01 0. -1.
        -13    1    4    4    0    0  0.78712466570E+02  0.13209367314E+02 -0.29479358517E+03  0.30540693777E+03  0.00000000000E+00 0.  1.
         14    1    4    4    0    0  0.28138856520E+02 -0.51072348354E+02 -0.17348461777E+03  0.18302210964E+03  0.00000000000E+00 0. -1.
         -5    1    5    5    0  502 -0.97226524243E+02  0.17807274947E+02  0.56161636581E+02  0.11378187677E+03  0.47000000000E+01 0.  1.
         11    1    6    6    0    0 -0.47040224943E+01  0.20707530562E+02  0.81843058216E+02  0.84553035592E+02  0.00000000000E+00 0. -1.
        -12    1    6    6    0    0  0.33611127559E+02 -0.43057758423E+01 -0.10208412561E+01  0.33901175765E+02  0.00000000000E+00 0.  1.
<mgrwt>
<rscale>  2 0.18771813E+03</rscale>
<asrwt>0</asrwt>
<pdfrwt beam="1">  1       21 0.30147543E-01 0.18777952E+03</pdfrwt>
<pdfrwt beam="2">  1       21 0.12682586E+00 0.18777952E+03</pdfrwt>
<totfact> 0.48747125E+03</totfact>
</mgrwt>
</event>
<event>
12    1  0.1050690E-001  0.2666856E+03  0.7546771E-02  0.1103194E+00
         21   -1    0    0  501  502  0.00000000000E+00  0.00000000000E+00  0.64598414308E+03  0.64598414308E+03  0.00000000000E+00 0. -1.
         21   -1    0    0  502  503 -0.00000000000E+00 -0.00000000000E+00 -0.13629726640E+03  0.13629726640E+03  0.00000000000E+00 0.  1.
         -6    2    1    2    0  503  0.80438075521E+02 -0.18733310726E+03  0.83321148950E+02  0.27938086870E+03  0.17189321936E+03 0.  0.
        -24    2    3    3    0    0 -0.13949690386E+02 -0.13741074338E+03  0.48961509913E+02  0.16711347555E+03  0.80332919781E+02 0.  0.
          6    2    1    2  501    0 -0.80438075521E+02  0.18733310726E+03  0.42636572773E+03  0.50290054078E+03  0.17192220061E+03 0.  0.
         24    2    5    5    0    0  0.18041964946E+02  0.86315609435E+02  0.14262384941E+03  0.18598667748E+03  0.80458590897E+02 0.  0.
          5    1    5    5  501    0 -0.98480040467E+02  0.10101749783E+03  0.28374187832E+03  0.31691386330E+03  0.47000000000E+01 0. -1.
        -13    1    6    6    0    0 -0.17581687933E+02  0.57738663201E+02  0.12150669676E+03  0.13567146471E+03  0.00000000000E+00 0.  1.
         14    1    6    6    0    0  0.35623652879E+02  0.28576946234E+02  0.21117152654E+02  0.50315212776E+02  0.00000000000E+00 0. -1.
         -5    1    3    3    0  503  0.94387765907E+02 -0.49922363885E+02  0.34359639037E+02  0.11226739315E+03  0.47000000000E+01 0.  1.
         13    1    4    4    0    0 -0.30156538701E+02 -0.10889031088E+03  0.65262807677E+02  0.13048276015E+03  0.00000000000E+00 0. -1.
        -14    1    4    4    0    0  0.16206848315E+02 -0.28520432493E+02 -0.16301297764E+02  0.36630715400E+02  0.00000000000E+00 0.  1.
<mgrwt>
<rscale>  2 0.26668095E+03</rscale>
<asrwt>0</asrwt>
<pdfrwt beam="1">  1       21 0.99382174E-01 0.26668562E+03</pdfrwt>
<pdfrwt beam="2">  1       21 0.20968811E-01 0.26668562E+03</pdfrwt>
<totfact> 0.16884261E+04</totfact>
</mgrwt>
</event>
<event>
12    1  0.1050690E-001  0.1953958E+03  0.7546771E-02  0.1158298E+00
         21   -1    0    0  501  502  0.00000000000E+00  0.00000000000E+00  0.26294292129E+03  0.26294292129E+03  0.00000000000E+00 0.  1.
         21   -1    0    0  502  503 -0.00000000000E+00 -0.00000000000E+00 -0.22009670832E+03  0.22009670832E+03  0.00000000000E+00 0.  1.
         -6    2    1    2    0  503 -0.79380726490E+02 -0.38007644664E+02 -0.13168612720E+03  0.23562841725E+03  0.17445238356E+03 0.  0.
        -24    2    3    3    0    0 -0.10644027922E+02 -0.32915488935E+02 -0.14082108380E+03  0.16594196798E+03  0.80681065632E+02 0.  0.
          6    2    1    2  501    0  0.79380726490E+02  0.38007644664E+02  0.17453234016E+03  0.24741121236E+03  0.15167362805E+03 0.  0.
         24    2    5    5    0    0  0.11136833273E+03  0.24831741566E+02  0.15110369532E+03  0.20536596561E+03  0.79519382325E+02 0.  0.
          5    1    5    5  501    0 -0.31987606239E+02  0.13175903098E+02  0.23428644843E+02  0.42045246753E+02  0.47000000000E+01 0. -1.
        -13    1    6    6    0    0  0.92325025769E+01 -0.13604646042E+02  0.63003804106E+02  0.65113783714E+02  0.00000000000E+00 0.  1.
         14    1    6    6    0    0  0.10213583015E+03  0.38436387608E+02  0.88099891216E+02  0.14025218189E+03  0.00000000000E+00 0. -1.
         -5    1    3    3    0  503 -0.68736698568E+02 -0.50921557291E+01  0.91349566065E+01  0.69686449272E+02  0.47000000000E+01 0.  1.
         11    1    4    4    0    0  0.23187021707E+02  0.59735989154E+01 -0.11172248266E+02  0.26422357786E+02  0.00000000000E+00 0. -1.
        -12    1    4    4    0    0 -0.33831049629E+02 -0.38889087850E+02 -0.12964883554E+03  0.13951961019E+03  0.00000000000E+00 0.  1.
<mgrwt>
<rscale>  2 0.19018156E+03</rscale>
<asrwt>0</asrwt>
<pdfrwt beam="1">  1       21 0.40452757E-01 0.19539579E+03</pdfrwt>
<pdfrwt beam="2">  1       21 0.33861032E-01 0.19539579E+03</pdfrwt>
<totfact> 0.49408618E+04</totfact>
</mgrwt>
</event>
<event>
12    1  0.1050690E-001  0.1794541E+03  0.7546771E-02  0.1168647E+00
         21   -1    0    0  501  502  0.00000000000E+00  0.00000000000E+00  0.77340898932E+03  0.77340898932E+03  0.00000000000E+00 0. -1.
         21   -1    0    0  502  503 -0.00000000000E+00 -0.00000000000E+00 -0.80512325528E+02  0.80512325528E+02  0.00000000000E+00 0. -1.
         -6    2    1    2    0  503  0.32435606550E+02  0.34199176311E+02  0.49275997305E+02  0.18609647495E+03  0.17315346328E+03 0.  0.
        -24    2    3    3    0    0  0.62702097571E+02 -0.25970168933E+02  0.46939437643E+02  0.11853938726E+03  0.85101544123E+02 0.  0.
          6    2    1    2  501    0 -0.32435606550E+02 -0.34199176311E+02  0.64362066648E+03  0.66782483989E+03  0.17181618731E+03 0.  0.
         24    2    5    5    0    0  0.12510374538E+02 -0.33258291350E+02  0.16321031757E+03  0.18529274788E+03  0.80207052317E+02 0.  0.
          5    1    5    5  501    0 -0.44945981088E+02 -0.94088496109E+00  0.48041034891E+03  0.48253209201E+03  0.47000000000E+01 0. -1.
        -13    1    6    6    0    0 -0.46574177195E+01 -0.62516233410E+01 -0.79688638831E+01  0.11147965097E+02  0.00000000000E+00 0.  1.
         14    1    6    6    0    0  0.17167792258E+02 -0.27006668009E+02  0.17117918146E+03  0.17414478279E+03  0.00000000000E+00 0. -1.
         -5    1    3    3    0  503 -0.30266491020E+02  0.60169345244E+02  0.23365596615E+01  0.67557087688E+02  0.47000000000E+01 0.  1.
         13    1    4    4    0    0  0.41429424631E+02 -0.21082159650E+02 -0.18138582149E+02  0.49898525461E+02  0.00000000000E+00 0. -1.
        -14    1    4    4    0    0  0.21272672939E+02 -0.48880092834E+01  0.65078019793E+02  0.68640861802E+02  0.00000000000E+00 0.  1.
<mgrwt>
<rscale>  2 0.17913073E+03</rscale>
<asrwt>0</asrwt>
<pdfrwt beam="1">  1       21 0.11898599E+00 0.17945410E+03</pdfrwt>
<pdfrwt beam="2">  1       21 0.12386512E-01 0.17945410E+03</pdfrwt>
<totfact> 0.30133018E+04</totfact>
</mgrwt>
</event>
<event>
12    1  0.1050690E-001  0.1786559E+03  0.7546771E-02  0.1169267E+00
         21   -1    0    0  503  502  0.00000000000E+00  0.00000000000E+00  0.18059369369E+03  0.18059369369E+03  0.00000000000E+00 0.  1.
         21   -1    0    0  501  503 -0.00000000000E+00 -0.00000000000E+00 -0.51892682546E+03  0.51892682546E+03  0.00000000000E+00 0.  1.
          6    2    1    2  501    0 -0.34617147616E+02 -0.18305750287E+02 -0.45334598175E+03  0.48704493752E+03  0.17365697391E+03 0.  0.
         24    2    3    3    0    0  0.32477084370E+02 -0.24633390543E+02 -0.36336396582E+03  0.37452592496E+03  0.81084720304E+02 0.  0.
         -6    2    1    2    0  502  0.34617147616E+02  0.18305750287E+02  0.11501284999E+03  0.21247558163E+03  0.17431141594E+03 0.  0.
        -24    2    5    5    0    0 -0.43827265583E+02  0.10269553883E+02  0.91871221187E+02  0.13016075066E+03  0.80468669582E+02 0.  0.
          5    1    3    3  501    0 -0.67094231986E+02  0.63276402562E+01 -0.89982015930E+02  0.11251901256E+03  0.47000000000E+01 0. -1.
        -11    1    4    4    0    0  0.49579491786E+00  0.20301625550E+02 -0.21973357995E+03  0.22066999790E+03  0.00000000000E+00 0.  1.
         12    1    4    4    0    0  0.31981289452E+02 -0.44935016092E+02 -0.14363038587E+03  0.15385592706E+03  0.00000000000E+00 0. -1.
         -5    1    5    5    0  502  0.78444413199E+02  0.80361964038E+01  0.23141628803E+02  0.82314830975E+02  0.47000000000E+01 0.  1.
         13    1    6    6    0    0 -0.26780646265E+02 -0.34848193822E+01 -0.78007006088E+01  0.28110459094E+02  0.00000000000E+00 0. -1.
        -14    1    6    6    0    0 -0.17046619319E+02  0.13754373265E+02  0.99671921796E+02  0.10205029157E+03  0.00000000000E+00 0.  1.
<mgrwt>
<rscale>  2 0.17849603E+03</rscale>
<asrwt>0</asrwt>
<pdfrwt beam="1">  1       21 0.27783646E-01 0.17865586E+03</pdfrwt>
<pdfrwt beam="2">  1       21 0.79834894E-01 0.17865586E+03</pdfrwt>
<totfact> 0.17240080E+04</totfact>
</mgrwt>
</event>
<event>
12    1  0.1050690E-001  0.2300116E+03  0.7546771E-02  0.1126826E+00
         21   -1    0    0  501  502  0.00000000000E+00  0.00000000000E+00  0.80995177544E+02  0.80995177544E+02  0.00000000000E+00 0.  1.
         21   -1    0    0  502  503 -0.00000000000E+00 -0.00000000000E+00 -0.14388804744E+04  0.14388804744E+04  0.00000000000E+00 0.  1.
         -6    2    1    2    0  503 -0.11438280016E+03 -0.97627290051E+02 -0.12423449230E+04  0.12634580573E+04  0.17404264426E+03 0.  0.
        -24    2    3    3    0    0 -0.18074378053E+02 -0.70038546244E+02 -0.86922568793E+03  0.87709488027E+03  0.92249939522E+02 0.  0.
          6    2    1    2  501    0  0.11438280016E+03  0.97627290051E+02 -0.11554037384E+03  0.25641759466E+03  0.17258589783E+03 0.  0.
         24    2    5    5    0    0  0.14107082607E+02  0.22974224296E+01 -0.79868587092E+01  0.81109717464E+02  0.79439967432E+02 0.  0.
          5    1    5    5  501    0  0.10027571755E+03  0.95329867621E+02 -0.10755351513E+03  0.17530787720E+03  0.47000000000E+01 0. -1.
        -11    1    6    6    0    0  0.46005414778E+02 -0.26360631509E+01  0.49293322953E+01  0.46343773419E+02  0.00000000000E+00 0.  1.
         12    1    6    6    0    0 -0.31898332171E+02  0.49334855805E+01 -0.12916191004E+02  0.34765944045E+02  0.00000000000E+00 0. -1.
         -5    1    3    3    0  503 -0.96308422109E+02 -0.27588743806E+02 -0.37311923511E+03  0.38636317703E+03  0.47000000000E+01 0.  1.
         11    1    4    4    0    0  0.34075152738E+02 -0.19557280897E+02 -0.44249374711E+03  0.44423453209E+03  0.00000000000E+00 0. -1.
        -12    1    4    4    0    0 -0.52149530791E+02 -0.50481265347E+02 -0.42673194082E+03  0.43286034818E+03  0.00000000000E+00 0.  1.
<mgrwt>
<rscale>  2 0.22973607E+03</rscale>
<asrwt>0</asrwt>
<pdfrwt beam="1">  1       21 0.12460796E-01 0.23001164E+03</pdfrwt>
<pdfrwt beam="2">  1       21 0.22136623E+00 0.23001164E+03</pdfrwt>
<totfact> 0.52326077E+03</totfact>
</mgrwt>
</event>
<event>
12    1  0.1050690E-001  0.2537924E+03  0.7546771E-02  0.1111201E+00
         21   -1    0    0  501  502  0.00000000000E+00  0.00000000000E+00  0.61217503015E+03  0.61217503015E+03  0.00000000000E+00 0.  1.
         21   -1    0    0  502  503 -0.00000000000E+00 -0.00000000000E+00 -0.12522473684E+03  0.12522473684E+03  0.00000000000E+00 0. -1.
         -6    2    1    2    0  503  0.12914703988E+03 -0.13905564228E+03  0.92781622028E+02  0.26859329995E+03  0.16588701525E+03 0.  0.
        -24    2    3    3    0    0  0.97001271391E+02 -0.10507040495E+03  0.40095529555E-02  0.16458309773E+03  0.81477355101E+02 0.  0.
          6    2    1    2  501    0 -0.12914703988E+03  0.13905564228E+03  0.39416867128E+03  0.46880646704E+03  0.16850855337E+03 0.  0.
         24    2    5    5    0    0 -0.91092188949E+02  0.93455100533E+02  0.37558538783E+03  0.40639645573E+03  0.84036021916E+02 0.  0.
          5    1    5    5  501    0 -0.38054850931E+02  0.45600541749E+02  0.18583283449E+02  0.62410011304E+02  0.47000000000E+01 0. -1.
        -11    1    6    6    0    0 -0.93635786486E+02  0.99761418216E+02  0.29124069820E+03  0.32177809957E+03  0.00000000000E+00 0.  1.
         12    1    6    6    0    0  0.25435975368E+01 -0.63063176823E+01  0.84344689634E+02  0.84618356168E+02  0.00000000000E+00 0. -1.
         -5    1    3    3    0  503  0.32145768490E+02 -0.33985237331E+02  0.92777612475E+02  0.10401020222E+03  0.47000000000E+01 0.  1.
         11    1    4    4    0    0  0.62282776055E+02 -0.96286335485E+01  0.85245048793E-01  0.63022710540E+02  0.00000000000E+00 0. -1.
        -12    1    4    4    0    0  0.34718495336E+02 -0.95441771403E+02 -0.81235495838E-01  0.10156038719E+03  0.00000000000E+00 0.  1.
<mgrwt>
<rscale>  2 0.25335800E+03</rscale>
<asrwt>0</asrwt>
<pdfrwt beam="1">  1       21 0.94180772E-01 0.25379236E+03</pdfrwt>
<pdfrwt beam="2">  1       21 0.19265345E-01 0.25379236E+03</pdfrwt>
<totfact> 0.22634365E+04</totfact>
</mgrwt>
</event>
<event>
12    1  0.1050690E-001  0.1740663E+03  0.7546771E-02  0.1174798E+00
         21   -1    0    0  503  502  0.00000000000E+00  0.00000000000E+00  0.79338626125E+02  0.79338626125E+02  0.00000000000E+00 0.  1.
         21   -1    0    0  501  503 -0.00000000000E+00 -0.00000000000E+00 -0.10980508862E+04  0.10980508862E+04  0.00000000000E+00 0.  1.
          6    2    1    2  501    0 -0.12460623209E+02  0.10920575967E+02 -0.99014073920E+03  0.10053246998E+04  0.17327591454E+03 0.  0.
         24    2    3    3    0    0 -0.31066121223E+02 -0.51850258909E+02 -0.70054111819E+03  0.70837963293E+03  0.85966812444E+02 0.  0.
         -6    2    1    2    0  502  0.12460623209E+02 -0.10920575967E+02 -0.28571520839E+02  0.17206481246E+03  0.16886515855E+03 0.  0.
        -24    2    5    5    0    0 -0.15551632230E+02  0.51088006828E+02 -0.36902746055E+02  0.10335345889E+03  0.80425661899E+02 0.  0.
          5    1    3    3  501    0  0.18605498014E+02  0.62770834876E+02 -0.28959962101E+03  0.29694506690E+03  0.47000000000E+01 0. -1.
        -11    1    4    4    0    0 -0.83124947279E+00 -0.28323028727E+01 -0.49263944375E+03  0.49264828677E+03  0.00000000000E+00 0.  1.
         12    1    4    4    0    0 -0.30234871750E+02 -0.49017956036E+02 -0.20790167443E+03  0.21573134616E+03  0.00000000000E+00 0. -1.
         -5    1    5    5    0  502  0.28012255439E+02 -0.62008582795E+02  0.83312252165E+01  0.68711353565E+02  0.47000000000E+01 0.  1.
         13    1    6    6    0    0 -0.10531279102E+02 -0.18584034892E+02  0.49440245292E+01  0.21925272425E+02  0.00000000000E+00 0. -1.
        -14    1    6    6    0    0 -0.50203531282E+01  0.69672041720E+02 -0.41846770584E+02  0.81428186467E+02  0.00000000000E+00 0.  1.
<mgrwt>
<rscale>  2 0.17295819E+03</rscale>
<asrwt>0</asrwt>
<pdfrwt beam="1">  1       21 0.12205943E-01 0.17406628E+03</pdfrwt>
<pdfrwt beam="2">  1       21 0.16893090E+00 0.17406628E+03</pdfrwt>
<totfact> 0.12538848E+04</totfact>
</mgrwt>
</event>
<event>
12    1  0.1050690E-001  0.1993385E+03  0.7546771E-02  0.1155020E+00
         21   -1    0    0  501  502  0.00000000000E+00  0.00000000000E+00  0.73359297938E+02  0.73359297938E+02  0.00000000000E+00 0.  1.
         21   -1    0    0  502  503 -0.00000000000E+00 -0.00000000000E+00 -0.51665106541E+03  0.51665106541E+03  0.00000000000E+00 0.  1.
         -6    2    1    2    0  503  0.36693211726E+02  0.22361871693E+02 -0.13840224603E+03  0.22573924232E+03  0.17307968894E+03 0.  0.
        -24    2    3    3    0    0  0.36181404946E+02  0.12829552476E+02 -0.17003888826E+03  0.19236119284E+03  0.81338265955E+02 0.  0.
          6    2    1    2  501    0 -0.36693211726E+02 -0.22361871693E+02 -0.30488952144E+03  0.36427112103E+03  0.19465195669E+03 0.  0.
         24    2    5    5    0    0  0.35771419825E+02 -0.70667672226E+02 -0.16344943631E+03  0.19810264968E+03  0.79091258717E+02 0.  0.
          5    1    5    5  501    0 -0.72464631551E+02  0.48305800533E+02 -0.14144008513E+03  0.16616847135E+03  0.47000000000E+01 0. -1.
        -11    1    6    6    0    0  0.50439589799E+02 -0.38295019754E+02 -0.14462817764E+03  0.15788594151E+03  0.00000000000E+00 0.  1.
         12    1    6    6    0    0 -0.14668169974E+02 -0.32372652472E+02 -0.18821258669E+02  0.40216708174E+02  0.00000000000E+00 0. -1.
         -5    1    3    3    0  503  0.51180677952E+00  0.95323192176E+01  0.31636642225E+02  0.33378049481E+02  0.47000000000E+01 0.  1.
         13    1    4    4    0    0  0.22106254671E+02  0.37851771174E+02 -0.15259901442E+03  0.15876996655E+03  0.00000000000E+00 0. -1.
        -14    1    4    4    0    0  0.14075150275E+02 -0.25022218699E+02 -0.17439873839E+02  0.33591226286E+02  0.00000000000E+00 0.  1.
<mgrwt>
<rscale>  2 0.19386612E+03</rscale>
<asrwt>0</asrwt>
<pdfrwt beam="1">  1       21 0.11286046E-01 0.19933848E+03</pdfrwt>
<pdfrwt beam="2">  1       21 0.79484778E-01 0.19933848E+03</pdfrwt>
<totfact> 0.91110435E+04</totfact>
</mgrwt>
</event>
<event>
12    1  0.1050690E-001  0.2161260E+03  0.7546771E-02  0.1136824E+00
         21   -1    0    0  503  502  0.00000000000E+00  0.00000000000E+00  0.13586119445E+03  0.13586119445E+03  0.00000000000E+00 0. -1.
         21   -1    0    0  501  503 -0.00000000000E+00 -0.00000000000E+00 -0.34645648977E+03  0.34645648977E+03  0.00000000000E+00 0. -1.
          6    2    1    2  501    0 -0.11732821604E+03  0.54309765746E+02 -0.83561919861E+02  0.23162275715E+03  0.17306370574E+03 0.  0.
         24    2    3    3    0    0 -0.11522511159E+03 -0.19416872284E+02 -0.72389843096E+02  0.15687688433E+03  0.75605728515E+02 0.  0.
         -6    2    1    2    0  502  0.11732821604E+03 -0.54309765746E+02 -0.12703337546E+03  0.25069492707E+03  0.17319066673E+03 0.  0.
        -24    2    5    5    0    0  0.42269991258E+02 -0.88288818326E+01  0.75506192121E+01  0.89955418762E+02  0.78551029266E+02 0.  0.
          5    1    3    3  501    0 -0.21031044483E+01  0.73726638029E+02 -0.11172076766E+02  0.74745872814E+02  0.47000000000E+01 0. -1.
        -13    1    4    4    0    0 -0.21838270414E+01 -0.24906172094E+02 -0.20691763508E+02  0.32453591265E+02  0.00000000000E+00 0.  1.
         14    1    4    4    0    0 -0.11304128455E+03  0.54892998108E+01 -0.51698079588E+02  0.12442329307E+03  0.00000000000E+00 0. -1.
         -5    1    5    5    0  502  0.75058224779E+02 -0.45480883913E+02 -0.13458399467E+03  0.16073950831E+03  0.47000000000E+01 0.  1.
         13    1    6    6    0    0  0.59610203399E+02 -0.26171872236E+02  0.61032655059E+01  0.65388019510E+02  0.00000000000E+00 0. -1.
        -14    1    6    6    0    0 -0.17340212141E+02  0.17342990403E+02  0.14473537061E+01  0.24567399251E+02  0.00000000000E+00 0.  1.
<mgrwt>
<rscale>  2 0.21610061E+03</rscale>
<asrwt>0</asrwt>
<pdfrwt beam="1">  1       21 0.20901723E-01 0.21612605E+03</pdfrwt>
<pdfrwt beam="2">  1       21 0.53300997E-01 0.21612605E+03</pdfrwt>
<totfact> 0.70107543E+04</totfact>
</mgrwt>
</event>
<event>
11    1  0.1050690E-001  0.2233034E+03  0.7546771E-02  0.1131700E+00
         21   -1    0    0  503  502  0.00000000000E+00  0.00000000000E+00  0.75031195390E+02  0.75031195390E+02  0.00000000000E+00 0. -1.
         21   -1    0    0  501  503 -0.00000000000E+00 -0.00000000000E+00 -0.70106901414E+03  0.70106901414E+03  0.00000000000E+00 0.  1.
          6    2    1    2  501    0 -0.13610215336E+03  0.93841586013E+01 -0.22052384219E+03  0.31383940920E+03  0.17678391106E+03 0.  0.
         -6    2    1    2    0  502  0.13610215336E+03 -0.93841586013E+01 -0.40551397656E+03  0.46226080033E+03  0.17501886686E+03 0.  0.
        -24    2    4    4    0    0  0.12250373134E+03  0.43460964481E+02 -0.21860405217E+03  0.26749187583E+03  0.82874316797E+02 0.  0.
          5    1    3    3  501    0 -0.36684743606E+02 -0.45826364828E+02 -0.18319684044E+03  0.19242920379E+03  0.47000000000E+01 0. -1.
        -11    1    3    3    0    0 -0.72498941703E+02  0.34038555581E+02 -0.33973120482E+02  0.86999383500E+02  0.00000000000E+00 0.  1.
         12    1    3    3    0    0 -0.26918468051E+02  0.21171967848E+02 -0.33538812751E+01  0.34410821908E+02  0.00000000000E+00 0. -1.
         -5    1    4    4    0  502  0.13598422016E+02 -0.52845123082E+02 -0.18690992439E+03  0.19476892450E+03  0.47000000000E+01 0.  1.
         13    1    5    5    0    0  0.13462199182E+03  0.34917646905E+02 -0.20178524882E+03  0.24507062123E+03  0.00000000000E+00 0. -1.
        -14    1    5    5    0    0 -0.12118260472E+02  0.85433175764E+01 -0.16818803341E+02  0.22421254602E+02  0.00000000000E+00 0.  1.
<mgrwt>
<rscale>  2 0.22295390E+03</rscale>
<asrwt>0</asrwt>
<pdfrwt beam="1">  1       21 0.11543261E-01 0.22330340E+03</pdfrwt>
<pdfrwt beam="2">  1       21 0.10785677E+00 0.22330340E+03</pdfrwt>
<totfact> 0.42395433E+04</totfact>
</mgrwt>
</event>
<event>
12    1  0.1050690E-001  0.2345230E+03  0.7546771E-02  0.1123825E+00
         21   -1    0    0  503  502  0.00000000000E+00  0.00000000000E+00  0.10922327888E+03  0.10922327888E+03  0.00000000000E+00 0. -1.
         21   -1    0    0  501  503 -0.00000000000E+00 -0.00000000000E+00 -0.54918356859E+03  0.54918356859E+03  0.00000000000E+00 0.  1.
          6    2    1    2  501    0  0.15830320396E+03  0.73586861719E+01 -0.31820129636E+03  0.39416020809E+03  0.17028255927E+03 0.  0.
         24    2    3    3    0    0  0.69512836498E+02 -0.57894406491E+02 -0.18661412038E+03  0.22246579835E+03  0.80513382532E+02 0.  0.
         -6    2    1    2    0  502 -0.15830320396E+03 -0.73586861719E+01 -0.12175899336E+03  0.26424663938E+03  0.17287851027E+03 0.  0.
        -24    2    5    5    0    0 -0.18472066886E+03 -0.23626120128E+02 -0.96751111464E+02  0.22412188373E+03  0.78676058233E+02 0.  0.
          5    1    3    3  501    0  0.88790367466E+02  0.65253092663E+02 -0.13158717597E+03  0.17169440974E+03  0.47000000000E+01 0. -1.
        -13    1    4    4    0    0 -0.11195900248E+02 -0.35141769461E+02 -0.49245756191E+02  0.61525902237E+02  0.00000000000E+00 0.  1.
         14    1    4    4    0    0  0.80708736746E+02 -0.22752637030E+02 -0.13736836419E+03  0.16093989611E+03  0.00000000000E+00 0. -1.
         -5    1    5    5    0  502  0.26417464901E+02  0.16267433957E+02 -0.25007881892E+02  0.40124755651E+02  0.47000000000E+01 0.  1.
         13    1    6    6    0    0 -0.13625607014E+03 -0.33583946411E+01 -0.30672062485E+02  0.13970601591E+03  0.00000000000E+00 0. -1.
        -14    1    6    6    0    0 -0.48464598729E+02 -0.20267725487E+02 -0.66079048979E+02  0.84415867823E+02  0.00000000000E+00 0.  1.
<mgrwt>
<rscale>  2 0.23404478E+03</rscale>
<asrwt>0</asrwt>
<pdfrwt beam="1">  1       21 0.16803581E-01 0.23452299E+03</pdfrwt>
<pdfrwt beam="2">  1       21 0.84489780E-01 0.23452299E+03</pdfrwt>
<totfact> 0.37910559E+04</totfact>
</mgrwt>
</event>
<event>
12    1  0.1050690E-001  0.2297535E+03  0.7546771E-02  0.1129177E+00
         21   -1    0    0  501  502  0.00000000000E+00  0.00000000000E+00  0.36295735259E+03  0.36295735259E+03  0.00000000000E+00 0. -1.
         21   -1    0    0  502  503 -0.00000000000E+00 -0.00000000000E+00 -0.15406951973E+03  0.15406951973E+03  0.00000000000E+00 0. -1.
         -6    2    1    2    0  503  0.75978543925E+02  0.10774565315E+03  0.21949762747E+02  0.23079966414E+03  0.18816170698E+03 0.  0.
        -24    2    3    3    0    0  0.45300064161E+02  0.14954231447E+03  0.36180072766E+01  0.17560660954E+03  0.80059925720E+02 0.  0.
          6    2    1    2  501    0 -0.75978543925E+02 -0.10774565315E+03  0.18693807011E+03  0.28622720817E+03  0.17204158721E+03 0.  0.
         24    2    5    5    0    0 -0.63127640536E+01  0.90014789807E+01  0.78682885910E+02  0.11237529229E+03  0.79475355734E+02 0.  0.
          5    1    5    5  501    0 -0.69665779871E+02 -0.11674713214E+03  0.10825518420E+03  0.17385191588E+03  0.47000000000E+01 0. -1.
        -11    1    6    6    0    0  0.22856885550E+02 -0.25092483708E+02  0.23649612503E+02  0.41368757864E+02  0.00000000000E+00 0.  1.
         12    1    6    6    0    0 -0.29169649603E+02  0.34093962689E+02  0.55033273407E+02  0.71006534429E+02  0.00000000000E+00 0. -1.
         -5    1    3    3    0  503  0.30678479763E+02 -0.41796661317E+02  0.18331755471E+02  0.55193054604E+02  0.47000000000E+01 0.  1.
         11    1    4    4    0    0  0.50373060637E+02  0.52206435970E+02 -0.20129921619E+02  0.75287256152E+02  0.00000000000E+00 0. -1.
        -12    1    4    4    0    0 -0.50729964751E+01  0.97335878502E+02  0.23747928896E+02  0.10031935339E+03  0.00000000000E+00 0.  1.
<mgrwt>
<rscale>  2 0.22643106E+03</rscale>
<asrwt>0</asrwt>
<pdfrwt beam="1">  1       21 0.55839593E-01 0.22975355E+03</pdfrwt>
<pdfrwt beam="2">  1       21 0.23703003E-01 0.22975355E+03</pdfrwt>
<totfact> 0.49768425E+04</totfact>
</mgrwt>
</event>
<event>
12    1  0.1050690E-001  0.1955461E+03  0.7546771E-02  0.1153600E+00
         21   -1    0    0  501  502  0.00000000000E+00  0.00000000000E+00  0.99060718760E+02  0.99060718760E+02  0.00000000000E+00 0. -1.
         21   -1    0    0  502  503 -0.00000000000E+00 -0.00000000000E+00 -0.49784848294E+03  0.49784848294E+03  0.00000000000E+00 0. -1.
         -6    2    1    2    0  503 -0.76747714686E+02  0.47212374820E+02 -0.34121380456E+03  0.39327490957E+03  0.17354847746E+03 0.  0.
        -24    2    3    3    0    0  0.26491144884E+02  0.18846474285E+02 -0.17717070056E+03  0.19732819128E+03  0.80572871279E+02 0.  0.
          6    2    1    2  501    0  0.76747714686E+02 -0.47212374820E+02 -0.57573959616E+02  0.20363429213E+03  0.17330015597E+03 0.  0.
         24    2    5    5    0    0  0.41893356883E+02  0.41160916077E+02 -0.22559990002E+02  0.10227980101E+03  0.80640747655E+02 0.  0.
          5    1    5    5  501    0  0.34854357803E+02 -0.88373290898E+02 -0.35013969614E+02  0.10135449112E+03  0.47000000000E+01 0. -1.
        -11    1    6    6    0    0  0.42508414698E+02  0.39838616067E+02  0.18552509237E+02  0.61141444612E+02  0.00000000000E+00 0.  1.
         12    1    6    6    0    0 -0.61505781530E+00  0.13223000107E+01 -0.41112499239E+02  0.41138356398E+02  0.00000000000E+00 0. -1.
         -5    1    3    3    0  503 -0.10323885957E+03  0.28365900536E+02 -0.16404310400E+03  0.19594671829E+03  0.47000000000E+01 0.  1.
         13    1    4    4    0    0 -0.26726314659E+02  0.82767977595E+01 -0.32875455561E+02  0.43169397201E+02  0.00000000000E+00 0. -1.
        -14    1    4    4    0    0  0.53217459542E+02  0.10569676525E+02 -0.14429524500E+03  0.15415879408E+03  0.00000000000E+00 0.  1.
<mgrwt>
<rscale>  2 0.19549103E+03</rscale>
<asrwt>0</asrwt>
<pdfrwt beam="1">  1       21 0.15240111E-01 0.19554614E+03</pdfrwt>
<pdfrwt beam="2">  1       21 0.76592074E-01 0.19554614E+03</pdfrwt>
<totfact> 0.57731380E+04</totfact>
</mgrwt>
</event>
<event>
12    1  0.1050690E-001  0.2510141E+03  0.7546771E-02  0.1114538E+00
         21   -1    0    0  501  502  0.00000000000E+00  0.00000000000E+00  0.72207032820E+03  0.72207032820E+03  0.00000000000E+00 0. -1.
         21   -1    0    0  502  503 -0.00000000000E+00 -0.00000000000E+00 -0.88147932132E+02  0.88147932132E+02  0.00000000000E+00 0.  1.
         -6    2    1    2    0  503  0.99277074204E+02 -0.13434233766E+03  0.21457844242E+03  0.32148785766E+03  0.17148391622E+03 0.  0.
        -24    2    3    3    0    0  0.31274107427E+02 -0.10986288457E+03  0.60924914657E+02  0.15161983916E+03  0.78922792658E+02 0.  0.
          6    2    1    2  501    0 -0.99277074204E+02  0.13434233766E+03  0.41934395364E+03  0.48873040267E+03  0.18736129239E+03 0.  0.
         24    2    5    5    0    0 -0.40652070607E+02 -0.16742183336E+02  0.14294861339E+03  0.16829336104E+03  0.77171612361E+02 0.  0.
          5    1    5    5  501    0 -0.58625003597E+02  0.15108452099E+03  0.27639534026E+03  0.32043704163E+03  0.47000000000E+01 0. -1.
        -11    1    6    6    0    0 -0.45789960420E+01 -0.92078914360E+01 -0.79258773482E+01  0.12983528072E+02  0.00000000000E+00 0.  1.
         12    1    6    6    0    0 -0.36073074565E+02 -0.75342918999E+01  0.15087449073E+03  0.15530983297E+03  0.00000000000E+00 0. -1.
         -5    1    3    3    0  503  0.68002966777E+02 -0.24479453092E+02  0.15365352776E+03  0.16986801850E+03  0.47000000000E+01 0.  1.
         13    1    4    4    0    0 -0.41381519767E+01 -0.59955897657E+02  0.67142239225E+02  0.90110566826E+02  0.00000000000E+00 0. -1.
        -14    1    4    4    0    0  0.35412259404E+02 -0.49906986909E+02 -0.62173245679E+01  0.61509272335E+02  0.00000000000E+00 0.  1.
<mgrwt>
<rscale>  2 0.24805777E+03</rscale>
<asrwt>0</asrwt>
<pdfrwt beam="1">  1       21 0.11108774E+00 0.25101405E+03</pdfrwt>
<pdfrwt beam="2">  1       21 0.13561221E-01 0.25101405E+03</pdfrwt>
<totfact> 0.29119715E+04</totfact>
</mgrwt>
</event>
<event>
12    1  0.1050690E-001  0.2007848E+03  0.7546771E-02  0.1149456E+00
         21   -1    0    0  503  502  0.00000000000E+00  0.00000000000E+00  0.17327473563E+04  0.17327473563E+04  0.00000000000E+00 0.  1.
         21   -1    0    0  501  503 -0.00000000000E+00 -0.00000000000E+00 -0.34544689182E+02  0.34544689182E+02  0.00000000000E+00 0.  1.
          6    2    1    2  501    0  0.94326937895E+02  0.25080641295E+02  0.34212279981E+03  0.39668949822E+03  0.17546491976E+03 0.  0.
         24    2    3    3    0    0  0.10407598814E+03  0.69247520391E+02  0.22038432920E+03  0.26673526621E+03  0.83375171950E+02 0.  0.
         -6    2    1    2    0  502 -0.94326937895E+02 -0.25080641295E+02  0.13560798673E+04  0.13706025472E+04  0.17341316634E+03 0.  0.
        -24    2    5    5    0    0 -0.71692459005E+02 -0.53428607433E+01  0.36610435020E+03  0.38016046713E+03  0.72946766185E+02 0.  0.
          5    1    3    3  501    0 -0.97490502454E+01 -0.44166879096E+02  0.12173847061E+03  0.12995423201E+03  0.47000000000E+01 0. -1.
        -13    1    4    4    0    0  0.12771602484E+01  0.29452954621E+02  0.13734327910E+02  0.32522906348E+02  0.00000000000E+00 0.  1.
         14    1    4    4    0    0  0.10279882789E+03  0.39794565770E+02  0.20665000129E+03  0.23421235986E+03  0.00000000000E+00 0. -1.
         -5    1    5    5    0  502 -0.22634478890E+02 -0.19737780552E+02  0.98997551706E+03  0.99044208008E+03  0.47000000000E+01 0.  1.
         13    1    6    6    0    0 -0.79440068323E+02  0.50651102416E+01  0.22893989361E+03  0.24238369311E+03  0.00000000000E+00 0. -1.
        -14    1    6    6    0    0  0.77476093185E+01 -0.10407970985E+02  0.13716445659E+03  0.13777677403E+03  0.00000000000E+00 0.  1.
<mgrwt>
<rscale>  2 0.20033570E+03</rscale>
<asrwt>0</asrwt>
<pdfrwt beam="1">  1       21 0.26657645E+00 0.20078483E+03</pdfrwt>
<pdfrwt beam="2">  1       21 0.53145689E-02 0.20078483E+03</pdfrwt>
<totfact> 0.12804934E+04</totfact>
</mgrwt>
</event>
<event>
12    1  0.1050690E-001  0.2215638E+03  0.7546771E-02  0.1132802E+00
         21   -1    0    0  501  502  0.00000000000E+00  0.00000000000E+00  0.16492159921E+03  0.16492159921E+03  0.00000000000E+00 0.  1.
         21   -1    0    0  502  503 -0.00000000000E+00 -0.00000000000E+00 -0.30787718696E+03  0.30787718696E+03  0.00000000000E+00 0. -1.
         -6    2    1    2    0  503  0.12998182597E+03 -0.48707185366E+02 -0.27276975412E+02  0.22323657191E+03  0.17269298962E+03 0.  0.
        -24    2    3    3    0    0  0.15168185931E+03 -0.52296094658E+02 -0.54538185653E+02  0.18789487839E+03  0.81165286124E+02 0.  0.
          6    2    1    2  501    0 -0.12998182597E+03  0.48707185366E+02 -0.11567861233E+03  0.24956221426E+03  0.17213974685E+03 0.  0.
         24    2    5    5    0    0 -0.15582922011E+03  0.66070255574E+02 -0.85531053793E+02  0.20596715402E+03  0.80367175275E+02 0.  0.
          5    1    5    5  501    0  0.25847394143E+02 -0.17363070208E+02 -0.30147558539E+02  0.43595060235E+02  0.47000000000E+01 0. -1.
        -13    1    6    6    0    0 -0.38269438074E+02 -0.13861551555E+02 -0.12918732910E+01  0.40722984157E+02  0.00000000000E+00 0.  1.
         14    1    6    6    0    0 -0.11755978204E+03  0.79931807129E+02 -0.84239180502E+02  0.16524416987E+03  0.00000000000E+00 0. -1.
         -5    1    3    3    0  503 -0.21700033343E+02  0.35889092916E+01  0.27261210241E+02  0.35341693520E+02  0.47000000000E+01 0.  1.
         11    1    4    4    0    0 -0.14858104868E+00 -0.19549705024E+02 -0.21572712733E+02  0.29113484462E+02  0.00000000000E+00 0. -1.
        -12    1    4    4    0    0  0.15183044036E+03 -0.32746389633E+02 -0.32965472920E+02  0.15878139393E+03  0.00000000000E+00 0.  1.
<mgrwt>
<rscale>  2 0.22145602E+03</rscale>
<asrwt>0</asrwt>
<pdfrwt beam="1">  1       21 0.25372554E-01 0.22156384E+03</pdfrwt>
<pdfrwt beam="2">  1       21 0.47365720E-01 0.22156384E+03</pdfrwt>
<totfact> 0.61975165E+04</totfact>
</mgrwt>
</event>
<event>
12    1  0.1050690E-001  0.2105151E+03  0.7546771E-02  0.1141324E+00
         21   -1    0    0  503  502  0.00000000000E+00  0.00000000000E+00  0.41947580494E+03  0.41947580494E+03  0.00000000000E+00 0. -1.
         21   -1    0    0  501  503 -0.00000000000E+00 -0.00000000000E+00 -0.10963839277E+03  0.10963839277E+03  0.00000000000E+00 0. -1.
          6    2    1    2  501    0 -0.76791364636E+02  0.90715046829E+02  0.10157403676E+03  0.23298883034E+03  0.17274367344E+03 0.  0.
         24    2    3    3    0    0 -0.64716937074E+02  0.43430699677E+02  0.13404609105E+03  0.17418300073E+03  0.79352729001E+02 0.  0.
         -6    2    1    2    0  502  0.76791364636E+02 -0.90715046829E+02  0.20826337541E+03  0.29612536738E+03  0.17375403956E+03 0.  0.
        -24    2    5    5    0    0  0.36559019164E+02  0.19106789918E+02  0.66924392951E+02  0.11260895010E+03  0.80624251734E+02 0.  0.
          5    1    3    3  501    0 -0.12074427562E+02  0.47284347152E+02 -0.32472054283E+02  0.58805829608E+02  0.47000000000E+01 0. -1.
        -13    1    4    4    0    0 -0.83178122375E+02  0.37213906582E+02  0.11699541848E+03  0.14829498586E+03  0.00000000000E+00 0.  1.
         14    1    4    4    0    0  0.18461185301E+02  0.62167930953E+01  0.17050672562E+02  0.25888014870E+02  0.00000000000E+00 0. -1.
         -5    1    5    5    0  502  0.40232345472E+02 -0.10982183675E+03  0.14133898246E+03  0.18351641728E+03  0.47000000000E+01 0.  1.
         11    1    6    6    0    0  0.17915273598E+02 -0.28192855591E+02  0.47745778922E+02  0.58270520329E+02  0.00000000000E+00 0. -1.
        -12    1    6    6    0    0  0.18643745566E+02  0.47299645509E+02  0.19178614029E+02  0.54338429772E+02  0.00000000000E+00 0.  1.
<mgrwt>
<rscale>  2 0.21030648E+03</rscale>
<asrwt>0</asrwt>
<pdfrwt beam="1">  1       21 0.64534738E-01 0.21051508E+03</pdfrwt>
<pdfrwt beam="2">  1       21 0.16867445E-01 0.21051508E+03</pdfrwt>
<totfact> 0.69506169E+04</totfact>
</mgrwt>
</event>
<event>
12    1  0.1050690E-001  0.2372237E+03  0.7546771E-02  0.1121814E+00
         21   -1    0    0  501  502  0.00000000000E+00  0.00000000000E+00  0.72439305579E+03  0.72439305579E+03  0.00000000000E+00 0. -1.
         21   -1    0    0  502  503 -0.00000000000E+00 -0.00000000000E+00 -0.82309210988E+02  0.82309210988E+02  0.00000000000E+00 0. -1.
         -6    2    1    2    0  503 -0.10051495478E+03 -0.12594397362E+03  0.22294186025E+03  0.32554287006E+03  0.17409752028E+03 0.  0.
        -24    2    3    3    0    0 -0.22634570826E+02 -0.60308233830E+02  0.28613517687E+02  0.10609128253E+03  0.79291991848E+02 0.  0.
          6    2    1    2  501    0  0.10051495478E+03  0.12594397362E+03  0.41914198455E+03  0.48115939672E+03  0.17282714258E+03 0.  0.
         24    2    5    5    0    0  0.12029577503E+03  0.10951990697E+03  0.41640595496E+03  0.45488000037E+03  0.84001261249E+02 0.  0.
          5    1    5    5  501    0 -0.19780820249E+02  0.16424066648E+02  0.27360295899E+01  0.26279396357E+02  0.47000000000E+01 0. -1.
        -11    1    6    6    0    0 -0.50690904683E+01  0.50433539682E+01 -0.50413348884E+00  0.71683504378E+01  0.00000000000E+00 0.  1.
         12    1    6    6    0    0  0.12536486550E+03  0.10447655301E+03  0.41691008845E+03  0.44771164993E+03  0.00000000000E+00 0. -1.
         -5    1    3    3    0  503 -0.77880383953E+02 -0.65635739791E+02  0.19432834257E+03  0.21945158752E+03  0.47000000000E+01 0.  1.
         11    1    4    4    0    0 -0.50979416910E+02 -0.24858518799E+02  0.14177093375E+02  0.58462268875E+02  0.00000000000E+00 0. -1.
        -12    1    4    4    0    0  0.28344846084E+02 -0.35449715030E+02  0.14436424312E+02  0.47629013660E+02  0.00000000000E+00 0.  1.
<mgrwt>
<rscale>  2 0.23699068E+03</rscale>
<asrwt>0</asrwt>
<pdfrwt beam="1">  1       21 0.11144508E+00 0.23722371E+03</pdfrwt>
<pdfrwt beam="2">  1       21 0.12662956E-01 0.23722371E+03</pdfrwt>
<totfact> 0.32925556E+04</totfact>
</mgrwt>
</event>
<event>
12    1  0.1050690E-001  0.2599939E+03  0.7546771E-02  0.1107273E+00
         21   -1    0    0  503  502  0.00000000000E+00  0.00000000000E+00  0.17751937635E+03  0.17751937635E+03  0.00000000000E+00 0.  1.
         21   -1    0    0  501  503 -0.00000000000E+00 -0.00000000000E+00 -0.42684869686E+03  0.42684869686E+03  0.00000000000E+00 0.  1.
          6    2    1    2  501    0 -0.17877331428E+03 -0.77334783506E+02 -0.23901056672E+02  0.26025366532E+03  0.17093900421E+03 0.  0.
         24    2    3    3    0    0 -0.16117220612E+03 -0.36366812312E+01 -0.14585679735E+01  0.18108950306E+03  0.82471663129E+02 0.  0.
         -6    2    1    2    0  502  0.17877331428E+03  0.77334783506E+02 -0.22542826384E+03  0.34411440789E+03  0.17220992115E+03 0.  0.
        -24    2    5    5    0    0  0.12880648719E+03 -0.16619710478E+02 -0.12339938876E+03  0.19661487535E+03  0.81010333572E+02 0.  0.
          5    1    3    3  501    0 -0.17601108155E+02 -0.73698102275E+02 -0.22442488698E+02  0.79164162259E+02  0.47000000000E+01 0. -1.
        -13    1    4    4    0    0 -0.75447426695E+02 -0.38558115341E+02 -0.19107954066E+02  0.86857103119E+02  0.00000000000E+00 0.  1.
         14    1    4    4    0    0 -0.85724779430E+02  0.34921434110E+02  0.17649386092E+02  0.94232399938E+02  0.00000000000E+00 0. -1.
         -5    1    5    5    0  502  0.49966827086E+02  0.93954493984E+02 -0.10202887508E+03  0.14749953254E+03  0.47000000000E+01 0.  1.
         13    1    6    6    0    0  0.28352612855E+02 -0.15282604235E+02 -0.81739977780E+02  0.87857000947E+02  0.00000000000E+00 0. -1.
        -14    1    6    6    0    0  0.10045387434E+03 -0.13371062430E+01 -0.41659410976E+02  0.10875787441E+03  0.00000000000E+00 0.  1.
<mgrwt>
<rscale>  2 0.25978362E+03</rscale>
<asrwt>0</asrwt>
<pdfrwt beam="1">  1       21 0.27310673E-01 0.25999389E+03</pdfrwt>
<pdfrwt beam="2">  1       21 0.65669030E-01 0.25999389E+03</pdfrwt>
<totfact> 0.26334207E+04</totfact>
</mgrwt>
</event>
<event>
12    1  0.1050690E-001  0.1917615E+03  0.7546771E-02  0.1156899E+00
         21   -1    0    0  503  502  0.00000000000E+00  0.00000000000E+00  0.21721445148E+04  0.21721445148E+04  0.00000000000E+00 0. -1.
         21   -1    0    0  501  503 -0.00000000000E+00 -0.00000000000E+00 -0.24620410074E+02  0.24620410074E+02  0.00000000000E+00 0. -1.
          6    2    1    2  501    0  0.63654421246E+02  0.46056825420E+02  0.45943754244E+03  0.49782151844E+03  0.17484362242E+03 0.  0.
         24    2    3    3    0    0  0.19755473125E+02 -0.42049922923E+02  0.25605210989E+03  0.27181788811E+03  0.78509913880E+02 0.  0.
         -6    2    1    2    0  502 -0.63654421246E+02 -0.46056825420E+02  0.16880865623E+04  0.16989434064E+04  0.17492667035E+03 0.  0.
        -24    2    5    5    0    0  0.20615178891E+02 -0.24376132201E+02  0.12229596527E+04  0.12257240599E+04  0.75828605006E+02 0.  0.
          5    1    3    3  501    0  0.43898948121E+02  0.88106748343E+02  0.20338543255E+03  0.22600363033E+03  0.47000000000E+01 0. -1.
        -13    1    4    4    0    0 -0.15077232191E+02 -0.42804328060E+02  0.76759929924E+02  0.89171858078E+02  0.00000000000E+00 0.  1.
         14    1    4    4    0    0  0.34832705316E+02  0.75440513652E+00  0.17929217997E+03  0.18264603003E+03  0.00000000000E+00 0. -1.
         -5    1    5    5    0  502 -0.84269600138E+02 -0.21680693219E+02  0.46512690954E+03  0.47321934655E+03  0.47000000000E+01 0.  1.
         11    1    6    6    0    0 -0.10483397890E+02  0.19982921896E+02  0.59639232043E+03  0.59681908370E+03  0.00000000000E+00 0. -1.
        -12    1    6    6    0    0  0.31098576782E+02 -0.44359054096E+02  0.62656733231E+03  0.62890497619E+03  0.00000000000E+00 0.  1.
<mgrwt>
<rscale>  2 0.19174252E+03</rscale>
<asrwt>0</asrwt>
<pdfrwt beam="1">  1       21 0.33417593E+00 0.19176146E+03</pdfrwt>
<pdfrwt beam="2">  1       21 0.37877571E-02 0.19176146E+03</pdfrwt>
<totfact> 0.93051771E+03</totfact>
</mgrwt>
</event>
<event>
12    1  0.1050690E-001  0.2159133E+03  0.7546771E-02  0.1137072E+00
         21   -1    0    0  503  502  0.00000000000E+00  0.00000000000E+00  0.15889167723E+03  0.15889167723E+03  0.00000000000E+00 0.  1.
         21   -1    0    0  501  503 -0.00000000000E+00 -0.00000000000E+00 -0.13522024381E+04  0.13522024381E+04  0.00000000000E+00 0.  1.
          6    2    1    2  501    0 -0.21043098573E+02  0.12719877675E+03 -0.12652983365E+04  0.12834962738E+04  0.17251221366E+03 0.  0.
         24    2    3    3    0    0  0.47394752203E+02  0.10405819382E+03 -0.85152181112E+03  0.86343398211E+03  0.85758243977E+02 0.  0.
         -6    2    1    2    0  502  0.21043098573E+02 -0.12719877675E+03  0.71987575643E+02  0.22759784146E+03  0.17319418463E+03 0.  0.
        -24    2    5    5    0    0 -0.25784263749E+02 -0.11690287681E+03  0.42110673794E+01  0.14444405328E+03  0.80717040178E+02 0.  0.
          5    1    3    3  501    0 -0.68437850775E+02  0.23140582927E+02 -0.41377652535E+03  0.42006229173E+03  0.47000000000E+01 0. -1.
        -13    1    4    4    0    0  0.50953170707E+02  0.88220656101E+02 -0.44194142540E+03  0.45353206419E+03  0.00000000000E+00 0.  1.
         14    1    4    4    0    0 -0.35584185044E+01  0.15837537719E+02 -0.40958038572E+03  0.40990191792E+03  0.00000000000E+00 0. -1.
         -5    1    5    5    0  502  0.46827362322E+02 -0.10295899938E+02  0.67776508263E+02  0.83153788188E+02  0.47000000000E+01 0.  1.
         11    1    6    6    0    0 -0.91476138972E+00 -0.83966365821E+02 -0.31681076621E+02  0.89748972103E+02  0.00000000000E+00 0. -1.
        -12    1    6    6    0    0 -0.24869502360E+02 -0.32936510987E+02  0.35892144000E+02  0.54695081173E+02  0.00000000000E+00 0.  1.
<mgrwt>
<rscale>  2 0.21577654E+03</rscale>
<asrwt>0</asrwt>
<pdfrwt beam="1">  1       21 0.24444874E-01 0.21591333E+03</pdfrwt>
<pdfrwt beam="2">  1       21 0.20803114E+00 0.21591333E+03</pdfrwt>
<totfact> 0.18430105E+03</totfact>
</mgrwt>
</event>
<event>
12    1  0.1050690E-001  0.2321998E+03  0.7546771E-02  0.1125252E+00
         21   -1    0    0  503  502  0.00000000000E+00  0.00000000000E+00  0.44620078347E+02  0.44620078347E+02  0.00000000000E+00 0.  1.
         21   -1    0    0  501  503 -0.00000000000E+00 -0.00000000000E+00 -0.13949299442E+04  0.13949299442E+04  0.00000000000E+00 0.  1.
          6    2    1    2  501    0 -0.14750402154E+03 -0.43374460595E+02 -0.94264740208E+03  0.97082484266E+03  0.17400566160E+03 0.  0.
         24    2    3    3    0    0 -0.58205409854E+02  0.22306775546E+02 -0.25425198670E+03  0.27354541176E+03  0.79357152069E+02 0.  0.
         -6    2    1    2    0  502  0.14750402154E+03  0.43374460595E+02 -0.40766246381E+03  0.46872517993E+03  0.17284626030E+03 0.  0.
        -24    2    5    5    0    0  0.15624319665E+02 -0.15991575640E+02 -0.17669838017E+03  0.19617595509E+03  0.82236475773E+02 0.  0.
          5    1    3    3  501    0 -0.89298611684E+02 -0.65681236141E+02 -0.68839541538E+03  0.69727943089E+03  0.47000000000E+01 0. -1.
        -11    1    4    4    0    0 -0.37410397113E+02 -0.27833806749E+02 -0.11777795870E+03  0.12667243648E+03  0.00000000000E+00 0.  1.
         12    1    4    4    0    0 -0.20795012742E+02  0.50140582295E+02 -0.13647402800E+03  0.14687297528E+03  0.00000000000E+00 0. -1.
         -5    1    5    5    0  502  0.13187970187E+03  0.59366036235E+02 -0.23096408365E+03  0.27254922484E+03  0.47000000000E+01 0.  1.
         11    1    6    6    0    0  0.37741999721E+02 -0.35386988453E+02 -0.81487582355E+02  0.96524212366E+02  0.00000000000E+00 0. -1.
        -12    1    6    6    0    0 -0.22117680055E+02  0.19395412813E+02 -0.95210797810E+02  0.99651742728E+02  0.00000000000E+00 0.  1.
<mgrwt>
<rscale>  2 0.23198261E+03</rscale>
<asrwt>0</asrwt>
<pdfrwt beam="1">  1       21 0.68646275E-02 0.23219981E+03</pdfrwt>
<pdfrwt beam="2">  1       21 0.21460460E+00 0.23219981E+03</pdfrwt>
<totfact> 0.16486613E+04</totfact>
</mgrwt>
</event>
<event>
12    1  0.1050690E-001  0.2073640E+03  0.7546771E-02  0.1144122E+00
         21   -1    0    0  501  502  0.00000000000E+00  0.00000000000E+00  0.56668267390E+03  0.56668267390E+03  0.00000000000E+00 0.  1.
         21   -1    0    0  502  503 -0.00000000000E+00 -0.00000000000E+00 -0.98067823494E+02  0.98067823494E+02  0.00000000000E+00 0. -1.
         -6    2    1    2    0  503 -0.20102560535E+02  0.11041094592E+03  0.74307548099E+02  0.22027579661E+03  0.17437065392E+03 0.  0.
        -24    2    3    3    0    0  0.45776940226E+02  0.31906650171E+02  0.13688036082E+02  0.10111268021E+03  0.83203660896E+02 0.  0.
          6    2    1    2  501    0  0.20102560535E+02 -0.11041094592E+03  0.39430730230E+03  0.44447470078E+03  0.17171144710E+03 0.  0.
         24    2    5    5    0    0  0.23701128470E+02 -0.60436728166E+02  0.37773502111E+03  0.39149260347E+03  0.79802072640E+02 0.  0.
          5    1    5    5  501    0 -0.35985679352E+01 -0.49974217757E+02  0.16572281196E+02  0.52982097312E+02  0.47000000000E+01 0. -1.
        -11    1    6    6    0    0  0.80777976265E+01  0.30896259890E+01  0.22710873838E+03  0.22727335006E+03  0.00000000000E+00 0.  1.
         12    1    6    6    0    0  0.15623330844E+02 -0.63526354155E+02  0.15062628273E+03  0.16421925341E+03  0.00000000000E+00 0. -1.
         -5    1    3    3    0  503 -0.65879500761E+02  0.78504295751E+02  0.60619512017E+02  0.11916311640E+03  0.47000000000E+01 0.  1.
         13    1    4    4    0    0  0.32537681049E+02  0.32674346697E+02 -0.30295328803E+02  0.55173549527E+02  0.00000000000E+00 0. -1.
        -14    1    4    4    0    0  0.13239259177E+02 -0.76769652565E+00  0.43983364886E+02  0.45939130686E+02  0.00000000000E+00 0.  1.
<mgrwt>
<rscale>  2 0.20680394E+03</rscale>
<asrwt>0</asrwt>
<pdfrwt beam="1">  1       21 0.87181948E-01 0.20736397E+03</pdfrwt>
<pdfrwt beam="2">  1       21 0.15087358E-01 0.20736397E+03</pdfrwt>
<totfact> 0.43551552E+04</totfact>
</mgrwt>
</event>
<event>
12    1  0.1050690E-001  0.1953875E+03  0.7546771E-02  0.1154209E+00
         21   -1    0    0  503  502  0.00000000000E+00  0.00000000000E+00  0.10118376102E+03  0.10118376102E+03  0.00000000000E+00 0. -1.
         21   -1    0    0  501  503 -0.00000000000E+00 -0.00000000000E+00 -0.50540710385E+03  0.50540710385E+03  0.00000000000E+00 0. -1.
          6    2    1    2  501    0  0.91359724056E+02  0.15835321140E+02 -0.35841819005E+03  0.40821548011E+03  0.17198523967E+03 0.  0.
         24    2    3    3    0    0  0.75925978629E+02  0.82562947544E-01 -0.10072852283E+03  0.14954115884E+03  0.80321614952E+02 0.  0.
         -6    2    1    2    0  502 -0.91359724056E+02 -0.15835321140E+02 -0.45805152776E+02  0.19837538476E+03  0.16928474439E+03 0.  0.
        -24    2    5    5    0    0 -0.12077589849E+03  0.18253959242E+02 -0.45745794963E+02  0.15310415904E+03  0.80175938245E+02 0.  0.
          5    1    3    3  501    0  0.15433745427E+02  0.15752758193E+02 -0.25768966723E+03  0.25867432127E+03  0.47000000000E+01 0. -1.
        -13    1    4    4    0    0  0.73710632835E+02 -0.23379142281E+02 -0.46055048709E+02  0.90005050960E+02  0.00000000000E+00 0.  1.
         14    1    4    4    0    0  0.22153457944E+01  0.23461705228E+02 -0.54673474118E+02  0.59536107879E+02  0.00000000000E+00 0. -1.
         -5    1    5    5    0  502  0.29416174433E+02 -0.34089280383E+02 -0.59357812880E-01  0.45271225725E+02  0.47000000000E+01 0.  1.
         11    1    6    6    0    0 -0.77810051277E+02 -0.21605986551E+02 -0.48910173308E+02  0.94410951629E+02  0.00000000000E+00 0. -1.
        -12    1    6    6    0    0 -0.42965847212E+02  0.39859945794E+02  0.31643783451E+01  0.58693207406E+02  0.00000000000E+00 0.  1.
<mgrwt>
<rscale>  2 0.19479159E+03</rscale>
<asrwt>0</asrwt>
<pdfrwt beam="1">  1       21 0.15566733E-01 0.19538751E+03</pdfrwt>
<pdfrwt beam="2">  1       21 0.77754938E-01 0.19538751E+03</pdfrwt>
<totfact> 0.53695810E+04</totfact>
</mgrwt>
</event>
<event>
12    1  0.1050690E-001  0.2005412E+03  0.7546771E-02  0.1149651E+00
         21   -1    0    0  501  502  0.00000000000E+00  0.00000000000E+00  0.98535246402E+03  0.98535246402E+03  0.00000000000E+00 0.  1.
         21   -1    0    0  502  503 -0.00000000000E+00 -0.00000000000E+00 -0.41895833049E+02  0.41895833049E+02  0.00000000000E+00 0.  1.
         -6    2    1    2    0  503  0.70856484402E+01  0.98135057560E+02  0.56480294659E+03  0.59876798104E+03  0.17274267192E+03 0.  0.
        -24    2    3    3    0    0  0.27567839343E+02  0.58541002588E+02  0.15572533998E+03  0.18724181229E+03  0.81376163635E+02 0.  0.
          6    2    1    2  501    0 -0.70856484402E+01 -0.98135057560E+02  0.37865368438E+03  0.42848031603E+03  0.17474573699E+03 0.  0.
         24    2    5    5    0    0  0.19113668745E+02 -0.84184950118E+02  0.12069872800E+03  0.16878076032E+03  0.80413456287E+02 0.  0.
          5    1    5    5  501    0 -0.26199317186E+02 -0.13950107442E+02  0.25795495638E+03  0.25969955571E+03  0.47000000000E+01 0. -1.
        -13    1    6    6    0    0  0.44226359980E+02 -0.26997426405E+02  0.34181533573E+02  0.62074223209E+02  0.00000000000E+00 0.  1.
         14    1    6    6    0    0 -0.25112691235E+02 -0.57187523713E+02  0.86517194428E+02  0.10670653711E+03  0.00000000000E+00 0. -1.
         -5    1    3    3    0  503 -0.20482190903E+02  0.39594054973E+02  0.40907760661E+03  0.41152616874E+03  0.47000000000E+01 0.  1.
         11    1    4    4    0    0 -0.16249867184E+02  0.43157702820E+02  0.12029051642E+03  0.12882722475E+03  0.00000000000E+00 0. -1.
        -12    1    4    4    0    0  0.43817706527E+02  0.15383299768E+02  0.35434823567E+02  0.58414587546E+02  0.00000000000E+00 0.  1.
<mgrwt>
<rscale>  2 0.20010402E+03</rscale>
<asrwt>0</asrwt>
<pdfrwt beam="1">  1       21 0.15159267E+00 0.20054119E+03</pdfrwt>
<pdfrwt beam="2">  1       21 0.64455135E-02 0.20054119E+03</pdfrwt>
<totfact> 0.50463792E+04</totfact>
</mgrwt>
</event>
<event>
12    1  0.1050690E-001  0.2141692E+03  0.7546771E-02  0.1139523E+00
         21   -1    0    0  501  502  0.00000000000E+00  0.00000000000E+00  0.10863565839E+04  0.10863565839E+04  0.00000000000E+00 0.  1.
         21   -1    0    0  502  503 -0.00000000000E+00 -0.00000000000E+00 -0.27902253894E+03  0.27902253894E+03  0.00000000000E+00 0. -1.
         -6    2    1    2    0  503 -0.10703667677E+01 -0.11564648633E+03 -0.22598085363E+03  0.31134510042E+03  0.18025861939E+03 0.  0.
        -24    2    3    3    0    0 -0.51974078015E+02 -0.10552003236E+03 -0.92830475583E+02  0.16835962542E+03  0.76757307526E+02 0.  0.
          6    2    1    2  501    0  0.10703667677E+01  0.11564648633E+03  0.10333148986E+04  0.10540340224E+04  0.17283745336E+03 0.  0.
         24    2    5    5    0    0  0.25184505721E+02  0.79987214569E+01  0.64057281526E+03  0.64606592686E+03  0.79808591763E+02 0.  0.
          5    1    5    5  501    0 -0.24114138954E+02  0.10764776488E+03  0.39274208335E+03  0.40796809558E+03  0.47000000000E+01 0. -1.
        -11    1    6    6    0    0  0.49870119664E+02 -0.13001391347E+02  0.37606533263E+03  0.37958029377E+03  0.00000000000E+00 0.  1.
         12    1    6    6    0    0 -0.24685613942E+02  0.21000112804E+02  0.26450748263E+03  0.26648563309E+03  0.00000000000E+00 0. -1.
         -5    1    3    3    0  503  0.50903711248E+02 -0.10126453970E+02 -0.13315037805E+03  0.14298547501E+03  0.47000000000E+01 0.  1.
         11    1    4    4    0    0 -0.25866831792E+02 -0.10902533945E+03 -0.62940877714E+02  0.12851914922E+03  0.00000000000E+00 0. -1.
        -12    1    4    4    0    0 -0.26107246223E+02  0.35053070830E+01 -0.29889597869E+02  0.39840476201E+02  0.00000000000E+00 0.  1.
<mgrwt>
<rscale>  2 0.21260011E+03</rscale>
<asrwt>0</asrwt>
<pdfrwt beam="1">  1       21 0.16713178E+00 0.21416915E+03</pdfrwt>
<pdfrwt beam="2">  1       21 0.42926545E-01 0.21416915E+03</pdfrwt>
<totfact> 0.11415527E+03</totfact>
</mgrwt>
</event>
<event>
12    1  0.1050690E-001  0.1912297E+03  0.7546771E-02  0.1157357E+00
         21   -1    0    0  503  502  0.00000000000E+00  0.00000000000E+00  0.71331638724E+03  0.71331638724E+03  0.00000000000E+00 0.  1.
         21   -1    0    0  501  503 -0.00000000000E+00 -0.00000000000E+00 -0.71064629411E+02  0.71064629411E+02  0.00000000000E+00 0.  1.
          6    2    1    2  501    0 -0.52999379966E+02  0.61670719929E+02  0.52813519748E+03  0.56168976743E+03  0.17307916123E+03 0.  0.
         24    2    3    3    0    0 -0.75286416669E+02 -0.54028500880E+01  0.18372536313E+03  0.21007094002E+03  0.68392656465E+02 0.  0.
         -6    2    1    2    0  502  0.52999379966E+02 -0.61670719929E+02  0.11411656035E+03  0.22269124922E+03  0.17307972486E+03 0.  0.
        -24    2    5    5    0    0  0.14331223047E+02 -0.14656239919E+01 -0.57253313854E+01  0.83034351959E+02  0.81574457878E+02 0.  0.
          5    1    3    3  501    0  0.22287036703E+02  0.67073570017E+02  0.34440983435E+03  0.35161882742E+03  0.47000000000E+01 0. -1.
        -13    1    4    4    0    0 -0.64629931827E+02 -0.12808384335E+02  0.18561051364E+03  0.19695772534E+03  0.00000000000E+00 0.  1.
         14    1    4    4    0    0 -0.10656484842E+02  0.74055342465E+01 -0.18851505123E+01  0.13113214675E+02  0.00000000000E+00 0. -1.
         -5    1    5    5    0  502  0.38668156919E+02 -0.60205095937E+02  0.11984189174E+03  0.13965689726E+03  0.47000000000E+01 0.  1.
         13    1    6    6    0    0  0.19411927110E+01  0.27629989613E+02  0.26179507477E+02  0.38112349270E+02  0.00000000000E+00 0. -1.
        -14    1    6    6    0    0  0.12390030336E+02 -0.29095613605E+02 -0.31904838863E+02  0.44922002689E+02  0.00000000000E+00 0.  1.
<mgrwt>
<rscale>  2 0.19122959E+03</rscale>
<asrwt>0</asrwt>
<pdfrwt beam="1">  1       21 0.10974098E+00 0.19122971E+03</pdfrwt>
<pdfrwt beam="2">  1       21 0.10933020E-01 0.19122971E+03</pdfrwt>
<totfact> 0.45541910E+04</totfact>
</mgrwt>
</event>
<event>
12    1  0.1050690E-001  0.2080783E+03  0.7546771E-02  0.1143720E+00
         21   -1    0    0  501  502  0.00000000000E+00  0.00000000000E+00  0.15362063988E+04  0.15362063988E+04  0.00000000000E+00 0.  1.
         21   -1    0    0  502  503 -0.00000000000E+00 -0.00000000000E+00 -0.28948567931E+02  0.28948567931E+02  0.00000000000E+00 0. -1.
         -6    2    1    2    0  503 -0.10111462204E+03  0.42666305339E+02  0.59020325879E+03  0.62479032057E+03  0.17314293975E+03 0.  0.
        -24    2    3    3    0    0 -0.13456791403E+03  0.59162102232E+02  0.49617733913E+03  0.52352730842E+03  0.79247794777E+02 0.  0.
          6    2    1    2  501    0  0.10111462204E+03 -0.42666305339E+02  0.91705457208E+03  0.94036464616E+03  0.17678234975E+03 0.  0.
         24    2    5    5    0    0  0.12649397818E+03 -0.19002087076E+02  0.86156539965E+03  0.87475027883E+03  0.80816499626E+02 0.  0.
          5    1    5    5  501    0 -0.25379356132E+02 -0.23664218263E+02  0.55489172426E+02  0.65614367331E+02  0.47000000000E+01 0. -1.
        -11    1    6    6    0    0  0.12048711074E+03  0.74363243803E+01  0.61792694926E+03  0.62960793943E+03  0.00000000000E+00 0.  1.
         12    1    6    6    0    0  0.60068674323E+01 -0.26438411456E+02  0.24363845039E+03  0.24514233940E+03  0.00000000000E+00 0. -1.
         -5    1    3    3    0  503  0.33453291983E+02 -0.16495796894E+02  0.94025919663E+02  0.10126301214E+03  0.47000000000E+01 0.  1.
         13    1    4    4    0    0 -0.15158258317E+02  0.12864146887E+02  0.13214612032E+02  0.23872265110E+02  0.00000000000E+00 0. -1.
        -14    1    4    4    0    0 -0.11940965571E+03  0.46297955345E+02  0.48296272710E+03  0.49965504331E+03  0.00000000000E+00 0.  1.
<mgrwt>
<rscale>  2 0.20730322E+03</rscale>
<asrwt>0</asrwt>
<pdfrwt beam="1">  1       21 0.23633938E+00 0.20807830E+03</pdfrwt>
<pdfrwt beam="2">  1       21 0.44536270E-02 0.20807830E+03</pdfrwt>
<totfact> 0.25886126E+04</totfact>
</mgrwt>
</event>
<event>
12    1  0.1050690E-001  0.2262040E+03  0.7546771E-02  0.1129685E+00
         21   -1    0    0  503  502  0.00000000000E+00  0.00000000000E+00  0.61748419550E+03  0.61748419550E+03  0.00000000000E+00 0. -1.
         21   -1    0    0  501  503 -0.00000000000E+00 -0.00000000000E+00 -0.15717267977E+03  0.15717267977E+03  0.00000000000E+00 0. -1.
          6    2    1    2  501    0  0.24079232054E+02  0.14087433872E+03 -0.37922711680E+02  0.22747721833E+03  0.17286516154E+03 0.  0.
         24    2    3    3    0    0  0.53221560300E+02  0.12649340188E+03  0.20507019281E+02  0.16045326665E+03  0.80570452007E+02 0.  0.
         -6    2    1    2    0  502 -0.24079232054E+02 -0.14087433872E+03  0.49823422742E+03  0.54717965693E+03  0.17533637064E+03 0.  0.
        -24    2    5    5    0    0 -0.77285904823E+02 -0.11892517215E+03  0.41085869465E+03  0.44244528021E+03  0.82684045382E+02 0.  0.
          5    1    3    3  501    0 -0.29142328246E+02  0.14380936834E+02 -0.58429730961E+02  0.67023951689E+02  0.47000000000E+01 0. -1.
        -11    1    4    4    0    0  0.71702456194E+02  0.10676231390E+03  0.37775131773E+01  0.12866119656E+03  0.00000000000E+00 0.  1.
         12    1    4    4    0    0 -0.18480895894E+02  0.19731087985E+02  0.16729506104E+02  0.31792070090E+02  0.00000000000E+00 0. -1.
         -5    1    5    5    0  502  0.53206672770E+02 -0.21949166565E+02  0.87375532768E+02  0.10473437672E+03  0.47000000000E+01 0.  1.
         13    1    6    6    0    0  0.94967068062E+00 -0.73487059734E+02  0.19525543360E+03  0.20862869930E+03  0.00000000000E+00 0. -1.
        -14    1    6    6    0    0 -0.78235575504E+02 -0.45438112420E+02  0.21560326105E+03  0.23381658091E+03  0.00000000000E+00 0.  1.
<mgrwt>
<rscale>  2 0.22572493E+03</rscale>
<asrwt>0</asrwt>
<pdfrwt beam="1">  1       21 0.94997568E-01 0.22620396E+03</pdfrwt>
<pdfrwt beam="2">  1       21 0.24180413E-01 0.22620396E+03</pdfrwt>
<totfact> 0.14641191E+04</totfact>
</mgrwt>
</event>
<event>
12    1  0.1050690E-001  0.1815348E+03  0.7546771E-02  0.1166624E+00
         21   -1    0    0  503  502  0.00000000000E+00  0.00000000000E+00  0.37701220218E+03  0.37701220218E+03  0.00000000000E+00 0.  1.
         21   -1    0    0  501  503 -0.00000000000E+00 -0.00000000000E+00 -0.48887317720E+03  0.48887317720E+03  0.00000000000E+00 0. -1.
          6    2    1    2  501    0 -0.44083283734E+02 -0.24731571532E+02 -0.44852012445E+03  0.48340105533E+03  0.17306441497E+03 0.  0.
         24    2    3    3    0    0 -0.52036607707E+02 -0.78931398242E+02 -0.33498232000E+03  0.35725114603E+03  0.80481379587E+02 0.  0.
         -6    2    1    2    0  502  0.44083283734E+02  0.24731571532E+02  0.33665914943E+03  0.38248432404E+03  0.17435563859E+03 0.  0.
        -24    2    5    5    0    0 -0.40820586438E+02 -0.18361551708E+02  0.19978356803E+03  0.21568294747E+03  0.67839464316E+02 0.  0.
          5    1    3    3  501    0  0.79533239723E+01  0.54199826710E+02 -0.11353780445E+03  0.12614990930E+03  0.47000000000E+01 0. -1.
        -11    1    4    4    0    0  0.21897340684E+02 -0.18318071428E+02 -0.78338065524E+02  0.83378041354E+02  0.00000000000E+00 0.  1.
         12    1    4    4    0    0 -0.73933948391E+02 -0.60613326814E+02 -0.25664425448E+03  0.27387310468E+03  0.00000000000E+00 0. -1.
         -5    1    5    5    0  502  0.84903870172E+02  0.43093123240E+02  0.13687558140E+03  0.16680137657E+03  0.47000000000E+01 0.  1.
         13    1    6    6    0    0 -0.46253858007E+01  0.15602473447E+02  0.90998647112E+01  0.18645077346E+02  0.00000000000E+00 0. -1.
        -14    1    6    6    0    0 -0.36195200637E+02 -0.33964025155E+02  0.19068370331E+03  0.19703787013E+03  0.00000000000E+00 0.  1.
<mgrwt>
<rscale>  2 0.18122403E+03</rscale>
<asrwt>0</asrwt>
<pdfrwt beam="1">  1       21 0.58001877E-01 0.18153478E+03</pdfrwt>
<pdfrwt beam="2">  1       21 0.75211258E-01 0.18153478E+03</pdfrwt>
<totfact> 0.44416857E+03</totfact>
</mgrwt>
</event>
<event>
12    1  0.1050690E-001  0.1896114E+03  0.7546771E-02  0.1159282E+00
         21   -1    0    0  501  502  0.00000000000E+00  0.00000000000E+00  0.85148309543E+03  0.85148309543E+03  0.00000000000E+00 0.  1.
         21   -1    0    0  502  503 -0.00000000000E+00 -0.00000000000E+00 -0.63023969777E+02  0.63023969777E+02  0.00000000000E+00 0.  1.
         -6    2    1    2    0  503 -0.77395267059E+02  0.99427793688E+01  0.12723006323E+03  0.22662889691E+03  0.17054114372E+03 0.  0.
        -24    2    3    3    0    0 -0.68209176615E+02  0.63309572367E+02  0.12004216661E+03  0.17180048539E+03  0.80278834618E+02 0.  0.
          6    2    1    2  501    0  0.77395267059E+02 -0.99427793688E+01  0.66122906242E+03  0.68787816829E+03  0.17281092325E+03 0.  0.
         24    2    5    5    0    0  0.28765544144E+02  0.49489894424E+02  0.49724742661E+03  0.50674517972E+03  0.79113638016E+02 0.  0.
          5    1    5    5  501    0  0.48629722916E+02 -0.59432673792E+02  0.16398163581E+03  0.18113298857E+03  0.47000000000E+01 0. -1.
        -11    1    6    6    0    0 -0.22335104166E+02  0.17429712588E+02  0.27502046404E+03  0.27647587128E+03  0.00000000000E+00 0.  1.
         12    1    6    6    0    0  0.51100648310E+02  0.32060181835E+02  0.22222696257E+03  0.23026930844E+03  0.00000000000E+00 0. -1.
         -5    1    3    3    0  503 -0.91860904449E+01 -0.53366792999E+02  0.71878966212E+01  0.54828411526E+02  0.47000000000E+01 0.  1.
         11    1    4    4    0    0 -0.34419924621E+02  0.30331879542E+02  0.11560748529E+03  0.12437783075E+03  0.00000000000E+00 0. -1.
        -12    1    4    4    0    0 -0.33789251994E+02  0.32977692825E+02  0.44346813194E+01  0.47422654637E+02  0.00000000000E+00 0.  1.
<mgrwt>
<rscale>  2 0.18909274E+03</rscale>
<asrwt>0</asrwt>
<pdfrwt beam="1">  1       21 0.13099739E+00 0.18961145E+03</pdfrwt>
<pdfrwt beam="2">  1       21 0.96959959E-02 0.18961145E+03</pdfrwt>
<totfact> 0.36394551E+04</totfact>
</mgrwt>
</event>
<event>
12    1  0.1050690E-001  0.1769419E+03  0.7546771E-02  0.1170834E+00
         21   -1    0    0  501  502  0.00000000000E+00  0.00000000000E+00  0.53180171919E+03  0.53180171919E+03  0.00000000000E+00 0. -1.
         21   -1    0    0  502  503 -0.00000000000E+00 -0.00000000000E+00 -0.59954705408E+02  0.59954705408E+02  0.00000000000E+00 0. -1.
         -6    2    1    2    0  503  0.17736501531E+02 -0.32364800078E+02  0.19514771277E+03  0.26331931899E+03  0.17289410108E+03 0.  0.
        -24    2    3    3    0    0 -0.16585766936E+02 -0.84094792807E+01  0.24255272332E+02  0.87313092669E+02  0.81789063504E+02 0.  0.
          6    2    1    2  501    0 -0.17736501531E+02  0.32364800078E+02  0.27669930101E+03  0.32843710560E+03  0.17305018169E+03 0.  0.
         24    2    5    5    0    0 -0.49470912446E+02 -0.47291921858E+02  0.18033045054E+03  0.19935840276E+03  0.50406391537E+02 0.  0.
          5    1    5    5  501    0  0.31734410915E+02  0.79656721935E+02  0.96368850469E+02  0.12907870284E+03  0.47000000000E+01 0. -1.
        -11    1    6    6    0    0 -0.12956952979E+02 -0.37645337234E+02  0.51430146798E+02  0.65039326915E+02  0.00000000000E+00 0.  1.
         12    1    6    6    0    0 -0.36513959467E+02 -0.96465846238E+01  0.12890030374E+03  0.13431907585E+03  0.00000000000E+00 0. -1.
         -5    1    3    3    0  503  0.34322268467E+02 -0.23955320797E+02  0.17089244043E+03  0.17600622632E+03  0.47000000000E+01 0.  1.
         11    1    4    4    0    0  0.45458315259E+00 -0.42632124383E+02  0.11643840704E+01  0.42650445080E+02  0.00000000000E+00 0. -1.
        -12    1    4    4    0    0 -0.17040350089E+02  0.34222645102E+02  0.23090888261E+02  0.44662647589E+02  0.00000000000E+00 0.  1.
<mgrwt>
<rscale>  2 0.17690371E+03</rscale>
<asrwt>0</asrwt>
<pdfrwt beam="1">  1       21 0.81815646E-01 0.17694188E+03</pdfrwt>
<pdfrwt beam="2">  1       21 0.92238012E-02 0.17694188E+03</pdfrwt>
<totfact> 0.12301470E+05</totfact>
</mgrwt>
</event>
<event>
12    1  0.1050690E-001  0.2592767E+03  0.7546771E-02  0.1107616E+00
         21   -1    0    0  503  502  0.00000000000E+00  0.00000000000E+00  0.27068415089E+03  0.27068415089E+03  0.00000000000E+00 0. -1.
         21   -1    0    0  501  503 -0.00000000000E+00 -0.00000000000E+00 -0.35285999957E+03  0.35285999957E+03  0.00000000000E+00 0.  1.
          6    2    1    2  501    0  0.67484881866E+02  0.18014546815E+03 -0.21097083913E+03  0.33426502948E+03  0.17383272417E+03 0.  0.
         24    2    3    3    0    0  0.26647913302E+02  0.78721897654E+02 -0.18986814905E+03  0.22281184566E+03  0.81779924743E+02 0.  0.
         -6    2    1    2    0  502 -0.67484881866E+02 -0.18014546815E+03  0.12879499045E+03  0.28927912098E+03  0.17345795254E+03 0.  0.
        -24    2    5    5    0    0 -0.48200526933E+02 -0.12231866486E+03  0.15302163901E+03  0.22351555946E+03  0.96220770874E+02 0.  0.
          5    1    3    3  501    0  0.40836968564E+02  0.10142357050E+03 -0.21102690086E+02  0.11145318382E+03  0.47000000000E+01 0. -1.
        -11    1    4    4    0    0  0.17137788980E+02  0.95584757677E+02 -0.15425035554E+03  0.18227265811E+03  0.00000000000E+00 0.  1.
         12    1    4    4    0    0  0.95101243223E+01 -0.16862860023E+02 -0.35617793503E+02  0.40539187546E+02  0.00000000000E+00 0. -1.
         -5    1    5    5    0  502 -0.19284354932E+02 -0.57826803287E+02 -0.24226648559E+02  0.65763561521E+02  0.47000000000E+01 0.  1.
         13    1    6    6    0    0 -0.14466379640E+02  0.73298753755E+01  0.55479866225E+02  0.57801546426E+02  0.00000000000E+00 0. -1.
        -14    1    6    6    0    0 -0.33734147294E+02 -0.12964854024E+03  0.97541772782E+02  0.16571401304E+03  0.00000000000E+00 0.  1.
<mgrwt>
<rscale>  2 0.25921391E+03</rscale>
<asrwt>0</asrwt>
<pdfrwt beam="1">  1       21 0.41643715E-01 0.25927672E+03</pdfrwt>
<pdfrwt beam="2">  1       21 0.54286154E-01 0.25927672E+03</pdfrwt>
<totfact> 0.17159372E+04</totfact>
</mgrwt>
</event>
<event>
12    1  0.1050690E-001  0.2388317E+03  0.7546771E-02  0.1120730E+00
         21   -1    0    0  503  502  0.00000000000E+00  0.00000000000E+00  0.88110849308E+02  0.88110849308E+02  0.00000000000E+00 0. -1.
         21   -1    0    0  501  503 -0.00000000000E+00 -0.00000000000E+00 -0.70126571900E+03  0.70126571900E+03  0.00000000000E+00 0. -1.
          6    2    1    2  501    0  0.10862861624E+03 -0.12437249972E+03 -0.19408832033E+03  0.30703090527E+03  0.17125713344E+03 0.  0.
         24    2    3    3    0    0  0.10424853253E+03 -0.11514913746E+03 -0.78918233888E+02  0.19131360166E+03  0.79029906681E+02 0.  0.
         -6    2    1    2    0  502 -0.10862861624E+03  0.12437249972E+03 -0.41906654936E+03  0.48234566303E+03  0.17254527203E+03 0.  0.
        -24    2    5    5    0    0 -0.10827482365E+03  0.12316381745E+03 -0.43254053849E+03  0.46802000546E+03  0.71124149993E+02 0.  0.
          5    1    3    3  501    0  0.43800837163E+01 -0.92233622606E+01 -0.11517008644E+03  0.11571730361E+03  0.47000000000E+01 0. -1.
        -11    1    4    4    0    0  0.81063191005E+00 -0.40854287035E+02 -0.42268250938E+02  0.58790602400E+02  0.00000000000E+00 0.  1.
         12    1    4    4    0    0  0.10343790062E+03 -0.74294850421E+02 -0.36649982950E+02  0.13252299926E+03  0.00000000000E+00 0. -1.
         -5    1    5    5    0  502 -0.35379259576E+00  0.12086822698E+01  0.13473989123E+02  0.14325657574E+02  0.47000000000E+01 0.  1.
         11    1    6    6    0    0 -0.54850118041E+02  0.37381722081E+02 -0.96590075795E+02  0.11719885382E+03  0.00000000000E+00 0. -1.
        -12    1    6    6    0    0 -0.53424705607E+02  0.85782095365E+02 -0.33595046269E+03  0.35082115164E+03  0.00000000000E+00 0.  1.
<mgrwt>
<rscale>  2 0.23859909E+03</rscale>
<asrwt>0</asrwt>
<pdfrwt beam="1">  1       21 0.13555516E-01 0.23883167E+03</pdfrwt>
<pdfrwt beam="2">  1       21 0.10788703E+00 0.23883167E+03</pdfrwt>
<totfact> 0.31474386E+04</totfact>
</mgrwt>
</event>
<event>
12    1  0.1050690E-001  0.2160068E+03  0.7546771E-02  0.1137098E+00
         21   -1    0    0  503  502  0.00000000000E+00  0.00000000000E+00  0.13645229080E+03  0.13645229080E+03  0.00000000000E+00 0.  1.
         21   -1    0    0  501  503 -0.00000000000E+00 -0.00000000000E+00 -0.67286963131E+03  0.67286963131E+03  0.00000000000E+00 0.  1.
          6    2    1    2  501    0  0.60266078572E+02 -0.11485612800E+03 -0.55237778575E+03  0.59272630386E+03  0.17140397525E+03 0.  0.
         24    2    3    3    0    0  0.23719560385E+02 -0.13631487149E+03 -0.50791236002E+03  0.53111956925E+03  0.70488790947E+02 0.  0.
         -6    2    1    2    0  502 -0.60266078572E+02  0.11485612800E+03  0.15960445239E+02  0.21659561825E+03  0.17272809750E+03 0.  0.
        -24    2    5    5    0    0  0.19545563963E+02  0.88870011711E+01  0.11459398252E+02  0.83773543462E+02  0.80160345031E+02 0.  0.
          5    1    3    3  501    0  0.36546518187E+02  0.21458743488E+02 -0.44465425734E+02  0.61606734611E+02  0.47000000000E+01 0. -1.
        -11    1    4    4    0    0  0.19882200763E+02 -0.13345099423E+03 -0.38220452553E+03  0.40532057572E+03  0.00000000000E+00 0.  1.
         12    1    4    4    0    0  0.38373596219E+01 -0.28638772652E+01 -0.12570783449E+03  0.12579899353E+03  0.00000000000E+00 0. -1.
         -5    1    5    5    0  502 -0.79811642535E+02  0.10596912683E+03  0.45010469876E+01  0.13282207478E+03  0.47000000000E+01 0.  1.
         13    1    6    6    0    0  0.22436164341E+02  0.25215938636E+02 -0.26132572320E+02  0.42686489288E+02  0.00000000000E+00 0. -1.
        -14    1    6    6    0    0 -0.28906003782E+01 -0.16328937465E+02  0.37591970571E+02  0.41087054174E+02  0.00000000000E+00 0.  1.
<mgrwt>
<rscale>  2 0.21574195E+03</rscale>
<asrwt>0</asrwt>
<pdfrwt beam="1">  1       21 0.20992660E-01 0.21600677E+03</pdfrwt>
<pdfrwt beam="2">  1       21 0.10351840E+00 0.21600677E+03</pdfrwt>
<totfact> 0.15700885E+04</totfact>
</mgrwt>
</event>
<event>
12    1  0.1050690E-001  0.1777829E+03  0.7546771E-02  0.1170063E+00
         21   -1    0    0  503  502  0.00000000000E+00  0.00000000000E+00  0.47812341930E+02  0.47812341930E+02  0.00000000000E+00 0. -1.
         21   -1    0    0  501  503 -0.00000000000E+00 -0.00000000000E+00 -0.12015505637E+04  0.12015505637E+04  0.00000000000E+00 0. -1.
          6    2    1    2  501    0  0.37210189757E+02 -0.12600173015E+02 -0.99675476657E+03  0.10124854722E+04  0.17338801627E+03 0.  0.
         24    2    3    3    0    0  0.49097579482E+02  0.50652900458E+02 -0.49584552360E+03  0.50743654287E+03  0.81564533544E+02 0.  0.
         -6    2    1    2    0  502 -0.37210189757E+02  0.12600173015E+02 -0.15698345524E+03  0.23687743345E+03  0.17298482789E+03 0.  0.
        -24    2    5    5    0    0  0.27951469882E+02 -0.36393743224E+02 -0.10041619434E+03  0.13753765934E+03  0.82020768323E+02 0.  0.
          5    1    3    3  501    0 -0.11887389725E+02 -0.63253073473E+02 -0.50090924297E+03  0.50504892935E+03  0.47000000000E+01 0. -1.
        -13    1    4    4    0    0  0.95652635029E+01 -0.98883123615E+00 -0.26544434063E+01  0.99758770487E+01  0.00000000000E+00 0.  1.
         14    1    4    4    0    0  0.39532315979E+02  0.51641731694E+02 -0.49319108020E+03  0.49746066583E+03  0.00000000000E+00 0. -1.
         -5    1    5    5    0  502 -0.65161659639E+02  0.48993916239E+02 -0.56567260899E+02  0.99339774114E+02  0.47000000000E+01 0.  1.
         11    1    6    6    0    0  0.21200945367E+02 -0.22307036547E+02  0.48187408365E+01  0.31149706695E+02  0.00000000000E+00 0. -1.
        -12    1    6    6    0    0  0.67505245154E+01 -0.14086706677E+02 -0.10523493518E+03  0.10638795264E+03  0.00000000000E+00 0.  1.
<mgrwt>
<rscale>  2 0.17768454E+03</rscale>
<asrwt>0</asrwt>
<pdfrwt beam="1">  1       21 0.73557452E-02 0.17778292E+03</pdfrwt>
<pdfrwt beam="2">  1       21 0.18485393E+00 0.17778292E+03</pdfrwt>
<totfact> 0.23680171E+04</totfact>
</mgrwt>
</event>
<event>
12    1  0.1050690E-001  0.1735480E+03  0.7546771E-02  0.1174245E+00
         21   -1    0    0  501  502  0.00000000000E+00  0.00000000000E+00  0.26653740170E+04  0.26653740170E+04  0.00000000000E+00 0. -1.
         21   -1    0    0  502  503 -0.00000000000E+00 -0.00000000000E+00 -0.11288321560E+02  0.11288321560E+02  0.00000000000E+00 0. -1.
         -6    2    1    2    0  503  0.50100558490E+01  0.97130045363E+01  0.13338686262E+04  0.13450873288E+04  0.17301724489E+03 0.  0.
        -24    2    3    3    0    0 -0.64697810575E+02  0.78400053213E+01  0.75997017743E+03  0.76694875176E+03  0.80052762991E+02 0.  0.
          6    2    1    2  501    0 -0.50100558490E+01 -0.97130045363E+01  0.13202170692E+04  0.13315750097E+04  0.17320350337E+03 0.  0.
         24    2    5    5    0    0  0.50592414064E+02  0.12201450674E+02  0.10434554236E+04  0.10483948966E+04  0.87316495312E+02 0.  0.
          5    1    5    5  501    0 -0.55602469913E+02 -0.21914455210E+02  0.27676164563E+03  0.28318011318E+03  0.47000000000E+01 0. -1.
        -11    1    6    6    0    0  0.53078024533E+02 -0.26378320691E+02  0.76121595893E+03  0.76352002503E+03  0.00000000000E+00 0.  1.
         12    1    6    6    0    0 -0.24856104688E+01  0.38579771365E+02  0.28223946465E+03  0.28487487152E+03  0.00000000000E+00 0. -1.
         -5    1    3    3    0  503  0.69707866424E+02  0.18729992150E+01  0.57389844877E+03  0.57813857704E+03  0.47000000000E+01 0.  1.
         11    1    4    4    0    0 -0.14594330612E+01  0.23542844146E+02  0.69149335631E+02  0.73061796266E+02  0.00000000000E+00 0. -1.
        -12    1    4    4    0    0 -0.63238377513E+02 -0.15702838825E+02  0.69082084180E+03  0.69388695549E+03  0.00000000000E+00 0.  1.
<mgrwt>
<rscale>  2 0.17350148E+03</rscale>
<asrwt>0</asrwt>
<pdfrwt beam="1">  1       21 0.41005704E+00 0.17354797E+03</pdfrwt>
<pdfrwt beam="2">  1       21 0.17366670E-02 0.17354797E+03</pdfrwt>
<totfact> 0.11972664E+04</totfact>
</mgrwt>
</event>
<event>
12    1  0.1050690E-001  0.1807586E+03  0.7546771E-02  0.1167211E+00
         21   -1    0    0  501  502  0.00000000000E+00  0.00000000000E+00  0.37572211645E+03  0.37572211645E+03  0.00000000000E+00 0.  1.
         21   -1    0    0  502  503 -0.00000000000E+00 -0.00000000000E+00 -0.17959198437E+03  0.17959198437E+03  0.00000000000E+00 0.  1.
         -6    2    1    2    0  503 -0.30053509408E+02 -0.44676513990E+02 -0.10171752505E+03  0.20690786477E+03  0.17194535548E+03 0.  0.
        -24    2    3    3    0    0 -0.15713087157E+02  0.34316254111E+02 -0.81983546769E+02  0.12410070915E+03  0.85177330713E+02 0.  0.
          6    2    1    2  501    0  0.30053509408E+02  0.44676513990E+02  0.29784765714E+03  0.34840623605E+03  0.17255281546E+03 0.  0.
         24    2    5    5    0    0  0.80547438353E+02  0.17219654921E+02  0.14818495823E+03  0.18801755373E+03  0.81285990948E+02 0.  0.
          5    1    5    5  501    0 -0.50493928945E+02  0.27456859069E+02  0.14966269891E+03  0.16038868232E+03  0.47000000000E+01 0. -1.
        -11    1    6    6    0    0  0.66612480154E+02  0.30386024763E+01  0.15356760451E+03  0.16742002501E+03  0.00000000000E+00 0.  1.
         12    1    6    6    0    0  0.13934958199E+02  0.14181052445E+02 -0.53826462849E+01  0.20597528722E+02  0.00000000000E+00 0. -1.
         -5    1    3    3    0  503 -0.14340422250E+02 -0.78992768101E+02 -0.19733978284E+02  0.82807155618E+02  0.47000000000E+01 0.  1.
         13    1    4    4    0    0 -0.34507263555E+02  0.29256555289E+02 -0.59672898311E+01  0.45632289153E+02  0.00000000000E+00 0. -1.
        -14    1    4    4    0    0  0.18794176397E+02  0.50596988225E+01 -0.76016256938E+02  0.78468420001E+02  0.00000000000E+00 0.  1.
<mgrwt>
<rscale>  2 0.18061350E+03</rscale>
<asrwt>0</asrwt>
<pdfrwt beam="1">  1       21 0.57803402E-01 0.18075862E+03</pdfrwt>
<pdfrwt beam="2">  1       21 0.27629536E-01 0.18075862E+03</pdfrwt>
<totfact> 0.35302795E+04</totfact>
</mgrwt>
</event>
<event>
12    1  0.1050690E-001  0.2039027E+03  0.7546771E-02  0.1147555E+00
         21   -1    0    0  503  502  0.00000000000E+00  0.00000000000E+00  0.24650845189E+03  0.24650845189E+03  0.00000000000E+00 0. -1.
         21   -1    0    0  501  503 -0.00000000000E+00 -0.00000000000E+00 -0.19474577293E+03  0.19474577293E+03  0.00000000000E+00 0.  1.
          6    2    1    2  501    0 -0.98279914188E+02 -0.11161335973E+02  0.11261142851E+03  0.22846584423E+03  0.17242909034E+03 0.  0.
         24    2    3    3    0    0 -0.57725858364E+02  0.38499761689E+02  0.93369473581E+01  0.10681649355E+03  0.80672661624E+02 0.  0.
         -6    2    1    2    0  502  0.98279914188E+02  0.11161335973E+02 -0.60848749546E+02  0.21278838059E+03  0.17830537748E+03 0.  0.
        -24    2    5    5    0    0  0.11810078769E+03  0.54863724936E+02 -0.61768483077E+02  0.16456285066E+03  0.79421419949E+02 0.  0.
          5    1    3    3  501    0 -0.40554055824E+02 -0.49661097662E+02  0.10327448115E+03  0.12164935069E+03  0.47000000000E+01 0. -1.
        -11    1    4    4    0    0  0.12025424783E+02  0.26452792657E+02 -0.14040244390E+02  0.32272117115E+02  0.00000000000E+00 0.  1.
         12    1    4    4    0    0 -0.69751283147E+02  0.12046969032E+02  0.23377191748E+02  0.74544376431E+02  0.00000000000E+00 0. -1.
         -5    1    5    5    0  502 -0.19820873506E+02 -0.43702388963E+02  0.91973353086E+00  0.48225529934E+02  0.47000000000E+01 0.  1.
         13    1    6    6    0    0  0.37965783295E+02 -0.12860941659E+01 -0.54515516204E+02  0.66445438115E+02  0.00000000000E+00 0. -1.
        -14    1    6    6    0    0  0.80135004400E+02  0.56149819102E+02 -0.72529668733E+01  0.98117412541E+02  0.00000000000E+00 0.  1.
<mgrwt>
<rscale>  2 0.20261097E+03</rscale>
<asrwt>0</asrwt>
<pdfrwt beam="1">  1       21 0.37924377E-01 0.20390273E+03</pdfrwt>
<pdfrwt beam="2">  1       21 0.29960888E-01 0.20390273E+03</pdfrwt>
<totfact> 0.71278572E+04</totfact>
</mgrwt>
</event>
<event>
12    1  0.1050690E-001  0.2461210E+03  0.7546771E-02  0.1116251E+00
         21   -1    0    0  501  502  0.00000000000E+00  0.00000000000E+00  0.11279360242E+04  0.11279360242E+04  0.00000000000E+00 0.  1.
         21   -1    0    0  502  503 -0.00000000000E+00 -0.00000000000E+00 -0.58834707195E+02  0.58834707195E+02  0.00000000000E+00 0.  1.
         -6    2    1    2    0  503 -0.37529084391E+02 -0.17270438594E+03  0.35173909874E+03  0.42929702475E+03  0.17129011873E+03 0.  0.
        -24    2    3    3    0    0  0.42831493177E+02 -0.10641065349E+03  0.22638203069E+03  0.26623517789E+03  0.80464788221E+02 0.  0.
          6    2    1    2  501    0  0.37529084391E+02  0.17270438594E+03  0.71736221830E+03  0.75747370668E+03  0.16710064925E+03 0.  0.
         24    2    5    5    0    0 -0.28161081768E+02  0.44638387421E+02  0.23648871224E+03  0.25550008514E+03  0.81041657979E+02 0.  0.
          5    1    5    5  501    0  0.65690166159E+02  0.12806599852E+03  0.48087350605E+03  0.50197362155E+03  0.47000000000E+01 0. -1.
        -13    1    6    6    0    0  0.51448777417E+01  0.56692242565E+02  0.10634282595E+03  0.12062038288E+03  0.00000000000E+00 0.  1.
         14    1    6    6    0    0 -0.33305959510E+02 -0.12053855144E+02  0.13014588629E+03  0.13487970226E+03  0.00000000000E+00 0. -1.
         -5    1    3    3    0  503 -0.80360577568E+02 -0.66293732447E+02  0.12535706805E+03  0.16306184685E+03  0.47000000000E+01 0.  1.
         13    1    4    4    0    0  0.37528118050E+02 -0.44086217974E+02  0.41982097283E+02  0.71515388217E+02  0.00000000000E+00 0. -1.
        -14    1    4    4    0    0  0.53033751272E+01 -0.62324435517E+02  0.18439993341E+03  0.19471978968E+03  0.00000000000E+00 0.  1.
<mgrwt>
<rscale>  2 0.24539350E+03</rscale>
<asrwt>0</asrwt>
<pdfrwt beam="1">  1       21 0.17352860E+00 0.24612099E+03</pdfrwt>
<pdfrwt beam="2">  1       21 0.90514943E-02 0.24612099E+03</pdfrwt>
<totfact> 0.18826381E+04</totfact>
</mgrwt>
</event>
<event>
12    1  0.1050690E-001  0.2090663E+03  0.7546771E-02  0.1142448E+00
         21   -1    0    0  503  502  0.00000000000E+00  0.00000000000E+00  0.96910371978E+03  0.96910371978E+03  0.00000000000E+00 0. -1.
         21   -1    0    0  501  503 -0.00000000000E+00 -0.00000000000E+00 -0.47272965869E+02  0.47272965869E+02  0.00000000000E+00 0.  1.
          6    2    1    2  501    0  0.10498030285E+03 -0.49463871204E+02  0.34901592474E+03  0.40684250558E+03  0.17389988523E+03 0.  0.
         24    2    3    3    0    0  0.47470723924E+02 -0.45152858009E+02  0.79181790028E+02  0.13087423429E+03  0.81031223069E+02 0.  0.
         -6    2    1    2    0  502 -0.10498030285E+03  0.49463871204E+02  0.57281482917E+03  0.60953418007E+03  0.17305360331E+03 0.  0.
        -24    2    5    5    0    0 -0.95814142970E+02 -0.28707543994E+02  0.36526730754E+03  0.38751424319E+03  0.82113394993E+02 0.  0.
          5    1    3    3  501    0  0.57509578926E+02 -0.43110131956E+01  0.26983413471E+03  0.27596827129E+03  0.47000000000E+01 0. -1.
        -13    1    4    4    0    0  0.39096072105E+02  0.11795613169E+02  0.12332963361E+02  0.42658426241E+02  0.00000000000E+00 0.  1.
         14    1    4    4    0    0  0.83746518182E+01 -0.56948471177E+02  0.66848826667E+02  0.88215808046E+02  0.00000000000E+00 0. -1.
         -5    1    5    5    0  502 -0.91661598802E+01  0.78171415198E+02  0.20754752162E+03  0.22201993688E+03  0.47000000000E+01 0.  1.
         11    1    6    6    0    0  0.12224858561E+02  0.86818762120E+01  0.47194459782E+02  0.49519078904E+02  0.00000000000E+00 0. -1.
        -12    1    6    6    0    0 -0.10803900153E+03 -0.37389420206E+02  0.31807284776E+03  0.33799516428E+03  0.00000000000E+00 0.  1.
<mgrwt>
<rscale>  2 0.20889021E+03</rscale>
<asrwt>0</asrwt>
<pdfrwt beam="1">  1       21 0.14909287E+00 0.20906628E+03</pdfrwt>
<pdfrwt beam="2">  1       21 0.72727647E-02 0.20906628E+03</pdfrwt>
<totfact> 0.42594953E+04</totfact>
</mgrwt>
</event>
<event>
12    1  0.1050690E-001  0.2067568E+03  0.7546771E-02  0.1144675E+00
         21   -1    0    0  501  502  0.00000000000E+00  0.00000000000E+00  0.20046509351E+03  0.20046509351E+03  0.00000000000E+00 0. -1.
         21   -1    0    0  502  503 -0.00000000000E+00 -0.00000000000E+00 -0.30853985419E+03  0.30853985419E+03  0.00000000000E+00 0. -1.
         -6    2    1    2    0  503  0.10715420905E+03 -0.17949376324E+02 -0.19716506625E+03  0.28387062897E+03  0.17292849971E+03 0.  0.
        -24    2    3    3    0    0  0.12435679951E+03 -0.50147875240E+02 -0.11604513484E+03  0.19479085728E+03  0.80607578966E+02 0.  0.
          6    2    1    2  501    0 -0.10715420905E+03  0.17949376324E+02  0.89090305578E+02  0.22513431872E+03  0.17590956282E+03 0.  0.
         24    2    5    5    0    0  0.36806570490E+01 -0.14654478935E+02  0.63894248193E+02  0.10679451042E+03  0.84227617289E+02 0.  0.
          5    1    5    5  501    0 -0.11083486610E+03  0.32603855260E+02  0.25196057385E+02  0.11833980830E+03  0.47000000000E+01 0. -1.
        -11    1    6    6    0    0  0.13839240424E+02 -0.43652960852E+02  0.13449043235E+02  0.47728213151E+02  0.00000000000E+00 0.  1.
         12    1    6    6    0    0 -0.10158583375E+02  0.28998481916E+02  0.50445204958E+02  0.59066297268E+02  0.00000000000E+00 0. -1.
         -5    1    3    3    0  503 -0.17202590455E+02  0.32198498915E+02 -0.81119931417E+02  0.89079771687E+02  0.47000000000E+01 0.  1.
         13    1    4    4    0    0  0.44348790587E+02 -0.61307881320E+02 -0.56598401033E+02  0.94492595149E+02  0.00000000000E+00 0. -1.
        -14    1    4    4    0    0  0.80008008922E+02  0.11160006080E+02 -0.59446733805E+02  0.10029826214E+03  0.00000000000E+00 0.  1.
<mgrwt>
<rscale>  2 0.20612131E+03</rscale>
<asrwt>0</asrwt>
<pdfrwt beam="1">  1       21 0.30840784E-01 0.20675681E+03</pdfrwt>
<pdfrwt beam="2">  1       21 0.47467670E-01 0.20675681E+03</pdfrwt>
<totfact> 0.42553168E+04</totfact>
</mgrwt>
</event>
<event>
12    1  0.1050690E-001  0.2130728E+03  0.7546771E-02  0.1139256E+00
         21   -1    0    0  501  502  0.00000000000E+00  0.00000000000E+00  0.11276883069E+04  0.11276883069E+04  0.00000000000E+00 0.  1.
         21   -1    0    0  502  503 -0.00000000000E+00 -0.00000000000E+00 -0.48094274353E+02  0.48094274353E+02  0.00000000000E+00 0. -1.
         -6    2    1    2    0  503  0.59918308652E+01  0.12321959780E+03  0.77800597462E+03  0.80651932309E+03  0.17309289601E+03 0.  0.
        -24    2    3    3    0    0 -0.16728843443E+02 -0.84567212334E+00  0.38091665458E+03  0.38985346375E+03  0.81287490442E+02 0.  0.
          6    2    1    2  501    0 -0.59918308652E+01 -0.12321959780E+03  0.30158805794E+03  0.36926325818E+03  0.17372687136E+03 0.  0.
         24    2    5    5    0    0 -0.57664885328E+02 -0.83129947365E+02  0.26333628383E+03  0.29335164608E+03  0.80457210530E+02 0.  0.
          5    1    5    5  501    0  0.51673054463E+02 -0.40089650432E+02  0.38251774108E+02  0.75911612100E+02  0.47000000000E+01 0. -1.
        -11    1    6    6    0    0  0.10174455765E+02  0.58047564369E+01  0.61384821198E+02  0.62492487716E+02  0.00000000000E+00 0.  1.
         12    1    6    6    0    0 -0.67839341093E+02 -0.88934703802E+02  0.20195146264E+03  0.23085915836E+03  0.00000000000E+00 0. -1.
         -5    1    3    3    0  503  0.22720674309E+02  0.12406526992E+03  0.39708932005E+03  0.41666585934E+03  0.47000000000E+01 0.  1.
         11    1    4    4    0    0  0.69417505865E+01  0.54289150307E+01  0.69050107974E+00  0.88395594549E+01  0.00000000000E+00 0. -1.
        -12    1    4    4    0    0 -0.23670594030E+02 -0.62745871540E+01  0.38022615350E+03  0.38101390430E+03  0.00000000000E+00 0.  1.
<mgrwt>
<rscale>  2 0.21294349E+03</rscale>
<asrwt>0</asrwt>
<pdfrwt beam="1">  1       21 0.17349049E+00 0.21307275E+03</pdfrwt>
<pdfrwt beam="2">  1       21 0.73991200E-02 0.21307275E+03</pdfrwt>
<totfact> 0.27352177E+04</totfact>
</mgrwt>
</event>
<event>
12    1  0.1050690E-001  0.2435671E+03  0.7546771E-02  0.1117514E+00
         21   -1    0    0  503  502  0.00000000000E+00  0.00000000000E+00  0.12644811287E+03  0.12644811287E+03  0.00000000000E+00 0. -1.
         21   -1    0    0  501  503 -0.00000000000E+00 -0.00000000000E+00 -0.46924474938E+03  0.46924474938E+03  0.00000000000E+00 0.  1.
          6    2    1    2  501    0  0.10988065808E+02 -0.17043588126E+03 -0.15772525242E+03  0.28979035562E+03  0.17300886609E+03 0.  0.
         24    2    3    3    0    0 -0.34602105051E+02 -0.17684698206E+03 -0.11456475225E+03  0.22650935793E+03  0.75559552918E+02 0.  0.
         -6    2    1    2    0  502 -0.10988065808E+02  0.17043588126E+03 -0.18507138408E+03  0.30590250664E+03  0.17365425175E+03 0.  0.
        -24    2    5    5    0    0  0.56673327337E+01  0.19430993841E+03 -0.14383664859E+03  0.25520964406E+03  0.81575180762E+02 0.  0.
          5    1    3    3  501    0  0.45590170859E+02  0.64111007996E+01 -0.43160500172E+02  0.63280997681E+02  0.47000000000E+01 0. -1.
        -13    1    4    4    0    0 -0.31181366646E+02 -0.17927325477E+02 -0.15172815434E+02  0.39036917820E+02  0.00000000000E+00 0.  1.
         14    1    4    4    0    0 -0.34207384051E+01 -0.15891965658E+03 -0.99391936818E+02  0.18747244011E+03  0.00000000000E+00 0. -1.
         -5    1    5    5    0  502 -0.16655398542E+02 -0.23874057154E+02 -0.41234735489E+02  0.50692862579E+02  0.47000000000E+01 0.  1.
         13    1    6    6    0    0 -0.34316565411E+02  0.47412457611E+02 -0.37598012343E+02  0.69564202939E+02  0.00000000000E+00 0. -1.
        -14    1    6    6    0    0  0.39983898145E+02  0.14689748080E+03 -0.10623863625E+03  0.18564544112E+03  0.00000000000E+00 0.  1.
<mgrwt>
<rscale>  2 0.24345208E+03</rscale>
<asrwt>0</asrwt>
<pdfrwt beam="1">  1       21 0.19453556E-01 0.24356709E+03</pdfrwt>
<pdfrwt beam="2">  1       21 0.72191499E-01 0.24356709E+03</pdfrwt>
<totfact> 0.41057848E+04</totfact>
</mgrwt>
</event>
<event>
12    1  0.1050690E-001  0.2392337E+03  0.7546771E-02  0.1120486E+00
         21   -1    0    0  501  502  0.00000000000E+00  0.00000000000E+00  0.21344360867E+03  0.21344360867E+03  0.00000000000E+00 0. -1.
         21   -1    0    0  502  503 -0.00000000000E+00 -0.00000000000E+00 -0.36876879349E+03  0.36876879349E+03  0.00000000000E+00 0. -1.
         -6    2    1    2    0  503  0.90516640000E+02  0.13680864976E+03  0.75190543212E+02  0.25077155903E+03  0.17413468427E+03 0.  0.
        -24    2    3    3    0    0  0.11681364483E+03  0.81937026825E+02  0.91539269587E+02  0.18759087907E+03  0.80323072970E+02 0.  0.
          6    2    1    2  501    0 -0.90516640000E+02 -0.13680864976E+03 -0.23051572803E+03  0.33144084312E+03  0.17264316626E+03 0.  0.
         24    2    5    5    0    0 -0.11512770315E+03 -0.12471293092E+03 -0.23785142364E+03  0.30266736100E+03  0.78908355184E+02 0.  0.
          5    1    5    5  501    0  0.24611063147E+02 -0.12095718839E+02  0.73356956066E+01  0.28773482123E+02  0.47000000000E+01 0. -1.
        -11    1    6    6    0    0 -0.10454049289E+02 -0.93219266253E+01 -0.78767475060E+02  0.80003128625E+02  0.00000000000E+00 0.  1.
         12    1    6    6    0    0 -0.10467365386E+03 -0.11539100429E+03 -0.15908394858E+03  0.22266423237E+03  0.00000000000E+00 0. -1.
         -5    1    3    3    0  503 -0.26297004831E+02  0.54871622931E+02 -0.16348726376E+02  0.63180679960E+02  0.47000000000E+01 0.  1.
         13    1    4    4    0    0  0.12763796222E+03  0.83720187741E+02  0.87178694543E+02  0.17578579015E+03  0.00000000000E+00 0. -1.
        -14    1    4    4    0    0 -0.10824317391E+02 -0.17831609155E+01  0.43605750443E+01  0.11805088926E+02  0.00000000000E+00 0.  1.
<mgrwt>
<rscale>  2 0.23896236E+03</rscale>
<asrwt>0</asrwt>
<pdfrwt beam="1">  1       21 0.32837478E-01 0.23923369E+03</pdfrwt>
<pdfrwt beam="2">  1       21 0.56733660E-01 0.23923369E+03</pdfrwt>
<totfact> 0.25433164E+04</totfact>
</mgrwt>
</event>
<event>
12    1  0.1050690E-001  0.2151076E+03  0.7546771E-02  0.1137742E+00
         21   -1    0    0  501  502  0.00000000000E+00  0.00000000000E+00  0.72541476788E+03  0.72541476788E+03  0.00000000000E+00 0. -1.
         21   -1    0    0  502  503 -0.00000000000E+00 -0.00000000000E+00 -0.71506309971E+02  0.71506309971E+02  0.00000000000E+00 0.  1.
         -6    2    1    2    0  503  0.11187596684E+02  0.12762153086E+03  0.19341862181E+03  0.28866705361E+03  0.17177161325E+03 0.  0.
        -24    2    3    3    0    0  0.41840268088E+02  0.13396928708E+03  0.20410683614E+03  0.25525735144E+03  0.61630649782E+02 0.  0.
          6    2    1    2  501    0 -0.11187596684E+02 -0.12762153086E+03  0.46048983609E+03  0.50825402424E+03  0.17279712541E+03 0.  0.
         24    2    5    5    0    0 -0.54096735096E+02 -0.90018502974E+02  0.41813440009E+03  0.43704128082E+03  0.71686239828E+02 0.  0.
          5    1    5    5  501    0  0.42909138413E+02 -0.37603027885E+02  0.42355436006E+02  0.71212743415E+02  0.47000000000E+01 0. -1.
        -11    1    6    6    0    0 -0.12027273709E+02 -0.31795034559E+02  0.41630821409E+02  0.53746672703E+02  0.00000000000E+00 0.  1.
         12    1    6    6    0    0 -0.42069461388E+02 -0.58223468415E+02  0.37650357868E+03  0.38329460812E+03  0.00000000000E+00 0. -1.
         -5    1    3    3    0  503 -0.30652671404E+02 -0.63477562194E+01 -0.10688214330E+02  0.33409702166E+02  0.47000000000E+01 0.  1.
         13    1    4    4    0    0  0.38528529881E+02  0.32607024036E+02  0.52240012604E+02  0.72640791214E+02  0.00000000000E+00 0. -1.
        -14    1    4    4    0    0  0.33117382070E+01  0.10136226304E+03  0.15186682354E+03  0.18261656023E+03  0.00000000000E+00 0.  1.
<mgrwt>
<rscale>  2 0.21490154E+03</rscale>
<asrwt>0</asrwt>
<pdfrwt beam="1">  1       21 0.11160227E+00 0.21510756E+03</pdfrwt>
<pdfrwt beam="2">  1       21 0.11000971E-01 0.21510756E+03</pdfrwt>
<totfact> 0.42699254E+04</totfact>
</mgrwt>
</event>
<event>
12    1  0.1050690E-001  0.2512975E+03  0.7546771E-02  0.1112738E+00
         21   -1    0    0  501  502  0.00000000000E+00  0.00000000000E+00  0.14100380301E+04  0.14100380301E+04  0.00000000000E+00 0.  1.
         21   -1    0    0  502  503 -0.00000000000E+00 -0.00000000000E+00 -0.13989296681E+03  0.13989296681E+03  0.00000000000E+00 0. -1.
         -6    2    1    2    0  503  0.15498296548E+03 -0.95997418107E+02 -0.54983223121E+01  0.24977081866E+03  0.17064585091E+03 0.  0.
        -24    2    3    3    0    0  0.93429217312E+02 -0.11584991966E+03 -0.44305037695E+02  0.17419941607E+03  0.78944776010E+02 0.  0.
          6    2    1    2  501    0 -0.15498296548E+03  0.95997418107E+02  0.12756433856E+04  0.13001601783E+04  0.17296016312E+03 0.  0.
         24    2    5    5    0    0 -0.16293495886E+03  0.11692173010E+03  0.12328447004E+04  0.12516330880E+04  0.80379350442E+02 0.  0.
          5    1    5    5  501    0  0.79519933843E+01 -0.20924311992E+02  0.42798685294E+02  0.48527090311E+02  0.47000000000E+01 0. -1.
        -13    1    6    6    0    0 -0.97483396408E+02  0.41632214380E+02  0.44261291935E+03  0.45512904788E+03  0.00000000000E+00 0.  1.
         14    1    6    6    0    0 -0.65451562454E+02  0.75289515719E+02  0.79023178101E+03  0.79650404012E+03  0.00000000000E+00 0. -1.
         -5    1    3    3    0  503  0.61553748166E+02  0.19852501554E+02  0.38806715383E+02  0.75571402594E+02  0.47000000000E+01 0.  1.
         11    1    4    4    0    0  0.99937345531E+02 -0.72125797295E+02 -0.24034990695E+02  0.12556784797E+03  0.00000000000E+00 0. -1.
        -12    1    4    4    0    0 -0.65081282186E+01 -0.43724122367E+02 -0.20270047000E+02  0.48631568092E+02  0.00000000000E+00 0.  1.
<mgrwt>
<rscale>  2 0.25089977E+03</rscale>
<asrwt>0</asrwt>
<pdfrwt beam="1">  1       21 0.21692892E+00 0.25129752E+03</pdfrwt>
<pdfrwt beam="2">  1       21 0.21521996E-01 0.25129752E+03</pdfrwt>
<totfact> 0.19991427E+03</totfact>
</mgrwt>
</event>
<event>
12    1  0.1050690E-001  0.2686460E+03  0.7546771E-02  0.1102135E+00
         21   -1    0    0  501  502  0.00000000000E+00  0.00000000000E+00  0.93020696504E+03  0.93020696504E+03  0.00000000000E+00 0. -1.
         21   -1    0    0  502  503 -0.00000000000E+00 -0.00000000000E+00 -0.89483750216E+02  0.89483750216E+02  0.00000000000E+00 0.  1.
         -6    2    1    2    0  503  0.14195320090E+03 -0.14882471491E+03  0.23360318668E+03  0.35600716726E+03  0.17283271478E+03 0.  0.
        -24    2    3    3    0    0  0.58203146451E+02 -0.21205532267E+02  0.15011037424E+03  0.18195583251E+03  0.82082395646E+02 0.  0.
          6    2    1    2  501    0 -0.14195320090E+03  0.14882471491E+03  0.60712002814E+03  0.66368354800E+03  0.17199307048E+03 0.  0.
         24    2    5    5    0    0 -0.99068989150E+02  0.15324159516E+03  0.35595654781E+03  0.40880367766E+03  0.84366651243E+02 0.  0.
          5    1    5    5  501    0 -0.42884211755E+02 -0.44168802493E+01  0.25116348034E+03  0.25487987034E+03  0.47000000000E+01 0. -1.
        -13    1    6    6    0    0  0.12833471500E+02  0.70333774263E+01  0.46165890798E+02  0.48429906689E+02  0.00000000000E+00 0.  1.
         14    1    6    6    0    0 -0.11190246065E+03  0.14620821773E+03  0.30979065701E+03  0.36037377097E+03  0.00000000000E+00 0. -1.
         -5    1    3    3    0  503  0.83750054454E+02 -0.12761918264E+03  0.83492812441E+02  0.17405133475E+03  0.47000000000E+01 0.  1.
         11    1    4    4    0    0  0.36257776883E+02 -0.43924691529E+02  0.46161509761E+02  0.73313640572E+02  0.00000000000E+00 0. -1.
        -12    1    4    4    0    0  0.21945369568E+02  0.22719159262E+02  0.10394886448E+03  0.10864219194E+03  0.00000000000E+00 0.  1.
<mgrwt>
<rscale>  2 0.26851101E+03</rscale>
<asrwt>0</asrwt>
<pdfrwt beam="1">  1       21 0.14310876E+00 0.26864596E+03</pdfrwt>
<pdfrwt beam="2">  1       21 0.13766731E-01 0.26864596E+03</pdfrwt>
<totfact> 0.14792333E+04</totfact>
</mgrwt>
</event>
<event>
12    1  0.1050690E-001  0.1830142E+03  0.7546771E-02  0.1165038E+00
         21   -1    0    0  503  502  0.00000000000E+00  0.00000000000E+00  0.47527941164E+02  0.47527941164E+02  0.00000000000E+00 0. -1.
         21   -1    0    0  501  503 -0.00000000000E+00 -0.00000000000E+00 -0.87758141022E+03  0.87758141022E+03  0.00000000000E+00 0. -1.
          6    2    1    2  501    0  0.30070622173E+02 -0.53498504540E+02 -0.62101144404E+03  0.64727346590E+03  0.17187609993E+03 0.  0.
         24    2    3    3    0    0  0.76920384638E+02 -0.62480671675E+02 -0.36407818764E+03  0.38590711800E+03  0.80936994662E+02 0.  0.
         -6    2    1    2    0  502 -0.30070622173E+02  0.53498504540E+02 -0.20904202501E+03  0.27783588548E+03  0.17241774483E+03 0.  0.
        -24    2    5    5    0    0 -0.67945741634E+01  0.99244172673E+02 -0.10540731287E+03  0.16209183974E+03  0.72577481736E+02 0.  0.
          5    1    3    3  501    0 -0.46849762465E+02  0.89821671344E+01 -0.25693325640E+03  0.26136634790E+03  0.47000000000E+01 0. -1.
        -11    1    4    4    0    0  0.45940656836E+02  0.95191661145E+00 -0.22825230065E+03  0.23283161909E+03  0.00000000000E+00 0.  1.
         12    1    4    4    0    0  0.30979727802E+02 -0.63432588286E+02 -0.13582588700E+03  0.15307549892E+03  0.00000000000E+00 0. -1.
         -5    1    5    5    0  502 -0.23276048009E+02 -0.45745668132E+02 -0.10363471214E+03  0.11574404574E+03  0.47000000000E+01 0.  1.
         13    1    6    6    0    0 -0.15621001253E+02  0.26561685393E+02  0.33389216727E+01  0.30994954574E+02  0.00000000000E+00 0. -1.
        -14    1    6    6    0    0  0.88264270896E+01  0.72682487279E+02 -0.10874623454E+03  0.13109688516E+03  0.00000000000E+00 0.  1.
<mgrwt>
<rscale>  2 0.18288656E+03</rscale>
<asrwt>0</asrwt>
<pdfrwt beam="1">  1       21 0.73119917E-02 0.18301424E+03</pdfrwt>
<pdfrwt beam="2">  1       21 0.13501251E+00 0.18301424E+03</pdfrwt>
<totfact> 0.55372548E+04</totfact>
</mgrwt>
</event>
<event>
12    1  0.1050690E-001  0.1888630E+03  0.7546771E-02  0.1159821E+00
         21   -1    0    0  501  502  0.00000000000E+00  0.00000000000E+00  0.52340991759E+02  0.52340991759E+02  0.00000000000E+00 0.  1.
         21   -1    0    0  502  503 -0.00000000000E+00 -0.00000000000E+00 -0.70495919623E+03  0.70495919623E+03  0.00000000000E+00 0.  1.
         -6    2    1    2    0  503 -0.11217841668E+02  0.69942655689E+02 -0.40149995496E+03  0.44308750441E+03  0.17351226953E+03 0.  0.
        -24    2    3    3    0    0 -0.53133936944E+02  0.94735300781E+02 -0.30799299092E+03  0.33755420816E+03  0.85353198663E+02 0.  0.
          6    2    1    2  501    0  0.11217841668E+02 -0.69942655689E+02 -0.25111824951E+03  0.31421268357E+03  0.17507547009E+03 0.  0.
         24    2    5    5    0    0 -0.50197101835E+02  0.27977318453E+01 -0.50267391079E+02  0.91892831567E+02  0.58222895423E+02 0.  0.
          5    1    5    5  501    0  0.61414943503E+02 -0.72740387534E+02 -0.20085085843E+03  0.22231985201E+03  0.47000000000E+01 0. -1.
        -11    1    6    6    0    0 -0.16874934620E+02  0.20556678947E+02 -0.46986617403E+02  0.53991505654E+02  0.00000000000E+00 0.  1.
         12    1    6    6    0    0 -0.33322167215E+02 -0.17758947102E+02 -0.32807736757E+01  0.37901325913E+02  0.00000000000E+00 0. -1.
         -5    1    3    3    0  503  0.41916095276E+02 -0.24792645092E+02 -0.93506964040E+02  0.10553329625E+03  0.47000000000E+01 0.  1.
         13    1    4    4    0    0  0.31506450235E+01  0.79807436655E+02 -0.18220613465E+03  0.19894277824E+03  0.00000000000E+00 0. -1.
        -14    1    4    4    0    0 -0.56284581968E+02  0.14927864126E+02 -0.12578685627E+03  0.13861142992E+03  0.00000000000E+00 0.  1.
<mgrwt>
<rscale>  2 0.18849992E+03</rscale>
<asrwt>0</asrwt>
<pdfrwt beam="1">  1       21 0.80524610E-02 0.18886301E+03</pdfrwt>
<pdfrwt beam="2">  1       21 0.10845525E+00 0.18886301E+03</pdfrwt>
<totfact> 0.80318208E+04</totfact>
</mgrwt>
</event>
